  MPI-parallelism will be employed.
------------------------------------------------------------
          Invoking FHI-aims ...
          Version 171221_1
          Compiled on 2019/09/09 at 14:39:39 on host puhti-login2.bullx.

          When using FHI-aims, please cite the following reference:

          Volker Blum, Ralf Gehrke, Felix Hanke, Paula Havu,
          Ville Havu, Xinguo Ren, Karsten Reuter, and Matthias Scheffler,
          'Ab Initio Molecular Simulations with Numeric Atom-Centered Orbitals',
          Computer Physics Communications 180, 2175-2196 (2009)

          For any questions about FHI-aims, please visit the aimsclub website
          with its forums and wiki. Contributions to both the forums and the
          wiki are warmly encouraged - they are for you, and everyone is welcome there.

------------------------------------------------------------



  Date     :  20200601, Time     :  012145.071
  Time zero on CPU 1             :   0.262800000000000E-01  s.
  Internal wall clock time zero  :           360206505.071  s.

  FHI-aims created a unique identifier for this run for later identification
  aims_uuid : 6E2F5A9C-6A54-41DA-AF59-6E6D416FAFB4

  Using       20 parallel tasks.
  Task        0 on host r04c45.bullx reporting.
  Task        1 on host r04c45.bullx reporting.
  Task        2 on host r04c45.bullx reporting.
  Task        3 on host r04c45.bullx reporting.
  Task        4 on host r04c45.bullx reporting.
  Task        5 on host r04c45.bullx reporting.
  Task        6 on host r04c45.bullx reporting.
  Task        7 on host r04c45.bullx reporting.
  Task        8 on host r04c45.bullx reporting.
  Task        9 on host r04c45.bullx reporting.
  Task       10 on host r04c45.bullx reporting.
  Task       11 on host r04c45.bullx reporting.
  Task       12 on host r04c45.bullx reporting.
  Task       13 on host r04c45.bullx reporting.
  Task       14 on host r04c45.bullx reporting.
  Task       15 on host r04c45.bullx reporting.
  Task       16 on host r04c45.bullx reporting.
  Task       17 on host r04c45.bullx reporting.
  Task       18 on host r04c45.bullx reporting.
  Task       19 on host r04c45.bullx reporting.

  Performing system and environment tests:
  | Environment variable OMP_NUM_THREADS correctly set to 1.
  | Stacksize not measured: no C compiler
  | Checking for scalapack...
  | Testing pdtran()...
  | All pdtran() tests passed.

  Obtaining array dimensions for all initial allocations:
  
  -----------------------------------------------------------------------
  Parsing control.in (first pass over file, find array dimensions only).
  The contents of control.in will be repeated verbatim below
  unless switched off by setting 'verbatim_writeout .false.' .
  in the first line of control.in .
  -----------------------------------------------------------------------
  
  #########################################################################################
  #
  #  Volker Blum, FHI 2009 : Test run input file control.in for simple H2O
  #
  #########################################################################################
  #
  #  Physical model
  #
    xc                 pbe
    vdw_correction_hirshfeld
    spin               none
    relativistic       none
    charge             0.
  #
  #  SCF convergence
  #
    occupation_type    gaussian 0.01
    mixer              pulay
      n_max_pulay        10
      charge_mix_param   0.2
    sc_accuracy_rho    1E-5
    sc_accuracy_eev    1E-3
    sc_accuracy_etot   1E-6
    sc_accuracy_forces 1E-4
    sc_iter_limit      100
  #
  #  Relaxation
  #
  #  relax_geometry   bfgs 1.e-3
  #
  ################################################################################
  #
  #  FHI-aims code project
  #  VB, Fritz-Haber Institut, 2009
  #
  #  Suggested "light" defaults for H atom (to be pasted into control.in file)
  #  Be sure to double-check any results obtained with these settings for post-processing,
  #  e.g., with the "tight" defaults and larger basis sets.
  #
  ################################################################################
    species        H
  #     global species definitions
      nucleus             1
      mass                1.00794
  #
      l_hartree           4
  #
      cut_pot             3.5  1.5  1.0
      basis_dep_cutoff    1e-4
  #
      radial_base         24 5.0
      radial_multiplier   1
      angular_grids       specified
        division   0.2421   50
        division   0.3822  110
        division   0.4799  194
        division   0.5341  302
  #      division   0.5626  434
  #      division   0.5922  590
  #      division   0.6542  770
  #      division   0.6868 1202
  #      outer_grid  770
        outer_grid  302
  ################################################################################
  #
  #  Definition of "minimal" basis
  #
  ################################################################################
  #     valence basis states
      valence      1  s   1.
  #     ion occupancy
      ion_occ      1  s   0.5
  ################################################################################
  #
  #  Suggested additional basis functions. For production calculations,
  #  uncomment them one after another (the most important basis functions are
  #  listed first).
  #
  #  Basis constructed for dimers: 0.5 A, 0.7 A, 1.0 A, 1.5 A, 2.5 A
  #
  ################################################################################
  #  "First tier" - improvements: -1014.90 meV to -62.69 meV
       hydro 2 s 2.1
       hydro 2 p 3.5
  #  "Second tier" - improvements: -12.89 meV to -1.83 meV
  #     hydro 1 s 0.85
  #     hydro 2 p 3.7
  #     hydro 2 s 1.2
  #     hydro 3 d 7
  #  "Third tier" - improvements: -0.25 meV to -0.12 meV
  #     hydro 4 f 11.2
  #     hydro 3 p 4.8
  #     hydro 4 d 9
  #     hydro 3 s 3.2
  ################################################################################
  #
  #  FHI-aims code project
  #  VB, Fritz-Haber Institut, 2009
  #
  #  Suggested "light" defaults for C atom (to be pasted into control.in file)
  #  Be sure to double-check any results obtained with these settings for post-processing,
  #  e.g., with the "tight" defaults and larger basis sets.
  #
  ################################################################################
    species        C
  #     global species definitions
      nucleus             6
      mass                12.0107
  #
      l_hartree           4
  #
      cut_pot             3.5  1.5  1.0
      basis_dep_cutoff    1e-4
  #
      radial_base         34 5.0
      radial_multiplier   1
      angular_grids specified
        division   0.3326   50
        division   0.5710  110
        division   0.7727  194
        division   0.8772  302
  #      division   0.9334  434
  #      division   0.9625  590
  #      division   0.9924  770
  #      division   1.0230  974
  #      division   1.4589 1202
  #     outer_grid  974
       outer_grid 302
  ################################################################################
  #
  #  Definition of "minimal" basis
  #
  ################################################################################
  #     valence basis states
      valence      2  s   2.
      valence      2  p   2.
  #     ion occupancy
      ion_occ      2  s   1.
      ion_occ      2  p   1.
  ################################################################################
  #
  #  Suggested additional basis functions. For production calculations,
  #  uncomment them one after another (the most important basis functions are
  #  listed first).
  #
  #  Constructed for dimers: 1.0 A, 1.25 A, 1.5 A, 2.0 A, 3.0 A
  #
  ################################################################################
  #  "First tier" - improvements: -1214.57 meV to -155.61 meV
       hydro 2 p 1.7
       hydro 3 d 6
       hydro 2 s 4.9
  #  "Second tier" - improvements: -67.75 meV to -5.23 meV
  #     hydro 4 f 9.8
  #     hydro 3 p 5.2
  #     hydro 3 s 4.3
  #     hydro 5 g 14.4
  #     hydro 3 d 6.2
  #  "Third tier" - improvements: -2.43 meV to -0.60 meV
  #     hydro 2 p 5.6
  #     hydro 2 s 1.4
  #     hydro 3 d 4.9
  #     hydro 4 f 11.2
  #  "Fourth tier" - improvements: -0.39 meV to -0.18 meV
  #     hydro 2 p 2.1
  #     hydro 5 g 16.4
  #     hydro 4 d 13.2
  #     hydro 3 s 13.6
  #     hydro 4 f 17.6
  #  Further basis functions - improvements: -0.08 meV and below
  #     hydro 3 s 2
  #     hydro 3 p 6
  #     hydro 4 d 20
  ################################################################################
  #
  #  FHI-aims code project
  #  VB, Fritz-Haber Institut, 2009
  #
  #  Suggested "light" defaults for N atom (to be pasted into control.in file)
  #  Be sure to double-check any results obtained with these settings for post-processing,
  #  e.g., with the "tight" defaults and larger basis sets.
  #
  ################################################################################
    species        N
  #     global species definitions
      nucleus             7
      mass                14.0067
  #
      l_hartree           4
  #
      cut_pot             3.5  1.5  1.0
      basis_dep_cutoff    1e-4
  #
      radial_base         35 5.0
      radial_multiplier   1
      angular_grids       specified
        division   0.2599   50
        division   0.4601  110
        division   0.5885  194
        division   0.6503  302
  #      division   0.6939  434
  #      division   0.7396  590
  #      division   0.7632  770
  #      division   0.8122  974
  #      division   1.1604 1202
  #      outer_grid  974
        outer_grid  302
  ################################################################################
  #
  #  Definition of "minimal" basis
  #
  ################################################################################
  #     valence basis states
      valence      2  s   2.
      valence      2  p   3.
  #     ion occupancy
      ion_occ      2  s   1.
      ion_occ      2  p   2.
  ################################################################################
  #
  #  Suggested additional basis functions. For production calculations,
  #  uncomment them one after another (the most important basis functions are
  #  listed first).
  #
  #  Constructed for dimers: 1.0 A, 1.1 A, 1.5 A, 2.0 A, 3.0 A
  #
  ################################################################################
  #  "First tier" - improvements: -1193.42 meV to -220.60 meV
       hydro 2 p 1.8
       hydro 3 d 6.8
       hydro 3 s 5.8
  #  "Second tier" - improvements: -80.21 meV to -6.86 meV
  #     hydro 4 f 10.8
  #     hydro 3 p 5.8
  #     hydro 1 s 0.8
  #     hydro 5 g 16
  #     hydro 3 d 4.9
  #  "Third tier" - improvements: -4.29 meV to -0.53 meV
  #     hydro 3 s 16
  #     ionic 2 p auto
  #     hydro 3 d 6.6
  #     hydro 4 f 11.6
  #  "Fourth tier" - improvements: -0.75 meV to -0.25 meV
  #     hydro 2 p 4.5
  #     hydro 2 s 2.4
  #     hydro 5 g 14.4
  #     hydro 4 d 14.4
  #     hydro 4 f 16.8
  # Further basis functions - -0.21 meV and below
  #     hydro 3 p 14.8
  #     hydro 3 s 4.4
  #     hydro 3 d 19.6
  #     hydro 5 g 12.8
  ################################################################################
  #
  #  FHI-aims code project
  #  VB, Fritz-Haber Institut, 2009
  #
  #  Suggested "light" defaults for O atom (to be pasted into control.in file)
  #  Be sure to double-check any results obtained with these settings for post-processing,
  #  e.g., with the "tight" defaults and larger basis sets.
  #
  ################################################################################
    species        O
  #     global species definitions
      nucleus             8
      mass                15.9994
  #
      l_hartree           4
  #
      cut_pot             3.5  1.5  1.0
      basis_dep_cutoff    1e-4
  #
      radial_base         36 5.0
      radial_multiplier   1
       angular_grids specified
        division   0.2659   50
        division   0.4451  110
        division   0.6052  194
        division   0.7543  302
  #      division   0.8014  434
  #      division   0.8507  590
  #      division   0.8762  770
  #      division   0.9023  974
  #      division   1.2339 1202
  #      outer_grid 974
        outer_grid 302
  ################################################################################
  #
  #  Definition of "minimal" basis
  #
  ################################################################################
  #     valence basis states
      valence      2  s   2.
      valence      2  p   4.
  #     ion occupancy
      ion_occ      2  s   1.
      ion_occ      2  p   3.
  ################################################################################
  #
  #  Suggested additional basis functions. For production calculations,
  #  uncomment them one after another (the most important basis functions are
  #  listed first).
  #
  #  Constructed for dimers: 1.0 A, 1.208 A, 1.5 A, 2.0 A, 3.0 A
  #
  ################################################################################
  #  "First tier" - improvements: -699.05 meV to -159.38 meV
       hydro 2 p 1.8
       hydro 3 d 7.6
       hydro 3 s 6.4
  #  "Second tier" - improvements: -49.91 meV to -5.39 meV
  #     hydro 4 f 11.6
  #     hydro 3 p 6.2
  #     hydro 3 d 5.6
  #     hydro 5 g 17.6
  #     hydro 1 s 0.75
  #  "Third tier" - improvements: -2.83 meV to -0.50 meV
  #     ionic 2 p auto
  #     hydro 4 f 10.8
  #     hydro 4 d 4.7
  #     hydro 2 s 6.8
  #  "Fourth tier" - improvements: -0.40 meV to -0.12 meV
  #     hydro 3 p 5
  #     hydro 3 s 3.3
  #     hydro 5 g 15.6
  #     hydro 4 f 17.6
  #     hydro 4 d 14
  # Further basis functions - -0.08 meV and below
  #     hydro 3 s 2.1
  #     hydro 4 d 11.6
  #     hydro 3 p 16
  #     hydro 2 s 17.2
  
  -----------------------------------------------------------------------
  Completed first pass over input file control.in .
  -----------------------------------------------------------------------
  
  
  -----------------------------------------------------------------------
  Parsing geometry.in (first pass over file, find array dimensions only).
  The contents of geometry.in will be repeated verbatim below
  unless switched off by setting 'verbatim_writeout .false.' .
  in the first line of geometry.in .
  -----------------------------------------------------------------------
  
  atom  0.00000 0.00000 0.00000 C
  atom  1.09300 0.00000 0.00000 H
  atom  -0.47961 0.00000 -1.41207 N
  atom  -1.34149 0.54425 -1.46477 H
  atom  0.23746 0.41870 -2.00082 H
  atom  -0.49584 1.26211 0.72868 C
  atom  0.21813 1.56305 1.49890 H
  atom  -0.61357 2.08816 0.02345 H
  atom  -1.46059 1.07309 1.20523 H
  atom  -0.39425 -1.28861 0.74398 C
  atom  -0.13006 -1.55038 1.89330 O
  atom  -1.06860 -2.15447 0.05675 O
  atom  -1.05918 -1.69433 -0.79950 H
  
  -----------------------------------------------------------------------
  Completed first pass over input file geometry.in .
  -----------------------------------------------------------------------
  

  Basic array size parameters:
  | Number of species                 :        4
  | Number of atoms                   :       13
  | Max. basis fn. angular momentum   :        2
  | Max. atomic/ionic basis occupied n:        2
  | Max. number of basis fn. types    :        2
  | Max. radial fns per species/type  :        3
  | Max. logarithmic grid size        :     1301
  | Max. radial integration grid size :       36
  | Max. angular integration grid size:      302
  | Max. angular grid division number :        8
  | Radial grid for Hartree potential :     1301
  | Number of spin channels           :        1

------------------------------------------------------------
          Reading file control.in.
------------------------------------------------------------
  XC: Using PBE gradient-corrected functionals.
  Spin treatment: No spin polarisation.
  Non-relativistic treatment of kinetic energy.
  Charge =   0.000000E+00: Neutral system requested explicitly.
  Occupation type: Gaussian broadening, width =   0.100000E-01 eV.
  Using pulay charge density mixing.
  Pulay mixing - number of memorized iterations:   10
  Charge density mixing - mixing parameter:     0.2000
  Convergence accuracy of self-consistent charge density:  0.1000E-04
  Convergence accuracy of sum of eigenvalues:  0.1000E-02
  Convergence accuracy of total energy:  0.1000E-05
  Convergence accuracy of forces:  0.1000E-03
  Maximum number of s.-c. iterations  :   100
 
  Reading configuration options for species H                   .
  | Found nuclear charge :   1.0000
  | Found atomic mass :    1.00794000000000      amu
  | Found l_max for Hartree potential  :   4
  | Found cutoff potl. onset [A], width [A], scale factor :    3.50000    1.50000    1.00000
  | Threshold for basis-dependent cutoff potential is   0.100000E-03
  | Found data for basic radial integration grid :    24 points, outermost radius =    5.000 A
  | Found multiplier for basic radial grid :   1
  | Found angular grid specification: user-specified.
  | Specified grid contains     5 separate shells.
  | Check grid settings after all constraints further below.
  | Found free-atom valence shell :  1 s   1.000
  | No ionic wave fns used. Skipping ion_occ.
  | Found hydrogenic basis function :  2 s   2.100
  | Found hydrogenic basis function :  2 p   3.500
  Species H                   : Missing cutoff potential type.
  Defaulting to exp(1/x)/(1-x)^2 type cutoff potential.
  Species H : No 'logarithmic' tag. Using default grid for free atom:
  | Default logarithmic grid data [bohr] : 0.1000E-03 0.1000E+03 0.1012E+01
  Species H : On-site basis accuracy parameter (for Gram-Schmidt orthonormalisation) not specified.
  Using default value basis_acc =  0.1000000E-03.
  Species H                   : Using default innermost maximum threshold i_radial=  2 for radial functions.
  Species H                   : Default cutoff onset for free atom density etc. : 0.35000000E+01 AA.
  Species H                   : Basic radial grid will be enhanced according to radial_multiplier =   1, to contain    24 grid points.
 
  Reading configuration options for species C                   .
  | Found nuclear charge :   6.0000
  | Found atomic mass :    12.0107000000000      amu
  | Found l_max for Hartree potential  :   4
  | Found cutoff potl. onset [A], width [A], scale factor :    3.50000    1.50000    1.00000
  | Threshold for basis-dependent cutoff potential is   0.100000E-03
  | Found data for basic radial integration grid :    34 points, outermost radius =    5.000 A
  | Found multiplier for basic radial grid :   1
  | Found angular grid specification: user-specified.
  | Specified grid contains     5 separate shells.
  | Check grid settings after all constraints further below.
  | Found free-atom valence shell :  2 s   2.000
  | Found free-atom valence shell :  2 p   2.000
  | No ionic wave fns used. Skipping ion_occ.
  | No ionic wave fns used. Skipping ion_occ.
  | Found hydrogenic basis function :  2 p   1.700
  | Found hydrogenic basis function :  3 d   6.000
  | Found hydrogenic basis function :  2 s   4.900
  Species C                   : Missing cutoff potential type.
  Defaulting to exp(1/x)/(1-x)^2 type cutoff potential.
  Species C : No 'logarithmic' tag. Using default grid for free atom:
  | Default logarithmic grid data [bohr] : 0.1000E-03 0.1000E+03 0.1012E+01
  Species C : On-site basis accuracy parameter (for Gram-Schmidt orthonormalisation) not specified.
  Using default value basis_acc =  0.1000000E-03.
  Species C                   : Using default innermost maximum threshold i_radial=  2 for radial functions.
  Species C                   : Default cutoff onset for free atom density etc. : 0.35000000E+01 AA.
  Species C                   : Basic radial grid will be enhanced according to radial_multiplier =   1, to contain    34 grid points.
 
  Reading configuration options for species N                   .
  | Found nuclear charge :   7.0000
  | Found atomic mass :    14.0067000000000      amu
  | Found l_max for Hartree potential  :   4
  | Found cutoff potl. onset [A], width [A], scale factor :    3.50000    1.50000    1.00000
  | Threshold for basis-dependent cutoff potential is   0.100000E-03
  | Found data for basic radial integration grid :    35 points, outermost radius =    5.000 A
  | Found multiplier for basic radial grid :   1
  | Found angular grid specification: user-specified.
  | Specified grid contains     5 separate shells.
  | Check grid settings after all constraints further below.
  | Found free-atom valence shell :  2 s   2.000
  | Found free-atom valence shell :  2 p   3.000
  | No ionic wave fns used. Skipping ion_occ.
  | No ionic wave fns used. Skipping ion_occ.
  | Found hydrogenic basis function :  2 p   1.800
  | Found hydrogenic basis function :  3 d   6.800
  | Found hydrogenic basis function :  3 s   5.800
  Species N                   : Missing cutoff potential type.
  Defaulting to exp(1/x)/(1-x)^2 type cutoff potential.
  Species N : No 'logarithmic' tag. Using default grid for free atom:
  | Default logarithmic grid data [bohr] : 0.1000E-03 0.1000E+03 0.1012E+01
  Species N : On-site basis accuracy parameter (for Gram-Schmidt orthonormalisation) not specified.
  Using default value basis_acc =  0.1000000E-03.
  Species N                   : Using default innermost maximum threshold i_radial=  2 for radial functions.
  Species N                   : Default cutoff onset for free atom density etc. : 0.35000000E+01 AA.
  Species N                   : Basic radial grid will be enhanced according to radial_multiplier =   1, to contain    35 grid points.
 
  Reading configuration options for species O                   .
  | Found nuclear charge :   8.0000
  | Found atomic mass :    15.9994000000000      amu
  | Found l_max for Hartree potential  :   4
  | Found cutoff potl. onset [A], width [A], scale factor :    3.50000    1.50000    1.00000
  | Threshold for basis-dependent cutoff potential is   0.100000E-03
  | Found data for basic radial integration grid :    36 points, outermost radius =    5.000 A
  | Found multiplier for basic radial grid :   1
  | Found angular grid specification: user-specified.
  | Specified grid contains     5 separate shells.
  | Check grid settings after all constraints further below.
  | Found free-atom valence shell :  2 s   2.000
  | Found free-atom valence shell :  2 p   4.000
  | No ionic wave fns used. Skipping ion_occ.
  | No ionic wave fns used. Skipping ion_occ.
  | Found hydrogenic basis function :  2 p   1.800
  | Found hydrogenic basis function :  3 d   7.600
  | Found hydrogenic basis function :  3 s   6.400
  Species O                   : Missing cutoff potential type.
  Defaulting to exp(1/x)/(1-x)^2 type cutoff potential.
  Species O : No 'logarithmic' tag. Using default grid for free atom:
  | Default logarithmic grid data [bohr] : 0.1000E-03 0.1000E+03 0.1012E+01
  Species O : On-site basis accuracy parameter (for Gram-Schmidt orthonormalisation) not specified.
  Using default value basis_acc =  0.1000000E-03.
  Species O                   : Using default innermost maximum threshold i_radial=  2 for radial functions.
  Species O                   : Default cutoff onset for free atom density etc. : 0.35000000E+01 AA.
  Species O                   : Basic radial grid will be enhanced according to radial_multiplier =   1, to contain    36 grid points.
 
  Finished reading input file 'control.in'. Consistency checks are next.
 
  MPI_IN_PLACE appears to work with this MPI implementation.
  | Keeping use_mpi_in_place .true. (see manual).
  Target number of points in a grid batch is not set. Defaulting to  100
  Method for grid partitioning is not set. Defaulting to parallel hash+maxmin partitioning.
  Batch size limit is not set. Defaulting to    200
  By default, will store active basis functions for each batch.
  If in need of memory, prune_basis_once .false. can be used to disable this option.
  communication_type for Hartree potential was not specified.
  Defaulting to calc_hartree .
  Pulay mixer: Number of initial linear mixing iterations not set.
  Defaulting to    0 iterations.
  Work space size for distributed Hartree potential not set.
  Defaulting to   0.200000E+03 MB.
  Algorithm-dependent basis array size parameters:
  | n_max_pulay                         :       10
  Presetting      1001 iterations before the initial mixing cycle
  is restarted anyway using the sc_init_iter criterion / keyword.
  Presetting a factor      1.000 between actual scf density residual
  and density convergence criterion sc_accuracy_rho below which sc_init_iter
  takes no effect.
  Geometry relaxation not requested: no relaxation will be performed.
  Handling of forces: Unphysical translation and rotation will be removed from forces.
  No accuracy limit for integral partition fn. given. Defaulting to  0.1000E-14.
  No threshold value for u(r) in integrations given. Defaulting to  0.1000E-05.
  No accuracy for occupation numbers given. Defaulting to  0.1000E-12.
  No threshold value for occupation numbers given. Defaulting to  0.0000E+00.
  No accuracy for fermi level given. Defaulting to  0.1000E-19.
  Maximum # of iterations to find E_F not set. Defaulting to  200.
  Preferred method for the eigenvalue solver ('KS_method') not specified in 'control.in'.
  Calling BLACS routine to test compilation state
  Since ScaLAPACK support is enabled, defaulting to 'elsi'.
  Will not use alltoall communication since running on < 1024 CPUs.
  Threshold for basis singularities not set.
  Default threshold for basis singularities:  0.1000E-04
  partition_type (choice of integration weights) for integrals was not specified.
  | Using a version of the partition function of Stratmann and coworkers ('stratmann_smoother').
  | At each grid point, the set of atoms used to build the partition table is smoothly restricted to
  | only those atoms whose free-atom density would be non-zero at that grid point.
  Partitioning for Hartree potential was not defined. Using partition_type for integrals.
  | Adjusted default value of keyword multip_moments_threshold to:       0.10000000E-11
  | This value may affect high angular momentum components of the Hartree potential in periodic systems.
  No q(lm)/r^(l+1) cutoff set for long-range Hartree potential.
  | Using default value of  0.100000E-09 .
  | Verify using the multipole_threshold keyword.
  Defaulting to new monopole extrapolation.
  Density update method: automatic selection selected.
------------------------------------------------------------


------------------------------------------------------------
          Reading geometry description geometry.in.
------------------------------------------------------------
  Input structure read successfully.
  The structure contains       13 atoms,  and a total of         48.000 electrons.

  Input geometry:
  | No unit cell requested.
  | Atomic structure:
  |       Atom                x [A]            y [A]            z [A]
  |    1: Species C             0.00000000        0.00000000        0.00000000
  |    2: Species H             1.09300000        0.00000000        0.00000000
  |    3: Species N            -0.47961000        0.00000000       -1.41207000
  |    4: Species H            -1.34149000        0.54425000       -1.46477000
  |    5: Species H             0.23746000        0.41870000       -2.00082000
  |    6: Species C            -0.49584000        1.26211000        0.72868000
  |    7: Species H             0.21813000        1.56305000        1.49890000
  |    8: Species H            -0.61357000        2.08816000        0.02345000
  |    9: Species H            -1.46059000        1.07309000        1.20523000
  |   10: Species C            -0.39425000       -1.28861000        0.74398000
  |   11: Species O            -0.13006000       -1.55038000        1.89330000
  |   12: Species O            -1.06860000       -2.15447000        0.05675000
  |   13: Species H            -1.05918000       -1.69433000       -0.79950000
  |

  | The smallest distance between any two atoms is         0.97210165 AA.
  |
  | The first atom of this pair is atom number                     12 .
  | The second atom of this pair is atom number                    13 .

  Number of empty states per atom not set in control.in - providing a guess from actual geometry.
  | Total number of empty states used during s.c.f. cycle:       29
  If you use a very high smearing, use empty_states (per atom!) in control.in to increase this value.

  Structure-dependent array size parameters: 
  | Maximum number of distinct radial functions  :       21
  | Maximum number of basis functions            :      119
  | Number of Kohn-Sham states (occupied + empty):       53
------------------------------------------------------------

------------------------------------------------------------
          Preparing all fixed parts of the calculation.
------------------------------------------------------------
  Determining machine precision:
    2.225073858507201E-308
  Setting up grids for atomic and cluster calculations.

  Creating wave function, potential, and density for free atoms.

  Species: H

  List of occupied orbitals and eigenvalues:
    n    l              occ      energy [Ha]    energy [eV]
    1    0           1.0000        -0.237589        -6.4651


  Species: C

  List of occupied orbitals and eigenvalues:
    n    l              occ      energy [Ha]    energy [eV]
    1    0           2.0000       -10.038835      -273.1706
    2    0           2.0000        -0.502696       -13.6791
    2    1           2.0000        -0.191971        -5.2238


  Species: N

  List of occupied orbitals and eigenvalues:
    n    l              occ      energy [Ha]    energy [eV]
    1    0           2.0000       -14.128000      -384.4424
    2    0           2.0000        -0.681077       -18.5330
    2    1           3.0000        -0.259788        -7.0692


  Species: O

  List of occupied orbitals and eigenvalues:
    n    l              occ      energy [Ha]    energy [eV]
    1    0           2.0000       -18.898188      -514.2459
    2    0           2.0000        -0.878505       -23.9053
    2    1           4.0000        -0.331779        -9.0282

  Creating fixed part of basis set: Ionic, confined, hydrogenic.
 
  H                    hydrogenic:
 
  List of hydrogenic basis orbitals: 
    n    l      effective z      eigenvalue [eV]  inner max. [A]     outer max. [A]     outer radius [A]   
    2    0         2.100000       -14.9728           0.193243           1.317208           4.583499
    2    1         3.500000       -41.6669           0.602369           0.602369           3.723403
 
 
  C                    hydrogenic:
 
  List of hydrogenic basis orbitals: 
    n    l      effective z      eigenvalue [eV]  inner max. [A]     outer max. [A]     outer radius [A]   
    2    1         1.700000        -9.7616           1.230570           1.230570           4.607917
    3    2         6.000000       -54.4224           0.792453           0.792453           3.883070
    2    0         4.900000       -81.6679           0.082559           0.562749           3.078220
 
 
  N                    hydrogenic:
 
  List of hydrogenic basis orbitals: 
    n    l      effective z      eigenvalue [eV]  inner max. [A]     outer max. [A]     outer radius [A]   
    2    1         1.800000       -10.9749           1.177451           1.177451           4.573712
    3    2         6.800000       -69.9026           0.704619           0.704619           3.538137
    3    0         5.800000       -50.8545           0.067388           1.191934           4.250239
 
 
  O                    hydrogenic:
 
  List of hydrogenic basis orbitals: 
    n    l      effective z      eigenvalue [eV]  inner max. [A]     outer max. [A]     outer radius [A]   
    2    1         1.800000       -10.9749           1.164242           1.164242           4.578029
    3    2         7.600000       -87.3180           0.624125           0.624125           3.251020
    3    0         6.400000       -61.9207           0.061167           1.081902           4.001998
 

  Adding cutoff potential to free-atom effective potential.
  Creating atomic-like basis functions for current effective potential.

  Species H                   :

  List of atomic basis orbitals and eigenvalues:
    n    l      energy [Ha]    energy [eV]    outer radius [A]
    1    0        -0.237589        -6.4651       4.527807


  Species C                   :

  List of atomic basis orbitals and eigenvalues:
    n    l      energy [Ha]    energy [eV]    outer radius [A]
    1    0       -10.038835      -273.1706       1.934409
    2    0        -0.502696       -13.6791       4.496620
    2    1        -0.191971        -5.2238       4.551928


  Species N                   :

  List of atomic basis orbitals and eigenvalues:
    n    l      energy [Ha]    energy [eV]    outer radius [A]
    1    0       -14.128000      -384.4424       1.637919
    2    0        -0.681077       -18.5330       4.463241
    2    1        -0.259788        -7.0692       4.518138


  Species O                   :

  List of atomic basis orbitals and eigenvalues:
    n    l      energy [Ha]    energy [eV]    outer radius [A]
    1    0       -18.898188      -514.2459       1.415765
    2    0        -0.878505       -23.9053       4.413171
    2    1        -0.331779        -9.0282       4.522403

  Assembling full basis from fixed parts.
  | Species H :   atomic orbital   1 s accepted.
  | Species H :    hydro orbital   2 s accepted.
  | Species H :    hydro orbital   2 p accepted.
  | Species C :   atomic orbital   1 s accepted.
  | Species C :    hydro orbital   2 s accepted.
  | Species C :   atomic orbital   2 s accepted.
  | Species C :   atomic orbital   2 p accepted.
  | Species C :    hydro orbital   2 p accepted.
  | Species C :    hydro orbital   3 d accepted.
  | Species N :   atomic orbital   1 s accepted.
  | Species N :    hydro orbital   3 s accepted.
  | Species N :   atomic orbital   2 s accepted.
  | Species N :   atomic orbital   2 p accepted.
  | Species N :    hydro orbital   2 p accepted.
  | Species N :    hydro orbital   3 d accepted.
  | Species O :   atomic orbital   1 s accepted.
  | Species O :    hydro orbital   3 s accepted.
  | Species O :   atomic orbital   2 s accepted.
  | Species O :   atomic orbital   2 p accepted.
  | Species O :    hydro orbital   2 p accepted.
  | Species O :    hydro orbital   3 d accepted.
 
  Basis size parameters after reduction:
  | Total number of radial functions:       21
  | Total number of basis functions :      119
 
  Per-task memory consumption for arrays in subroutine allocate_ext:
  |           5.250512MB.
  Testing on-site integration grid accuracy.
  |  Species  Function  <phi|h_atom|phi> (log., in eV)  <phi|h_atom|phi> (rad., in eV)
           1        1                 -6.4663192853                 -6.4651273558
           1        2                 13.7111246313                 13.7170609718
           1        3                 25.2673269279                 25.2674696378
           2        4               -273.1705927641               -273.1705631568
           2        5                -10.7109323383                -10.7107120029
           2        6                 17.4381822266                 17.4352413244
           2        7                 -5.2255326521                 -5.2270484734
           2        8                  8.6835629259                  8.6603288385
           2        9                 27.4952418996                 27.4953360207
           3       10               -384.4424306495               -384.4423701208
           3       11                 12.5842251816                 12.5842222903
           3       12                -15.7264628251                -15.7264433455
           3       13                 -7.0696854293                 -7.0701769954
           3       14                  8.8090390882                  8.7901077751
           3       15                 35.9586762123                 35.9588528632
           4       16               -514.2458688638               -514.2457643834
           4       17                 15.1795651126                 15.1795290741
           4       18                -21.5359799773                -21.5360846186
           4       19                 -9.0283069236                 -9.0284644067
           4       20                  8.3027758564                  8.2834874195
           4       21                 45.8339351984                 45.8338762259

  Preparing densities etc. for the partition functions (integrals / Hartree potential).

  Preparations completed.
  max(cpu_time)          :      0.165 s.
  Wall clock time (cpu1) :      0.165 s.
------------------------------------------------------------

------------------------------------------------------------
          Begin self-consistency loop: Initialization.

          Date     :  20200601, Time     :  012145.272
------------------------------------------------------------

  Initializing index lists of integration centers etc. from given atomic structure:
  | Number of centers in hartree potential         :        13
  | Number of centers in hartree multipole         :        13
  | Number of centers in electron density summation:        13
  | Number of centers in basis integrals           :        13
  | Number of centers in integrals                 :        13
  | Number of centers in hamiltonian               :        13
  * Using 20 tasks for Scalapack Eigenvalue solver.
  Detailed listing of tasks and assigned k-points:
  (for non-periodic systems, the "k-point" denotes an internal label only)
   Task     0 k-point     1 on r04c45.bullx
   Task     1 k-point     1 on r04c45.bullx
   Task     2 k-point     1 on r04c45.bullx
   Task     3 k-point     1 on r04c45.bullx
   Task     4 k-point     1 on r04c45.bullx
   Task     5 k-point     1 on r04c45.bullx
   Task     6 k-point     1 on r04c45.bullx
   Task     7 k-point     1 on r04c45.bullx
   Task     8 k-point     1 on r04c45.bullx
   Task     9 k-point     1 on r04c45.bullx
   Task    10 k-point     1 on r04c45.bullx
   Task    11 k-point     1 on r04c45.bullx
   Task    12 k-point     1 on r04c45.bullx
   Task    13 k-point     1 on r04c45.bullx
   Task    14 k-point     1 on r04c45.bullx
   Task    15 k-point     1 on r04c45.bullx
   Task    16 k-point     1 on r04c45.bullx
   Task    17 k-point     1 on r04c45.bullx
   Task    18 k-point     1 on r04c45.bullx
   Task    19 k-point     1 on r04c45.bullx
  Tasks:    20 split into      5 X      4 BLACS grid
  Calculating block size based on n_basis =          119  max_nprow =            5  max_npcol =            4
  ScaLAPACK block size set to:           16
  Allocating        0.008 MB for ovlp
  Allocating        0.008 MB for ham
  Allocating        0.008 MB for eigenvec
  Required Scalapack workspace - INTEGER:            1  REAL:             1
  Partitioning the integration grid into batches with parallel hashing+maxmin method.
  | Number of batches:      959
  | Maximal batch size:     187
  | Minimal batch size:      49
  | Average batch size:      72.624
  | Standard deviation of batch sizes:      24.968

  Integration load balanced across    20 MPI tasks.
  Work distribution over tasks is as follows:
  Task     0 has       3426 integration points.
  Task     1 has       3495 integration points.
  Task     2 has       3580 integration points.
  Task     3 has       3462 integration points.
  Task     4 has       3568 integration points.
  Task     5 has       3430 integration points.
  Task     6 has       3476 integration points.
  Task     7 has       3445 integration points.
  Task     8 has       3451 integration points.
  Task     9 has       3476 integration points.
  Task    10 has       3484 integration points.
  Task    11 has       3577 integration points.
  Task    12 has       3475 integration points.
  Task    13 has       3449 integration points.
  Task    14 has       3447 integration points.
  Task    15 has       3478 integration points.
  Task    16 has       3458 integration points.
  Task    17 has       3575 integration points.
  Task    18 has       3411 integration points.
  Task    19 has       3483 integration points.
  Initializing partition tables, free-atom densities, potentials, etc. across the integration grid (initialize_grid_storage).
  | initialize_grid_storage: Actual outermost partition radius vs. multipole_radius_free
  | (-- VB: in principle, multipole_radius_free should be larger, hence this output)
  | Species        1: Confinement radius =              4.999999999999999 AA, multipole_radius_free =              5.054417573612229 AA.
  | Species        1: outer_partition_radius set to              5.054417573612229 AA .
  | Species        2: Confinement radius =              4.999999999999999 AA, multipole_radius_free =              5.019602836301480 AA.
  | Species        2: outer_partition_radius set to              5.019602836301480 AA .
  | Species        3: Confinement radius =              4.999999999999999 AA, multipole_radius_free =              5.043624274424571 AA.
  | Species        3: outer_partition_radius set to              5.043624274424571 AA .
  | Species        4: Confinement radius =              4.999999999999999 AA, multipole_radius_free =              5.048384829883283 AA.
  | Species        4: outer_partition_radius set to              5.048384829883283 AA .
  | Original list of interatomic distances with          13 x         13 entries is created.
  | Net number of integration points:    69646
  | of which are non-zero points    :    59467
  Renormalizing the initial density to the exact electron count on the 3D integration grid.
  | Initial density: Formal number of electrons (from input files) :      48.0000000000
  | Integrated number of electrons on 3D grid     :      47.9999260523
  | Charge integration error                      :      -0.0000739477
  | Normalization factor for density and gradient :       1.0000015406
  Obtaining max. number of non-zero basis functions in each batch (get_n_compute_maxes).
  | Maximal number of non-zero basis functions:      117 in task     0
  | Maximal number of non-zero basis functions:      118 in task     1
  | Maximal number of non-zero basis functions:      118 in task     2
  | Maximal number of non-zero basis functions:      117 in task     3
  | Maximal number of non-zero basis functions:      118 in task     4
  | Maximal number of non-zero basis functions:      118 in task     5
  | Maximal number of non-zero basis functions:      117 in task     6
  | Maximal number of non-zero basis functions:      118 in task     7
  | Maximal number of non-zero basis functions:      119 in task     8
  | Maximal number of non-zero basis functions:      118 in task     9
  | Maximal number of non-zero basis functions:      118 in task    10
  | Maximal number of non-zero basis functions:      117 in task    11
  | Maximal number of non-zero basis functions:      118 in task    12
  | Maximal number of non-zero basis functions:      118 in task    13
  | Maximal number of non-zero basis functions:      118 in task    14
  | Maximal number of non-zero basis functions:      118 in task    15
  | Maximal number of non-zero basis functions:      118 in task    16
  | Maximal number of non-zero basis functions:      118 in task    17
  | Maximal number of non-zero basis functions:      118 in task    18
  | Maximal number of non-zero basis functions:      119 in task    19
  Selecting the method for density update.
  Loop over occupied states selected for charge density update.
  Allocating        0.050 MB for KS_eigenvector
  Integrating Hamiltonian matrix: batch-based integration.
  Time summed over all CPUs for integration: real work        0.519 s, elapsed        0.547 s
  Integrating overlap matrix.
  Time summed over all CPUs for integration: real work        0.218 s, elapsed        0.232 s
  Deallocating overlap matrix.

  Updating Kohn-Sham eigenvalues and eigenvectors using ELSI and the ELPA eigensolver.
  ELPA settings:
  | ELPA solver          1
  | Time full => band           :     0.001 s
  | Time band => tridiagonal    :     0.001 s
  | Time solve tridiagonal      :     0.001 s
  Overlap matrix is nonsingular
  | Lowest eigenvalue of overlap  :  0.42E-02
  | Highest eigenvalue of overlap :  0.63E+01
  Finished singularity check of overlap matrix
  | Time :     0.003 s
  Finished Cholesky decomposition
  | Time :     0.001 s
  Finished transformation to standard eigenproblem
  | Time :     0.001 s
  Starting ELPA eigensolver
  | Time full => tridiagonal    :     0.002 s
  | Time solve tridiagonal      :     0.000 s
  | Time ev tridiagonal => full :     0.000 s
  Finished solving standard eigenproblem
  | Time :     0.003 s
  Finished back-transformation of eigenvectors
  | Time :     0.000 s

  Obtaining occupation numbers and chemical potential using ELSI.
  | Chemical potential (Fermi level):    -9.92875106eV
  Writing Kohn-Sham eigenvalues.

  State    Occupation    Eigenvalue [Ha]    Eigenvalue [eV]
      1       2.00000         -19.007498         -517.22033
      2       2.00000         -18.977097         -516.39307
      3       2.00000         -14.247849         -387.70371
      4       2.00000         -10.166861         -276.65437
      5       2.00000         -10.142042         -275.97902
      6       2.00000         -10.131918         -275.70352
      7       2.00000          -1.181372          -32.14678
      8       2.00000          -1.101446          -29.97188
      9       2.00000          -0.994490          -27.06145
     10       2.00000          -0.859073          -23.37657
     11       2.00000          -0.756683          -20.59038
     12       2.00000          -0.680539          -18.51842
     13       2.00000          -0.637395          -17.34440
     14       2.00000          -0.608434          -16.55634
     15       2.00000          -0.586591          -15.96195
     16       2.00000          -0.557366          -15.16669
     17       2.00000          -0.553933          -15.07329
     18       2.00000          -0.526962          -14.33937
     19       2.00000          -0.524222          -14.26482
     20       2.00000          -0.496227          -13.50303
     21       2.00000          -0.469715          -12.78159
     22       2.00000          -0.428512          -11.66041
     23       2.00000          -0.419574          -11.41720
     24       2.00000          -0.387590          -10.54687
     25       0.00000          -0.147248           -4.00682
     26       0.00000          -0.064551           -1.75653
     27       0.00000          -0.034921           -0.95025
     28       0.00000          -0.010387           -0.28263
     29       0.00000          -0.004871           -0.13253
     30       0.00000           0.005767            0.15694
     31       0.00000           0.016192            0.44060
     32       0.00000           0.029527            0.80347
     33       0.00000           0.057233            1.55739
     34       0.00000           0.087784            2.38872
     35       0.00000           0.095398            2.59592
     36       0.00000           0.123052            3.34842
     37       0.00000           0.172134            4.68400
     38       0.00000           0.197465            5.37330
     39       0.00000           0.209364            5.69708
     40       0.00000           0.226410            6.16094
     41       0.00000           0.241815            6.58011
     42       0.00000           0.265150            7.21511
     43       0.00000           0.292566            7.96113
     44       0.00000           0.304165            8.27675
     45       0.00000           0.320463            8.72025
     46       0.00000           0.355344            9.66939
     47       0.00000           0.381082           10.36977
     48       0.00000           0.393989           10.72098
     49       0.00000           0.434043           11.81092
     50       0.00000           0.465298           12.66139
     51       0.00000           0.520150           14.15400
     52       0.00000           0.544209           14.80869
     53       0.00000           0.551975           15.02002

  Highest occupied state (VBM) at    -10.54687333 eV
  | Occupation number:      2.00000000

  Lowest unoccupied state (CBM) at    -4.00681544 eV
  | Occupation number:      0.00000000

  Overall HOMO-LUMO gap:      6.54005790 eV.
  Calculating total energy contributions from superposition of free atom densities.

  Total energy components:
  | Sum of eigenvalues            :        -188.88678501 Ha       -5139.87093392 eV
  | XC energy correction          :         -41.80380358 Ha       -1137.53937270 eV
  | XC potential correction       :          53.74084615 Ha        1462.36282789 eV
  | Free-atom electrostatic energy:        -146.82171738 Ha       -3995.22220457 eV
  | Hartree energy correction     :           0.00000000 Ha           0.00000000 eV
  | vdW energy correction         :           0.00000000 Ha           0.00000000 eV
  | Entropy correction            :           0.00000000 Ha           0.00000000 eV
  | ---------------------------
  | Total energy                  :        -323.77145982 Ha       -8810.26968329 eV
  | Total energy, T -> 0          :        -323.77145982 Ha       -8810.26968329 eV  <-- do not rely on this value for anything but (periodic) metals
  | Electronic free energy        :        -323.77145982 Ha       -8810.26968329 eV

  Derived energy quantities:
  | Kinetic energy                :         320.51657561 Ha        8721.69977757 eV
  | Electrostatic energy          :        -602.48423185 Ha      -16394.43008817 eV
  | Energy correction for multipole
  | error in Hartree potential    :           0.00000000 Ha           0.00000000 eV
  | Sum of eigenvalues per atom                           :        -395.37468722 eV
  | Total energy (T->0) per atom                          :        -677.71305256 eV  <-- do not rely on this value for anything but (periodic) metals
  | Electronic free energy per atom                       :        -677.71305256 eV
  Initialize hartree_potential_storage
  Max. number of atoms included in rho_multipole:           13

  End scf initialization - timings             :  max(cpu_time)    wall_clock(cpu1)
  | Time for scf. initialization               :        0.096 s           0.097 s
  | Boundary condition initialization          :        0.000 s           0.001 s
  | Integration                                :        0.040 s           0.040 s
  | Solution of K.-S. eqns.                    :        0.009 s           0.009 s
  | Grid partitioning                          :        0.024 s           0.024 s
  | Preloading free-atom quantities on grid    :        0.002 s           0.003 s
  | Free-atom superposition energy             :        0.005 s           0.005 s
  | Total energy evaluation                    :        0.000 s           0.000 s

  Partial memory accounting:
  | Current value for overall tracked memory usage on task 0  :           0.133 MB
  | Peak value for overall tracked memory usage on task 0     :           0.827 MB after allocating wave
  | Largest tracked array allocation on task 0 so far         :           0.175 MB  when allocating H_times_psi
  Note:  These values currently only include a subset of arrays which are explicitly tracked.
  The "true" memory usage will be greater.
------------------------------------------------------------

------------------------------------------------------------
          Begin self-consistency iteration #    1

  Date     :  20200601, Time     :  012145.369
------------------------------------------------------------
  Evaluating new KS density.
  Integration grid: deviation in total charge (<rho> - N_e) =   0.000000E+00
  Pulay mixing of updated and previous charge densities.

  Evaluating partitioned Hartree potential by multipole expansion.
  | Analytical far-field extrapolation by fixed multipoles:
  | Hartree multipole sum: apparent total charge =  -0.175230E-03
  Summing up the Hartree potential.
  Time summed over all CPUs for potential: real work        0.421 s, elapsed        0.440 s
  | RMS charge density error from multipole expansion :   0.590323E-02

  Integrating Hamiltonian matrix: batch-based integration.
  Time summed over all CPUs for integration: real work        0.507 s, elapsed        0.537 s

  Updating Kohn-Sham eigenvalues and eigenvectors using ELSI and the ELPA eigensolver.
  ELPA settings:
  | ELPA solver          1
  Finished transformation to standard eigenproblem
  | Time :     0.000 s
  Starting ELPA eigensolver
  | Time full => tridiagonal    :     0.002 s
  | Time solve tridiagonal      :     0.000 s
  | Time ev tridiagonal => full :     0.000 s
  Finished solving standard eigenproblem
  | Time :     0.003 s
  Finished back-transformation of eigenvectors
  | Time :     0.000 s

  Obtaining occupation numbers and chemical potential using ELSI.
  | Chemical potential (Fermi level):    -4.80637877eV
  Writing Kohn-Sham eigenvalues.

  State    Occupation    Eigenvalue [Ha]    Eigenvalue [eV]
      1       2.00000         -18.900640         -514.31259
      2       2.00000         -18.826674         -512.29988
      3       2.00000         -14.115665         -384.10680
      4       2.00000         -10.109830         -275.10247
      5       2.00000         -10.069265         -273.99864
      6       2.00000         -10.034868         -273.06265
      7       2.00000          -1.127295          -30.67527
      8       2.00000          -1.031772          -28.07595
      9       2.00000          -0.934508          -25.42927
     10       2.00000          -0.797925          -21.71264
     11       2.00000          -0.706276          -19.21875
     12       2.00000          -0.630617          -17.15997
     13       2.00000          -0.590093          -16.05725
     14       2.00000          -0.552038          -15.02173
     15       2.00000          -0.527997          -14.36753
     16       2.00000          -0.502743          -13.68034
     17       2.00000          -0.486248          -13.23148
     18       2.00000          -0.470499          -12.80293
     19       2.00000          -0.465615          -12.67002
     20       2.00000          -0.439559          -11.96101
     21       2.00000          -0.417326          -11.35600
     22       2.00000          -0.360478           -9.80911
     23       2.00000          -0.351128           -9.55469
     24       2.00000          -0.316058           -8.60038
     25       0.00000          -0.106007           -2.88459
     26       0.00000          -0.040978           -1.11506
     27       0.00000           0.006325            0.17210
     28       0.00000           0.015048            0.40947
     29       0.00000           0.025292            0.68824
     30       0.00000           0.036591            0.99568
     31       0.00000           0.047052            1.28035
     32       0.00000           0.062436            1.69897
     33       0.00000           0.095167            2.58964
     34       0.00000           0.126399            3.43950
     35       0.00000           0.132500            3.60552
     36       0.00000           0.153426            4.17493
     37       0.00000           0.202659            5.51463
     38       0.00000           0.223718            6.08768
     39       0.00000           0.241766            6.57879
     40       0.00000           0.256214            6.97194
     41       0.00000           0.274900            7.48041
     42       0.00000           0.296145            8.05851
     43       0.00000           0.328574            8.94095
     44       0.00000           0.342001            9.30632
     45       0.00000           0.359271            9.77627
     46       0.00000           0.395682           10.76706
     47       0.00000           0.419205           11.40716
     48       0.00000           0.427187           11.62435
     49       0.00000           0.472567           12.85921
     50       0.00000           0.503612           13.70397
     51       0.00000           0.554219           15.08108
     52       0.00000           0.572002           15.56496
     53       0.00000           0.584507           15.90526

  Highest occupied state (VBM) at     -8.60038394 eV
  | Occupation number:      2.00000000

  Lowest unoccupied state (CBM) at    -2.88459172 eV
  | Occupation number:      0.00000000

  Overall HOMO-LUMO gap:      5.71579222 eV.

  Total energy components:
  | Sum of eigenvalues            :        -185.53023935 Ha       -5048.53467923 eV
  | XC energy correction          :         -42.12856808 Ha       -1146.37666458 eV
  | XC potential correction       :          54.16319663 Ha        1473.85556915 eV
  | Free-atom electrostatic energy:        -146.82171738 Ha       -3995.22220457 eV
  | Hartree energy correction     :          -3.27946667 Ha         -89.23882845 eV
  | vdW energy correction         :           0.00000000 Ha           0.00000000 eV
  | Entropy correction            :           0.00000000 Ha           0.00000000 eV
  | ---------------------------
  | Total energy                  :        -323.59679485 Ha       -8805.51680767 eV
  | Total energy, T -> 0          :        -323.59679485 Ha       -8805.51680767 eV  <-- do not rely on this value for anything but (periodic) metals
  | Electronic free energy        :        -323.59679485 Ha       -8805.51680767 eV

  Derived energy quantities:
  | Kinetic energy                :         322.28442681 Ha        8769.80545640 eV
  | Electrostatic energy          :        -603.75265358 Ha      -16428.94559950 eV
  | Energy correction for multipole
  | error in Hartree potential    :           0.01179002 Ha           0.32082277 eV
  | Sum of eigenvalues per atom                           :        -388.34882148 eV
  | Total energy (T->0) per atom                          :        -677.34744674 eV  <-- do not rely on this value for anything but (periodic) metals
  | Electronic free energy per atom                       :        -677.34744674 eV

  Self-consistency convergence accuracy:
  | Change of charge density      :  0.5750E+00
  | Change of sum of eigenvalues  :  0.9134E+02 eV
  | Change of total energy        :  0.4753E+01 eV

  End self-consistency iteration #     1       :  max(cpu_time)    wall_clock(cpu1)
  | Time for this iteration                    :        0.079 s           0.079 s
  | Charge density update                      :        0.023 s           0.023 s
  | Density mixing                             :        0.000 s           0.000 s
  | Hartree multipole update                   :        0.001 s           0.002 s
  | Hartree multipole summation                :        0.022 s           0.022 s
  | Integration                                :        0.027 s           0.028 s
  | Solution of K.-S. eqns.                    :        0.004 s           0.003 s
  | Total energy evaluation                    :        0.000 s           0.000 s

  Partial memory accounting:
  | Current value for overall tracked memory usage on task 0  :           0.133 MB
  | Peak value for overall tracked memory usage on task 0     :           0.833 MB after allocating gradient_basis_wave
  | Largest tracked array allocation on task 0 so far         :           0.525 MB  when allocating gradient_basis_wave
  Note:  These values currently only include a subset of arrays which are explicitly tracked.
  The "true" memory usage will be greater.
------------------------------------------------------------

------------------------------------------------------------
          Begin self-consistency iteration #    2

  Date     :  20200601, Time     :  012145.453
------------------------------------------------------------
  Evaluating new KS density.
  Integration grid: deviation in total charge (<rho> - N_e) =   7.105427E-15
  Pulay mixing of updated and previous charge densities.

  Evaluating partitioned Hartree potential by multipole expansion.
  | Analytical far-field extrapolation by fixed multipoles:
  | Hartree multipole sum: apparent total charge =  -0.306599E-03
  Summing up the Hartree potential.
  Time summed over all CPUs for potential: real work        0.420 s, elapsed        0.439 s
  | RMS charge density error from multipole expansion :   0.141232E-01

  Integrating Hamiltonian matrix: batch-based integration.
  Time summed over all CPUs for integration: real work        0.508 s, elapsed        0.541 s

  Updating Kohn-Sham eigenvalues and eigenvectors using ELSI and the ELPA eigensolver.
  ELPA settings:
  | ELPA solver          1
  Finished transformation to standard eigenproblem
  | Time :     0.000 s
  Starting ELPA eigensolver
  | Time full => tridiagonal    :     0.002 s
  | Time solve tridiagonal      :     0.000 s
  | Time ev tridiagonal => full :     0.000 s
  Finished solving standard eigenproblem
  | Time :     0.003 s
  Finished back-transformation of eigenvectors
  | Time :     0.000 s

  Obtaining occupation numbers and chemical potential using ELSI.
  | Chemical potential (Fermi level):    -3.59863445eV
  Highest occupied state (VBM) at     -6.63258540 eV
  | Occupation number:      2.00000000

  Lowest unoccupied state (CBM) at    -1.47383596 eV
  | Occupation number:      0.00000000

  Overall HOMO-LUMO gap:      5.15874944 eV.

  Checking to see if s.c.f. parameters should be adjusted.

  Total energy components:
  | Sum of eigenvalues            :        -181.94844156 Ha       -4951.06900244 eV
  | XC energy correction          :         -42.48790688 Ha       -1156.15477069 eV
  | XC potential correction       :          54.62896649 Ha        1486.52981190 eV
  | Free-atom electrostatic energy:        -146.82171738 Ha       -3995.22220457 eV
  | Hartree energy correction     :          -6.89103546 Ha        -187.51461545 eV
  | vdW energy correction         :           0.00000000 Ha           0.00000000 eV
  | Entropy correction            :           0.00000000 Ha           0.00000000 eV
  | ---------------------------
  | Total energy                  :        -323.52013479 Ha       -8803.43078125 eV
  | Total energy, T -> 0          :        -323.52013479 Ha       -8803.43078125 eV  <-- do not rely on this value for anything but (periodic) metals
  | Electronic free energy        :        -323.52013479 Ha       -8803.43078125 eV

  Derived energy quantities:
  | Kinetic energy                :         323.61065437 Ha        8805.89394424 eV
  | Electrostatic energy          :        -604.64288228 Ha      -16453.16995479 eV
  | Energy correction for multipole
  | error in Hartree potential    :           0.02599123 Ha           0.70725749 eV
  | Sum of eigenvalues per atom                           :        -380.85146173 eV
  | Total energy (T->0) per atom                          :        -677.18698317 eV  <-- do not rely on this value for anything but (periodic) metals
  | Electronic free energy per atom                       :        -677.18698317 eV

  Self-consistency convergence accuracy:
  | Change of charge density      :  0.3590E+00
  | Change of sum of eigenvalues  :  0.9747E+02 eV
  | Change of total energy        :  0.2086E+01 eV

  End self-consistency iteration #     2       :  max(cpu_time)    wall_clock(cpu1)
  | Time for this iteration                    :        0.081 s           0.079 s
  | Charge density update                      :        0.025 s           0.024 s
  | Density mixing                             :        0.001 s           0.000 s
  | Hartree multipole update                   :        0.001 s           0.002 s
  | Hartree multipole summation                :        0.022 s           0.022 s
  | Integration                                :        0.027 s           0.027 s
  | Solution of K.-S. eqns.                    :        0.004 s           0.004 s
  | Total energy evaluation                    :        0.000 s           0.000 s

  Partial memory accounting:
  | Current value for overall tracked memory usage on task 0  :           0.134 MB
  | Peak value for overall tracked memory usage on task 0     :           0.833 MB after allocating gradient_basis_wave
  | Largest tracked array allocation on task 0 so far         :           0.525 MB  when allocating gradient_basis_wave
  Note:  These values currently only include a subset of arrays which are explicitly tracked.
  The "true" memory usage will be greater.
------------------------------------------------------------

------------------------------------------------------------
          Begin self-consistency iteration #    3

  Date     :  20200601, Time     :  012145.541
------------------------------------------------------------
  Evaluating new KS density.
  Integration grid: deviation in total charge (<rho> - N_e) =   0.000000E+00
  Pulay mixing of updated and previous charge densities.

  Evaluating partitioned Hartree potential by multipole expansion.
  | Analytical far-field extrapolation by fixed multipoles:
  | Hartree multipole sum: apparent total charge =  -0.402663E-03
  Summing up the Hartree potential.
  Time summed over all CPUs for potential: real work        0.420 s, elapsed        0.439 s
  | RMS charge density error from multipole expansion :   0.223713E-01

  Integrating Hamiltonian matrix: batch-based integration.
  Time summed over all CPUs for integration: real work        0.508 s, elapsed        0.539 s

  Updating Kohn-Sham eigenvalues and eigenvectors using ELSI and the ELPA eigensolver.
  ELPA settings:
  | ELPA solver          1
  Finished transformation to standard eigenproblem
  | Time :     0.000 s
  Starting ELPA eigensolver
  | Time full => tridiagonal    :     0.002 s
  | Time solve tridiagonal      :     0.000 s
  | Time ev tridiagonal => full :     0.000 s
  Finished solving standard eigenproblem
  | Time :     0.003 s
  Finished back-transformation of eigenvectors
  | Time :     0.000 s

  Obtaining occupation numbers and chemical potential using ELSI.
  | Chemical potential (Fermi level):    -2.92084592eV
  Highest occupied state (VBM) at     -5.98037880 eV
  | Occupation number:      2.00000000

  Lowest unoccupied state (CBM) at    -0.73102218 eV
  | Occupation number:      0.00000000

  Overall HOMO-LUMO gap:      5.24935663 eV.

  Total energy components:
  | Sum of eigenvalues            :        -180.59064149 Ha       -4914.12138276 eV
  | XC energy correction          :         -42.64203711 Ha       -1160.34886763 eV
  | XC potential correction       :          54.82557487 Ha        1491.87979830 eV
  | Free-atom electrostatic energy:        -146.82171738 Ha       -3995.22220457 eV
  | Hartree energy correction     :          -8.27918203 Ha        -225.28800556 eV
  | vdW energy correction         :           0.00000000 Ha           0.00000000 eV
  | Entropy correction            :           0.00000000 Ha           0.00000000 eV
  | ---------------------------
  | Total energy                  :        -323.50800314 Ha       -8803.10066223 eV
  | Total energy, T -> 0          :        -323.50800314 Ha       -8803.10066223 eV  <-- do not rely on this value for anything but (periodic) metals
  | Electronic free energy        :        -323.50800314 Ha       -8803.10066223 eV

  Derived energy quantities:
  | Kinetic energy                :         323.21485056 Ha        8795.12357463 eV
  | Electrostatic energy          :        -604.08081659 Ha      -16437.87536922 eV
  | Energy correction for multipole
  | error in Hartree potential    :           0.03658656 Ha           0.99557100 eV
  | Sum of eigenvalues per atom                           :        -378.00933714 eV
  | Total energy (T->0) per atom                          :        -677.16158940 eV  <-- do not rely on this value for anything but (periodic) metals
  | Electronic free energy per atom                       :        -677.16158940 eV

  Self-consistency convergence accuracy:
  | Change of charge density      :  0.1991E+00
  | Change of sum of eigenvalues  :  0.3695E+02 eV
  | Change of total energy        :  0.3301E+00 eV

  End self-consistency iteration #     3       :  max(cpu_time)    wall_clock(cpu1)
  | Time for this iteration                    :        0.082 s           0.077 s
  | Charge density update                      :        0.026 s           0.021 s
  | Density mixing                             :        0.001 s           0.001 s
  | Hartree multipole update                   :        0.001 s           0.001 s
  | Hartree multipole summation                :        0.022 s           0.022 s
  | Integration                                :        0.027 s           0.028 s
  | Solution of K.-S. eqns.                    :        0.004 s           0.003 s
  | Total energy evaluation                    :        0.000 s           0.000 s

  Partial memory accounting:
  | Current value for overall tracked memory usage on task 0  :           0.134 MB
  | Peak value for overall tracked memory usage on task 0     :           0.834 MB after allocating gradient_basis_wave
  | Largest tracked array allocation on task 0 so far         :           0.525 MB  when allocating gradient_basis_wave
  Note:  These values currently only include a subset of arrays which are explicitly tracked.
  The "true" memory usage will be greater.
------------------------------------------------------------

------------------------------------------------------------
          Begin self-consistency iteration #    4

  Date     :  20200601, Time     :  012145.626
------------------------------------------------------------
  Evaluating new KS density.
  Integration grid: deviation in total charge (<rho> - N_e) =   7.105427E-15
  Pulay mixing of updated and previous charge densities.

  Evaluating partitioned Hartree potential by multipole expansion.
  | Analytical far-field extrapolation by fixed multipoles:
  | Hartree multipole sum: apparent total charge =  -0.434316E-03
  Summing up the Hartree potential.
  Time summed over all CPUs for potential: real work        0.412 s, elapsed        0.430 s
  | RMS charge density error from multipole expansion :   0.258787E-01

  Integrating Hamiltonian matrix: batch-based integration.
  Time summed over all CPUs for integration: real work        0.507 s, elapsed        0.537 s

  Updating Kohn-Sham eigenvalues and eigenvectors using ELSI and the ELPA eigensolver.
  ELPA settings:
  | ELPA solver          1
  Finished transformation to standard eigenproblem
  | Time :     0.000 s
  Starting ELPA eigensolver
  | Time full => tridiagonal    :     0.002 s
  | Time solve tridiagonal      :     0.000 s
  | Time ev tridiagonal => full :     0.000 s
  Finished solving standard eigenproblem
  | Time :     0.003 s
  Finished back-transformation of eigenvectors
  | Time :     0.000 s

  Obtaining occupation numbers and chemical potential using ELSI.
  | Chemical potential (Fermi level):    -2.86357681eV
  Highest occupied state (VBM) at     -5.68769690 eV
  | Occupation number:      2.00000000

  Lowest unoccupied state (CBM) at    -0.66294810 eV
  | Occupation number:      0.00000000

  Overall HOMO-LUMO gap:      5.02474880 eV.

  Total energy components:
  | Sum of eigenvalues            :        -180.50753287 Ha       -4911.85988196 eV
  | XC energy correction          :         -42.67513334 Ha       -1161.24946178 eV
  | XC potential correction       :          54.86694148 Ha        1493.00544098 eV
  | Free-atom electrostatic energy:        -146.82171738 Ha       -3995.22220457 eV
  | Hartree energy correction     :          -8.36963054 Ha        -227.74923484 eV
  | vdW energy correction         :           0.00000000 Ha           0.00000000 eV
  | Entropy correction            :           0.00000000 Ha           0.00000000 eV
  | ---------------------------
  | Total energy                  :        -323.50707264 Ha       -8803.07534218 eV
  | Total energy, T -> 0          :        -323.50707264 Ha       -8803.07534218 eV  <-- do not rely on this value for anything but (periodic) metals
  | Electronic free energy        :        -323.50707264 Ha       -8803.07534218 eV

  Derived energy quantities:
  | Kinetic energy                :         322.79580323 Ha        8783.72071674 eV
  | Electrostatic energy          :        -603.62774254 Ha      -16425.54659713 eV
  | Energy correction for multipole
  | error in Hartree potential    :           0.04044573 Ha           1.10058441 eV
  | Sum of eigenvalues per atom                           :        -377.83537554 eV
  | Total energy (T->0) per atom                          :        -677.15964171 eV  <-- do not rely on this value for anything but (periodic) metals
  | Electronic free energy per atom                       :        -677.15964171 eV

  Self-consistency convergence accuracy:
  | Change of charge density      :  0.6451E-01
  | Change of sum of eigenvalues  :  0.2262E+01 eV
  | Change of total energy        :  0.2532E-01 eV

  End self-consistency iteration #     4       :  max(cpu_time)    wall_clock(cpu1)
  | Time for this iteration                    :        0.079 s           0.074 s
  | Charge density update                      :        0.024 s           0.019 s
  | Density mixing                             :        0.001 s           0.001 s
  | Hartree multipole update                   :        0.001 s           0.001 s
  | Hartree multipole summation                :        0.022 s           0.022 s
  | Integration                                :        0.027 s           0.027 s
  | Solution of K.-S. eqns.                    :        0.004 s           0.004 s
  | Total energy evaluation                    :        0.000 s           0.000 s

  Partial memory accounting:
  | Current value for overall tracked memory usage on task 0  :           0.134 MB
  | Peak value for overall tracked memory usage on task 0     :           0.834 MB after allocating gradient_basis_wave
  | Largest tracked array allocation on task 0 so far         :           0.525 MB  when allocating gradient_basis_wave
  Note:  These values currently only include a subset of arrays which are explicitly tracked.
  The "true" memory usage will be greater.
------------------------------------------------------------

------------------------------------------------------------
          Begin self-consistency iteration #    5

  Date     :  20200601, Time     :  012145.709
------------------------------------------------------------
  Evaluating new KS density.
  Integration grid: deviation in total charge (<rho> - N_e) =   0.000000E+00
  Pulay mixing of updated and previous charge densities.

  Evaluating partitioned Hartree potential by multipole expansion.
  | Analytical far-field extrapolation by fixed multipoles:
  | Hartree multipole sum: apparent total charge =  -0.430012E-03
  Summing up the Hartree potential.
  Time summed over all CPUs for potential: real work        0.411 s, elapsed        0.431 s
  | RMS charge density error from multipole expansion :   0.256126E-01

  Integrating Hamiltonian matrix: batch-based integration.
  Time summed over all CPUs for integration: real work        0.508 s, elapsed        0.537 s

  Updating Kohn-Sham eigenvalues and eigenvectors using ELSI and the ELPA eigensolver.
  ELPA settings:
  | ELPA solver          1
  Finished transformation to standard eigenproblem
  | Time :     0.000 s
  Starting ELPA eigensolver
  | Time full => tridiagonal    :     0.002 s
  | Time solve tridiagonal      :     0.000 s
  | Time ev tridiagonal => full :     0.000 s
  Finished solving standard eigenproblem
  | Time :     0.003 s
  Finished back-transformation of eigenvectors
  | Time :     0.000 s

  Obtaining occupation numbers and chemical potential using ELSI.
  | Chemical potential (Fermi level):    -2.89881152eV
  Highest occupied state (VBM) at     -5.80755834 eV
  | Occupation number:      2.00000000

  Lowest unoccupied state (CBM) at    -0.71724104 eV
  | Occupation number:      0.00000000

  Overall HOMO-LUMO gap:      5.09031730 eV.

  Total energy components:
  | Sum of eigenvalues            :        -180.63176778 Ha       -4915.24048597 eV
  | XC energy correction          :         -42.65854272 Ha       -1160.79800807 eV
  | XC potential correction       :          54.84545855 Ha        1492.42086066 eV
  | Free-atom electrostatic energy:        -146.82171738 Ha       -3995.22220457 eV
  | Hartree energy correction     :          -8.24019964 Ha        -224.22724072 eV
  | vdW energy correction         :           0.00000000 Ha           0.00000000 eV
  | Entropy correction            :           0.00000000 Ha           0.00000000 eV
  | ---------------------------
  | Total energy                  :        -323.50676897 Ha       -8803.06707867 eV
  | Total energy, T -> 0          :        -323.50676897 Ha       -8803.06707867 eV  <-- do not rely on this value for anything but (periodic) metals
  | Electronic free energy        :        -323.50676897 Ha       -8803.06707867 eV

  Derived energy quantities:
  | Kinetic energy                :         322.73479092 Ha        8782.06048731 eV
  | Electrostatic energy          :        -603.58301717 Ha      -16424.32955792 eV
  | Energy correction for multipole
  | error in Hartree potential    :           0.03989183 Ha           1.08551184 eV
  | Sum of eigenvalues per atom                           :        -378.09542200 eV
  | Total energy (T->0) per atom                          :        -677.15900605 eV  <-- do not rely on this value for anything but (periodic) metals
  | Electronic free energy per atom                       :        -677.15900605 eV

  Self-consistency convergence accuracy:
  | Change of charge density      :  0.2278E-01
  | Change of sum of eigenvalues  : -0.3381E+01 eV
  | Change of total energy        :  0.8264E-02 eV

  End self-consistency iteration #     5       :  max(cpu_time)    wall_clock(cpu1)
  | Time for this iteration                    :        0.081 s           0.075 s
  | Charge density update                      :        0.026 s           0.020 s
  | Density mixing                             :        0.001 s           0.001 s
  | Hartree multipole update                   :        0.001 s           0.001 s
  | Hartree multipole summation                :        0.022 s           0.022 s
  | Integration                                :        0.027 s           0.027 s
  | Solution of K.-S. eqns.                    :        0.004 s           0.004 s
  | Total energy evaluation                    :        0.000 s           0.000 s

  Partial memory accounting:
  | Current value for overall tracked memory usage on task 0  :           0.134 MB
  | Peak value for overall tracked memory usage on task 0     :           0.834 MB after allocating gradient_basis_wave
  | Largest tracked array allocation on task 0 so far         :           0.525 MB  when allocating gradient_basis_wave
  Note:  These values currently only include a subset of arrays which are explicitly tracked.
  The "true" memory usage will be greater.
------------------------------------------------------------

------------------------------------------------------------
          Begin self-consistency iteration #    6

  Date     :  20200601, Time     :  012145.793
------------------------------------------------------------
  Evaluating new KS density.
  Integration grid: deviation in total charge (<rho> - N_e) =  -7.105427E-15
  Pulay mixing of updated and previous charge densities.

[...]
  |   Hirshfeld dipole moment :      0.06547098
  |   Hirshfeld second moments:     -0.00220069      -0.02451916      -0.01431109
  |                                 -0.02451916      -0.03184742       0.00341193
  |                                 -0.01431109       0.00341193      -0.02750337
  ----------------------------------------------------------------------
  | Atom    12: O
  |   Hirshfeld charge        :     -0.15295211
  |   Free atom volume        :     23.61338643
  |   Hirshfeld volume        :     21.27685014
  |   Hirshfeld dipole vector :      0.01748361       0.03744486      -0.01160778
  |   Hirshfeld dipole moment :      0.04292476
  |   Hirshfeld second moments:      0.04973928      -0.01156270       0.01088057
  |                                 -0.01156270       0.02497568       0.01153872
  |                                  0.01088057       0.01153872       0.07254063
  ----------------------------------------------------------------------
  | Atom    13: H
  |   Hirshfeld charge        :      0.11521998
  |   Free atom volume        :      9.95071624
  |   Hirshfeld volume        :      7.27816262
  |   Hirshfeld dipole vector :     -0.01998138       0.00019232      -0.05980695
  |   Hirshfeld dipole moment :      0.06305683
  |   Hirshfeld second moments:      0.10092578      -0.01300162       0.01148780
  |                                 -0.01300162       0.06653764       0.03319154
  |                                  0.01148780       0.03319154       0.06654437
  ----------------------------------------------------------------------


  Total energy components:
  | Sum of eigenvalues            :        -180.68673111 Ha       -4916.73611424 eV
  | XC energy correction          :         -42.64779671 Ha       -1160.50559434 eV
  | XC potential correction       :          54.83159369 Ha        1492.04357870 eV
  | Free-atom electrostatic energy:        -146.82171738 Ha       -3995.22220457 eV
  | Hartree energy correction     :          -8.18201394 Ha        -222.64392739 eV
  | vdW energy correction         :          -0.00356725 Ha          -0.09706992 eV
  | Entropy correction            :           0.00000000 Ha           0.00000000 eV
  | ---------------------------
  | Total energy                  :        -323.51023270 Ha       -8803.16133176 eV
  | Total energy, T -> 0          :        -323.51023270 Ha       -8803.16133176 eV  <-- do not rely on this value for anything but (periodic) metals
  | Electronic free energy        :        -323.51023270 Ha       -8803.16133176 eV

  Derived energy quantities:
  | Kinetic energy                :         322.59798532 Ha        8778.33781745 eV
  | Electrostatic energy          :        -603.45685406 Ha      -16420.89648495 eV
  | Energy correction for multipole
  | error in Hartree potential    :           0.03990368 Ha           1.08583443 eV
  | Sum of eigenvalues per atom                           :        -378.21047033 eV
  | Total energy (T->0) per atom                          :        -677.16625629 eV  <-- do not rely on this value for anything but (periodic) metals
  | Electronic free energy per atom                       :        -677.16625629 eV

  atomic forces [eV/Ang]:
  -----------------------
  atom #    1
   Hellmann-Feynman              :  0.743025E+00  0.286106E+00  0.155569E+01
   Ionic forces                  :  0.000000E+00  0.000000E+00  0.000000E+00
   Multipole                     : -0.381884E-01  0.393455E+00 -0.206305E+00
   Pulay + GGA                   : -0.915523E+00  0.486698E-01 -0.159533E+01
   Van der Waals                 :  0.206879E-02  0.701064E-03 -0.112346E-02
   ----------------------------------------------------------------
   Total forces(   1)            : -0.208617E+00  0.728932E+00 -0.247070E+00
  atom #    2
   Hellmann-Feynman              :  0.189396E+00 -0.338251E-01 -0.212178E+00
   Ionic forces                  :  0.000000E+00  0.000000E+00  0.000000E+00
   Multipole                     :  0.193381E+00  0.219063E-01  0.120961E-01
   Pulay + GGA                   : -0.138218E+00 -0.355012E-02  0.645274E-01
   Van der Waals                 :  0.164641E-02 -0.884166E-03 -0.460375E-02
   ----------------------------------------------------------------
   Total forces(   2)            :  0.246206E+00 -0.163532E-01 -0.140158E+00
  atom #    3
   Hellmann-Feynman              : -0.214363E+01 -0.106254E+02 -0.118480E+01
   Ionic forces                  :  0.000000E+00  0.000000E+00  0.000000E+00
   Multipole                     : -0.415572E-01  0.225422E-01 -0.841136E+00
   Pulay + GGA                   :  0.228022E+01  0.971446E+01  0.264636E+01
   Van der Waals                 :  0.249053E-02 -0.143473E-03 -0.280429E-02
   ----------------------------------------------------------------
   Total forces(   3)            :  0.975268E-01 -0.888553E+00  0.617618E+00
  atom #    4
   Hellmann-Feynman              :  0.107996E-01  0.274948E+00 -0.162863E+00
   Ionic forces                  :  0.000000E+00  0.000000E+00  0.000000E+00
   Multipole                     : -0.877884E-01  0.431235E-01 -0.674715E-01
   Pulay + GGA                   :  0.161361E+00 -0.175027E+00  0.642856E-02
   Van der Waals                 : -0.926938E-03 -0.571450E-03 -0.509822E-02
   ----------------------------------------------------------------
   Total forces(   4)            :  0.834453E-01  0.142473E+00 -0.229004E+00
  atom #    5
   Hellmann-Feynman              : -0.624140E-01  0.202753E+00 -0.231175E+00
   Ionic forces                  :  0.000000E+00  0.000000E+00  0.000000E+00
   Multipole                     :  0.400532E-01  0.159496E-01 -0.117010E+00
   Pulay + GGA                   : -0.145550E+00 -0.170951E+00  0.112821E+00
   Van der Waals                 : -0.142131E-02 -0.290087E-02 -0.109764E-03
   ----------------------------------------------------------------
   Total forces(   5)            : -0.169332E+00  0.448510E-01 -0.235474E+00
  atom #    6
   Hellmann-Feynman              : -0.755145E-02 -0.363378E+00  0.328981E+00
   Ionic forces                  :  0.000000E+00  0.000000E+00  0.000000E+00
   Multipole                     : -0.107792E+00  0.589935E+00  0.220413E+00
   Pulay + GGA                   :  0.321980E+00 -0.521965E+00 -0.165055E+00
   Van der Waals                 : -0.359858E-02  0.626396E-02  0.245993E-02
   ----------------------------------------------------------------
   Total forces(   6)            :  0.203038E+00 -0.289144E+00  0.386799E+00
  atom #    7
   Hellmann-Feynman              :  0.389842E-02  0.458169E-01  0.209169E+00
   Ionic forces                  :  0.000000E+00  0.000000E+00  0.000000E+00
   Multipole                     :  0.462316E-01  0.994759E-01  0.103885E+00
   Pulay + GGA                   : -0.950775E-01 -0.709512E-01 -0.769755E-01
   Van der Waals                 : -0.202608E-02  0.122928E-02 -0.109925E-02
   ----------------------------------------------------------------
   Total forces(   7)            : -0.469736E-01  0.755709E-01  0.234979E+00
  atom #    8
   Hellmann-Feynman              :  0.126633E+00  0.303640E-01 -0.171956E+00
   Ionic forces                  :  0.000000E+00  0.000000E+00  0.000000E+00
   Multipole                     : -0.364190E-01  0.145313E+00 -0.191479E-01
   Pulay + GGA                   :  0.155585E-01 -0.504779E-01  0.810305E-01
   Van der Waals                 : -0.169973E-03  0.128834E-02  0.485939E-02
   ----------------------------------------------------------------
   Total forces(   8)            :  0.105602E+00  0.126488E+00 -0.105214E+00
  atom #    9
   Hellmann-Feynman              : -0.207665E+00  0.446105E-02  0.706428E-01
   Ionic forces                  :  0.000000E+00  0.000000E+00  0.000000E+00
   Multipole                     : -0.108881E+00  0.330250E-01  0.767161E-01
   Pulay + GGA                   :  0.124207E+00  0.187735E-01 -0.156013E-01
   Van der Waals                 :  0.163558E-03 -0.494214E-03 -0.123792E-02
   ----------------------------------------------------------------
   Total forces(   9)            : -0.192176E+00  0.557653E-01  0.130520E+00
  atom #   10
   Hellmann-Feynman              :  0.187696E+01  0.310201E+01  0.160004E+01
   Ionic forces                  :  0.000000E+00  0.000000E+00  0.000000E+00
   Multipole                     :  0.272594E-01 -0.120192E+00  0.219876E+00
   Pulay + GGA                   : -0.120604E+01 -0.245874E+01 -0.184100E+00
   Van der Waals                 :  0.251002E-02 -0.875215E-02 -0.842684E-03
   ----------------------------------------------------------------
   Total forces(  10)            :  0.700688E+00  0.514326E+00  0.163498E+01
  atom #   11
   Hellmann-Feynman              :  0.383465E+01 -0.215529E+01  0.145010E+02
   Ionic forces                  :  0.000000E+00  0.000000E+00  0.000000E+00
   Multipole                     :  0.129516E+00 -0.581634E+00  0.938082E+00
   Pulay + GGA                   : -0.319284E+01  0.351874E+01 -0.142032E+02
   Van der Waals                 :  0.217148E-03 -0.684970E-02  0.881023E-02
   ----------------------------------------------------------------
   Total forces(  11)            :  0.771548E+00  0.774959E+00  0.124464E+01
  atom #   12
   Hellmann-Feynman              : -0.640313E+01 -0.124360E+02  0.136776E+01
   Ionic forces                  :  0.000000E+00  0.000000E+00  0.000000E+00
   Multipole                     : -0.740125E+00 -0.148835E+01 -0.334282E-02
   Pulay + GGA                   :  0.603377E+01  0.127596E+02 -0.290176E+01
   Van der Waals                 :  0.660388E-03  0.966685E-02  0.190314E-02
   ----------------------------------------------------------------
   Total forces(  12)            : -0.110883E+01 -0.115500E+01 -0.153544E+01
  atom #   13
   Hellmann-Feynman              : -0.521465E+00 -0.235419E-01 -0.203788E+01
   Ionic forces                  :  0.000000E+00  0.000000E+00  0.000000E+00
   Multipole                     :  0.966523E-02  0.749149E-01 -0.829220E-01
   Pulay + GGA                   :  0.313057E-01 -0.165733E+00  0.357479E+00
   Van der Waals                 : -0.161396E-02  0.144652E-02 -0.111335E-02
   ----------------------------------------------------------------
   Total forces(  13)            : -0.482108E+00 -0.112913E+00 -0.176444E+01

  Timings for VdW correction (Tkatchenko-Scheffler 2009 or later):
  | CPU time:        0.010 s, Wall clock time:        0.006 s.
  Removing unitary transformations (pure translations, rotations) from forces on atoms.
  Atomic forces before filtering:
  | Net force on center of mass :   0.208398E-04  0.140038E-02 -0.727018E-02 eV/A
  | Net torque on center of mass:   0.102528E-01 -0.351320E-02  0.114019E-02 eV
  Atomic forces after filtering:
  | Net force on center of mass :  -0.178406E-15  0.000000E+00 -0.356812E-15 eV/A
  | Net torque on center of mass:  -0.165215E-15 -0.188817E-15 -0.944085E-16 eV

  Energy and forces in a compact form:
  | Total energy uncorrected      :         -0.880316133175520E+04 eV
  | Total energy corrected        :         -0.880316133175520E+04 eV  <-- do not rely on this value for anything but (periodic) metals
  | Electronic free energy        :         -0.880316133175520E+04 eV
  Total atomic forces (unitary forces cleaned) [eV/Ang]:
  |   1         -0.208624904095993E+00          0.728795242441450E+00         -0.246563182925438E+00
  |   2          0.246198353064708E+00         -0.165418545434810E-01         -0.139800987973125E+00
  |   3          0.973257419240338E-01         -0.889037309136456E+00          0.618190374263067E+00
  |   4          0.832626547471949E-01          0.142015359999875E+00         -0.228456461549931E+00
  |   5         -0.169593667713838E+00          0.441791964739778E-01         -0.235109776447718E+00
  |   6          0.203189884728413E+00         -0.289066990098127E+00          0.387043406561137E+00
  |   7         -0.467020322624296E-01          0.758156074183140E-01          0.235046320595488E+00
  |   8          0.105696262025017E+00          0.126385710208634E+00         -0.105170006424959E+00
  |   9         -0.191967568002274E+00          0.560123024951729E-01          0.130945782081306E+00
  |  10          0.700722155412545E+00          0.514402169949450E+00          0.163587397702043E+01
  |  11          0.771726814716183E+00          0.775323214067588E+00          0.124557200273385E+01
  |  12         -0.110892875336568E+01         -0.115507299591954E+01         -0.153422765582626E+01
  |  13         -0.482304941177878E+00         -0.113209653356854E+00         -0.176334379210785E+01

  ------------------------------------ 
  Start decomposition of the XC Energy 
  ------------------------------------ 
  X and C from original XC functional choice 
  Hartree-Fock Energy :          0.000000000 Ha              0.000000000 eV
  X Energy            :        -41.044497637 Ha          -1116.877606815 eV
  C Energy            :         -1.603299072 Ha            -43.627987525 eV
  Total XC Energy     :        -42.647796709 Ha          -1160.505594340 eV
  ------------------------------------ 
  LDA X and C from self-consistent density 
  X Energy LDA        :        -37.266893613 Ha          -1014.083771217 eV
  C Energy LDA        :         -3.139518894 Ha            -85.430655758 eV
  ------------------------------------ 
  End decomposition of the XC Energy 
  ------------------------------------ 

------------------------------------------------------------

------------------------------------------------------------------------------
  Final output of selected total energy values:

  The following output summarizes some interesting total energy values
  at the end of a run (AFTER all relaxation, molecular dynamics, etc.).

  | Total energy of the DFT / Hartree-Fock s.c.f. calculation      :          -8803.161331755 eV
  | Final zero-broadening corrected energy (caution - metals only) :          -8803.161331755 eV
  | For reference only, the value of 1 Hartree used in FHI-aims is :             27.211384500 eV

  Before relying on these values, please be sure to understand exactly which
  total energy value is referred to by a given number. Different objects may
  all carry the same name 'total energy'. Definitions:

  Total energy of the DFT / Hartree-Fock s.c.f. calculation:
  | Note that this energy does not include ANY quantities calculated after the
  | s.c.f. cycle, in particular not ANY RPA, MP2, etc. many-body perturbation terms.

  Final zero-broadening corrected energy:
  | For metallic systems only, a broadening of the occupation numbers at the Fermi
  | level can be extrapolated back to zero broadening by an electron-gas inspired
  | formula. For all systems that are not real metals, this value can be
  | meaningless and should be avoided.

------------------------------------------------------------------------------
  Methods described in the following list of references were used in this FHI-aims run.
  If you publish the results, please make sure to cite these reference if they apply.
  FHI-aims is an academic code, and for our developers (often, Ph.D. students
  and postdocs), scientific credit in the community is essential.
  Thank you for helping us!

  For any use of FHI-aims, please cite:

    Volker Blum, Ralf Gehrke, Felix Hanke, Paula Havu, Ville Havu,
    Xinguo Ren, Karsten Reuter, and Matthias Scheffler
    'Ab initio molecular simulations with numeric atom-centered orbitals'
    Computer Physics Communications 180, 2175-2196 (2009)
    http://dx.doi.org/10.1016/j.cpc.2009.06.022


  The scalable eigensolver library ELPA was used in your run.
  ELPA is essential especially for large systems on hundreds or thousands of CPUs.
  For ELPA, please cite:

    Andreas Marek, Volker Blum, Rainer Johanni, Ville Havu, Bruno Lang,
    Thomas Auckenthaler, Alexander Heinecke, Hans-Joachim Bungartz, and Hermann Lederer,
    'The ELPA Library - Scalable Parallel Eigenvalue Solutions
    for Electronic Structure Theory and Computational Science'
    The Journal of Physics: Condensed Matter 26, 213201 (2014).
    http://dx.doi.org/10.1088/0953-8984/26/21/213201


  The ELSI infrastructure was used in your run to solve the Kohn-Sham electronic structure.
  Please check out http://elsi-interchange.org to learn more.
  If scalability is important for your project, please acknowledge ELSI by citing:

    V. W-z. Yu, F. Corsetti, A. Garcia, W. P. Huhn, M. Jacquelin, W. Jia,
    B. Lange, L. Lin, J. Lu, W. Mi, A. Seifitokaldani, A. Vazquez-Mayagoitia,
    C. Yang, H. Yang, and V. Blum
    'ELSI: A unified software interface for Kohn-Sham electronic structure solvers'
    Computer Physics Communications 222, 267-285 (2018).
    http://dx.doi.org/10.1016/j.cpc.2017.09.007


  For the real-space grid partitioning and parallelization used in this calculation, please cite:

    Ville Havu, Volker Blum, Paula Havu, and Matthias Scheffler,
    'Efficient O(N) integration for all-electron electronic structure calculation'
    'using numerically tabulated basis functions'
    Journal of Computational Physics 228, 8367-8379 (2009).
    http://dx.doi.org/10.1016/j.jcp.2009.08.008

  Of course, there are many other important community references, e.g., those cited in the
  above references. Our list is limited to references that describe implementations in the
  FHI-aims code. The reason is purely practical (length of this list) - please credit others as well.

------------------------------------------------------------
          Leaving FHI-aims.
          Date     :  20200601, Time     :  012146.873

          Computational steps:
          | Number of self-consistency cycles          :           16
          | Number of SCF (re)initializations          :            1

          Detailed time accounting                     :  max(cpu_time)    wall_clock(cpu1)
          | Total time                                 :        1.734 s           1.802 s
          | Preparation time                           :        0.165 s           0.165 s
          | Boundary condition initalization           :        0.000 s           0.001 s
          | Grid partitioning                          :        0.024 s           0.024 s
          | Preloading free-atom quantities on grid    :        0.002 s           0.003 s
          | Free-atom superposition energy             :        0.005 s           0.005 s
          | Total time for integrations                :        0.478 s           0.481 s
          | Total time for solution of K.-S. equations :        0.066 s           0.063 s
          | Total time for density & force components  :        0.458 s           0.377 s
          | Total time for mixing                      :        0.019 s           0.021 s
          | Total time for Hartree multipole update    :        0.020 s           0.018 s
          | Total time for Hartree multipole sum       :        0.433 s           0.433 s
          | Total time for total energy evaluation     :        0.003 s           0.001 s
          | Total time for vdW correction              :        0.010 s           0.006 s

          Partial memory accounting:
          | Residual value for overall tracked memory usage across tasks :           0.000 MB (should be 0.000 MB)
          | Peak values for overall tracked memory usage (after allocating hessian_basis_wave):
          |   Minimum:        2.050 MB (on task 12)
          |   Maximum:        2.085 MB (on task  9)
          |   Average:        2.068 MB
          | Largest tracked array allocation (hessian_basis_wave):
          |   Minimum:        1.050 MB (on task  1)
          |   Maximum:        1.068 MB (on task  9)
          |   Average:        1.058 MB
          Note:  These values currently only include a subset of arrays which are explicitly tracked.
          The "true" memory usage will be greater.

          Have a nice day.
------------------------------------------------------------
