  MPI-parallelism will be employed.
------------------------------------------------------------
          Invoking FHI-aims ...
          Version 171221_1
          Compiled on 2019/09/09 at 14:39:39 on host puhti-login2.bullx.

          When using FHI-aims, please cite the following reference:

          Volker Blum, Ralf Gehrke, Felix Hanke, Paula Havu,
          Ville Havu, Xinguo Ren, Karsten Reuter, and Matthias Scheffler,
          'Ab Initio Molecular Simulations with Numeric Atom-Centered Orbitals',
          Computer Physics Communications 180, 2175-2196 (2009)

          For any questions about FHI-aims, please visit the aimsclub website
          with its forums and wiki. Contributions to both the forums and the
          wiki are warmly encouraged - they are for you, and everyone is welcome there.

------------------------------------------------------------



  Date     :  20200604, Time     :  103235.516
  Time zero on CPU 1             :   0.306240000000000E-01  s.
  Internal wall clock time zero  :           360498755.516  s.

  FHI-aims created a unique identifier for this run for later identification
  aims_uuid : 77C80D85-B344-4A38-A73A-12A6135D91D9

  Using       20 parallel tasks.
  Task        0 on host r18c06.bullx reporting.
  Task        1 on host r18c06.bullx reporting.
  Task        2 on host r18c06.bullx reporting.
  Task        3 on host r18c06.bullx reporting.
  Task        4 on host r18c06.bullx reporting.
  Task        5 on host r18c06.bullx reporting.
  Task        6 on host r18c06.bullx reporting.
  Task        7 on host r18c06.bullx reporting.
  Task        8 on host r18c06.bullx reporting.
  Task        9 on host r18c06.bullx reporting.
  Task       10 on host r18c06.bullx reporting.
  Task       11 on host r18c06.bullx reporting.
  Task       12 on host r18c06.bullx reporting.
  Task       13 on host r18c06.bullx reporting.
  Task       14 on host r18c06.bullx reporting.
  Task       15 on host r18c06.bullx reporting.
  Task       16 on host r18c06.bullx reporting.
  Task       17 on host r18c06.bullx reporting.
  Task       18 on host r18c06.bullx reporting.
  Task       19 on host r18c06.bullx reporting.

  Performing system and environment tests:
  | Environment variable OMP_NUM_THREADS correctly set to 1.
  | Stacksize not measured: no C compiler
  | Checking for scalapack...
  | Testing pdtran()...
  | All pdtran() tests passed.

  Obtaining array dimensions for all initial allocations:
  
  -----------------------------------------------------------------------
  Parsing control.in (first pass over file, find array dimensions only).
  The contents of control.in will be repeated verbatim below
  unless switched off by setting 'verbatim_writeout .false.' .
  in the first line of control.in .
  -----------------------------------------------------------------------
  
  #########################################################################################
  #
  #  Volker Blum, FHI 2009 : Test run input file control.in for simple H2O
  #
  #########################################################################################
  #
  #  Physical model
  #
    xc                 pbe
    vdw_correction_hirshfeld
    spin               none
    relativistic       none
    charge             0.
  #
  #  SCF convergence
  #
    occupation_type    gaussian 0.01
    mixer              pulay
      n_max_pulay        10
      charge_mix_param   0.2
    sc_accuracy_rho    1E-5
    sc_accuracy_eev    1E-3
    sc_accuracy_etot   1E-6
    sc_accuracy_forces 1E-4
    sc_iter_limit      100
  #
  #  Relaxation
  #
  #  relax_geometry   bfgs 1.e-3
  #
  ################################################################################
  #
  #  FHI-aims code project
  #  VB, Fritz-Haber Institut, 2009
  #
  #  Suggested "light" defaults for H atom (to be pasted into control.in file)
  #  Be sure to double-check any results obtained with these settings for post-processing,
  #  e.g., with the "tight" defaults and larger basis sets.
  #
  ################################################################################
    species        H
  #     global species definitions
      nucleus             1
      mass                1.00794
  #
      l_hartree           4
  #
      cut_pot             3.5  1.5  1.0
      basis_dep_cutoff    1e-4
  #
      radial_base         24 5.0
      radial_multiplier   1
      angular_grids       specified
        division   0.2421   50
        division   0.3822  110
        division   0.4799  194
        division   0.5341  302
  #      division   0.5626  434
  #      division   0.5922  590
  #      division   0.6542  770
  #      division   0.6868 1202
  #      outer_grid  770
        outer_grid  302
  ################################################################################
  #
  #  Definition of "minimal" basis
  #
  ################################################################################
  #     valence basis states
      valence      1  s   1.
  #     ion occupancy
      ion_occ      1  s   0.5
  ################################################################################
  #
  #  Suggested additional basis functions. For production calculations,
  #  uncomment them one after another (the most important basis functions are
  #  listed first).
  #
  #  Basis constructed for dimers: 0.5 A, 0.7 A, 1.0 A, 1.5 A, 2.5 A
  #
  ################################################################################
  #  "First tier" - improvements: -1014.90 meV to -62.69 meV
       hydro 2 s 2.1
       hydro 2 p 3.5
  #  "Second tier" - improvements: -12.89 meV to -1.83 meV
  #     hydro 1 s 0.85
  #     hydro 2 p 3.7
  #     hydro 2 s 1.2
  #     hydro 3 d 7
  #  "Third tier" - improvements: -0.25 meV to -0.12 meV
  #     hydro 4 f 11.2
  #     hydro 3 p 4.8
  #     hydro 4 d 9
  #     hydro 3 s 3.2
  ################################################################################
  #
  #  FHI-aims code project
  #  VB, Fritz-Haber Institut, 2009
  #
  #  Suggested "light" defaults for C atom (to be pasted into control.in file)
  #  Be sure to double-check any results obtained with these settings for post-processing,
  #  e.g., with the "tight" defaults and larger basis sets.
  #
  ################################################################################
    species        C
  #     global species definitions
      nucleus             6
      mass                12.0107
  #
      l_hartree           4
  #
      cut_pot             3.5  1.5  1.0
      basis_dep_cutoff    1e-4
  #
      radial_base         34 5.0
      radial_multiplier   1
      angular_grids specified
        division   0.3326   50
        division   0.5710  110
        division   0.7727  194
        division   0.8772  302
  #      division   0.9334  434
  #      division   0.9625  590
  #      division   0.9924  770
  #      division   1.0230  974
  #      division   1.4589 1202
  #     outer_grid  974
       outer_grid 302
  ################################################################################
  #
  #  Definition of "minimal" basis
  #
  ################################################################################
  #     valence basis states
      valence      2  s   2.
      valence      2  p   2.
  #     ion occupancy
      ion_occ      2  s   1.
      ion_occ      2  p   1.
  ################################################################################
  #
  #  Suggested additional basis functions. For production calculations,
  #  uncomment them one after another (the most important basis functions are
  #  listed first).
  #
  #  Constructed for dimers: 1.0 A, 1.25 A, 1.5 A, 2.0 A, 3.0 A
  #
  ################################################################################
  #  "First tier" - improvements: -1214.57 meV to -155.61 meV
       hydro 2 p 1.7
       hydro 3 d 6
       hydro 2 s 4.9
  #  "Second tier" - improvements: -67.75 meV to -5.23 meV
  #     hydro 4 f 9.8
  #     hydro 3 p 5.2
  #     hydro 3 s 4.3
  #     hydro 5 g 14.4
  #     hydro 3 d 6.2
  #  "Third tier" - improvements: -2.43 meV to -0.60 meV
  #     hydro 2 p 5.6
  #     hydro 2 s 1.4
  #     hydro 3 d 4.9
  #     hydro 4 f 11.2
  #  "Fourth tier" - improvements: -0.39 meV to -0.18 meV
  #     hydro 2 p 2.1
  #     hydro 5 g 16.4
  #     hydro 4 d 13.2
  #     hydro 3 s 13.6
  #     hydro 4 f 17.6
  #  Further basis functions - improvements: -0.08 meV and below
  #     hydro 3 s 2
  #     hydro 3 p 6
  #     hydro 4 d 20
  ################################################################################
  #
  #  FHI-aims code project
  #  VB, Fritz-Haber Institut, 2009
  #
  #  Suggested "light" defaults for N atom (to be pasted into control.in file)
  #  Be sure to double-check any results obtained with these settings for post-processing,
  #  e.g., with the "tight" defaults and larger basis sets.
  #
  ################################################################################
    species        N
  #     global species definitions
      nucleus             7
      mass                14.0067
  #
      l_hartree           4
  #
      cut_pot             3.5  1.5  1.0
      basis_dep_cutoff    1e-4
  #
      radial_base         35 5.0
      radial_multiplier   1
      angular_grids       specified
        division   0.2599   50
        division   0.4601  110
        division   0.5885  194
        division   0.6503  302
  #      division   0.6939  434
  #      division   0.7396  590
  #      division   0.7632  770
  #      division   0.8122  974
  #      division   1.1604 1202
  #      outer_grid  974
        outer_grid  302
  ################################################################################
  #
  #  Definition of "minimal" basis
  #
  ################################################################################
  #     valence basis states
      valence      2  s   2.
      valence      2  p   3.
  #     ion occupancy
      ion_occ      2  s   1.
      ion_occ      2  p   2.
  ################################################################################
  #
  #  Suggested additional basis functions. For production calculations,
  #  uncomment them one after another (the most important basis functions are
  #  listed first).
  #
  #  Constructed for dimers: 1.0 A, 1.1 A, 1.5 A, 2.0 A, 3.0 A
  #
  ################################################################################
  #  "First tier" - improvements: -1193.42 meV to -220.60 meV
       hydro 2 p 1.8
       hydro 3 d 6.8
       hydro 3 s 5.8
  #  "Second tier" - improvements: -80.21 meV to -6.86 meV
  #     hydro 4 f 10.8
  #     hydro 3 p 5.8
  #     hydro 1 s 0.8
  #     hydro 5 g 16
  #     hydro 3 d 4.9
  #  "Third tier" - improvements: -4.29 meV to -0.53 meV
  #     hydro 3 s 16
  #     ionic 2 p auto
  #     hydro 3 d 6.6
  #     hydro 4 f 11.6
  #  "Fourth tier" - improvements: -0.75 meV to -0.25 meV
  #     hydro 2 p 4.5
  #     hydro 2 s 2.4
  #     hydro 5 g 14.4
  #     hydro 4 d 14.4
  #     hydro 4 f 16.8
  # Further basis functions - -0.21 meV and below
  #     hydro 3 p 14.8
  #     hydro 3 s 4.4
  #     hydro 3 d 19.6
  #     hydro 5 g 12.8
  ################################################################################
  #
  #  FHI-aims code project
  #  VB, Fritz-Haber Institut, 2009
  #
  #  Suggested "light" defaults for O atom (to be pasted into control.in file)
  #  Be sure to double-check any results obtained with these settings for post-processing,
  #  e.g., with the "tight" defaults and larger basis sets.
  #
  ################################################################################
    species        O
  #     global species definitions
      nucleus             8
      mass                15.9994
  #
      l_hartree           4
  #
      cut_pot             3.5  1.5  1.0
      basis_dep_cutoff    1e-4
  #
      radial_base         36 5.0
      radial_multiplier   1
       angular_grids specified
        division   0.2659   50
        division   0.4451  110
        division   0.6052  194
        division   0.7543  302
  #      division   0.8014  434
  #      division   0.8507  590
  #      division   0.8762  770
  #      division   0.9023  974
  #      division   1.2339 1202
  #      outer_grid 974
        outer_grid 302
  ################################################################################
  #
  #  Definition of "minimal" basis
  #
  ################################################################################
  #     valence basis states
      valence      2  s   2.
      valence      2  p   4.
  #     ion occupancy
      ion_occ      2  s   1.
      ion_occ      2  p   3.
  ################################################################################
  #
  #  Suggested additional basis functions. For production calculations,
  #  uncomment them one after another (the most important basis functions are
  #  listed first).
  #
  #  Constructed for dimers: 1.0 A, 1.208 A, 1.5 A, 2.0 A, 3.0 A
  #
  ################################################################################
  #  "First tier" - improvements: -699.05 meV to -159.38 meV
       hydro 2 p 1.8
       hydro 3 d 7.6
       hydro 3 s 6.4
  #  "Second tier" - improvements: -49.91 meV to -5.39 meV
  #     hydro 4 f 11.6
  #     hydro 3 p 6.2
  #     hydro 3 d 5.6
  #     hydro 5 g 17.6
  #     hydro 1 s 0.75
  #  "Third tier" - improvements: -2.83 meV to -0.50 meV
  #     ionic 2 p auto
  #     hydro 4 f 10.8
  #     hydro 4 d 4.7
  #     hydro 2 s 6.8
  #  "Fourth tier" - improvements: -0.40 meV to -0.12 meV
  #     hydro 3 p 5
  #     hydro 3 s 3.3
  #     hydro 5 g 15.6
  #     hydro 4 f 17.6
  #     hydro 4 d 14
  # Further basis functions - -0.08 meV and below
  #     hydro 3 s 2.1
  #     hydro 4 d 11.6
  #     hydro 3 p 16
  #     hydro 2 s 17.2
  
  -----------------------------------------------------------------------
  Completed first pass over input file control.in .
  -----------------------------------------------------------------------
  
  
  -----------------------------------------------------------------------
  Parsing geometry.in (first pass over file, find array dimensions only).
  The contents of geometry.in will be repeated verbatim below
  unless switched off by setting 'verbatim_writeout .false.' .
  in the first line of geometry.in .
  -----------------------------------------------------------------------
  
  atom  0.00000 0.00000 0.00000 C
  atom  1.09300 0.00000 0.00000 H
  atom  -0.47961 0.00000 -1.41207 N
  atom  -1.27854 0.63092 -1.48615 H
  atom  0.27693 0.31809 -2.01423 H
  atom  -0.49584 1.26211 0.72868 C
  atom  0.02160 1.37913 1.68373 H
  atom  -0.30867 2.15111 0.12189 H
  atom  -1.56895 1.19406 0.92196 H
  atom  -0.39425 -1.28861 0.74398 C
  atom  -1.37139 -1.43261 1.43948 O
  atom  0.40770 -2.29453 0.59647 O
  atom  0.10428 -2.59075 -0.27827 H
  
  -----------------------------------------------------------------------
  Completed first pass over input file geometry.in .
  -----------------------------------------------------------------------
  

  Basic array size parameters:
  | Number of species                 :        4
  | Number of atoms                   :       13
  | Max. basis fn. angular momentum   :        2
  | Max. atomic/ionic basis occupied n:        2
  | Max. number of basis fn. types    :        2
  | Max. radial fns per species/type  :        3
  | Max. logarithmic grid size        :     1301
  | Max. radial integration grid size :       36
  | Max. angular integration grid size:      302
  | Max. angular grid division number :        8
  | Radial grid for Hartree potential :     1301
  | Number of spin channels           :        1

------------------------------------------------------------
          Reading file control.in.
------------------------------------------------------------
  XC: Using PBE gradient-corrected functionals.
  Spin treatment: No spin polarisation.
  Non-relativistic treatment of kinetic energy.
  Charge =   0.000000E+00: Neutral system requested explicitly.
  Occupation type: Gaussian broadening, width =   0.100000E-01 eV.
  Using pulay charge density mixing.
  Pulay mixing - number of memorized iterations:   10
  Charge density mixing - mixing parameter:     0.2000
  Convergence accuracy of self-consistent charge density:  0.1000E-04
  Convergence accuracy of sum of eigenvalues:  0.1000E-02
  Convergence accuracy of total energy:  0.1000E-05
  Convergence accuracy of forces:  0.1000E-03
  Maximum number of s.-c. iterations  :   100
 
  Reading configuration options for species H                   .
  | Found nuclear charge :   1.0000
  | Found atomic mass :    1.00794000000000      amu
  | Found l_max for Hartree potential  :   4
  | Found cutoff potl. onset [A], width [A], scale factor :    3.50000    1.50000    1.00000
  | Threshold for basis-dependent cutoff potential is   0.100000E-03
  | Found data for basic radial integration grid :    24 points, outermost radius =    5.000 A
  | Found multiplier for basic radial grid :   1
  | Found angular grid specification: user-specified.
  | Specified grid contains     5 separate shells.
  | Check grid settings after all constraints further below.
  | Found free-atom valence shell :  1 s   1.000
  | No ionic wave fns used. Skipping ion_occ.
  | Found hydrogenic basis function :  2 s   2.100
  | Found hydrogenic basis function :  2 p   3.500
  Species H                   : Missing cutoff potential type.
  Defaulting to exp(1/x)/(1-x)^2 type cutoff potential.
  Species H : No 'logarithmic' tag. Using default grid for free atom:
  | Default logarithmic grid data [bohr] : 0.1000E-03 0.1000E+03 0.1012E+01
  Species H : On-site basis accuracy parameter (for Gram-Schmidt orthonormalisation) not specified.
  Using default value basis_acc =  0.1000000E-03.
  Species H                   : Using default innermost maximum threshold i_radial=  2 for radial functions.
  Species H                   : Default cutoff onset for free atom density etc. : 0.35000000E+01 AA.
  Species H                   : Basic radial grid will be enhanced according to radial_multiplier =   1, to contain    24 grid points.
 
  Reading configuration options for species C                   .
  | Found nuclear charge :   6.0000
  | Found atomic mass :    12.0107000000000      amu
  | Found l_max for Hartree potential  :   4
  | Found cutoff potl. onset [A], width [A], scale factor :    3.50000    1.50000    1.00000
  | Threshold for basis-dependent cutoff potential is   0.100000E-03
  | Found data for basic radial integration grid :    34 points, outermost radius =    5.000 A
  | Found multiplier for basic radial grid :   1
  | Found angular grid specification: user-specified.
  | Specified grid contains     5 separate shells.
  | Check grid settings after all constraints further below.
  | Found free-atom valence shell :  2 s   2.000
  | Found free-atom valence shell :  2 p   2.000
  | No ionic wave fns used. Skipping ion_occ.
  | No ionic wave fns used. Skipping ion_occ.
  | Found hydrogenic basis function :  2 p   1.700
  | Found hydrogenic basis function :  3 d   6.000
  | Found hydrogenic basis function :  2 s   4.900
  Species C                   : Missing cutoff potential type.
  Defaulting to exp(1/x)/(1-x)^2 type cutoff potential.
  Species C : No 'logarithmic' tag. Using default grid for free atom:
  | Default logarithmic grid data [bohr] : 0.1000E-03 0.1000E+03 0.1012E+01
  Species C : On-site basis accuracy parameter (for Gram-Schmidt orthonormalisation) not specified.
  Using default value basis_acc =  0.1000000E-03.
  Species C                   : Using default innermost maximum threshold i_radial=  2 for radial functions.
  Species C                   : Default cutoff onset for free atom density etc. : 0.35000000E+01 AA.
  Species C                   : Basic radial grid will be enhanced according to radial_multiplier =   1, to contain    34 grid points.
 
  Reading configuration options for species N                   .
  | Found nuclear charge :   7.0000
  | Found atomic mass :    14.0067000000000      amu
  | Found l_max for Hartree potential  :   4
  | Found cutoff potl. onset [A], width [A], scale factor :    3.50000    1.50000    1.00000
  | Threshold for basis-dependent cutoff potential is   0.100000E-03
  | Found data for basic radial integration grid :    35 points, outermost radius =    5.000 A
  | Found multiplier for basic radial grid :   1
  | Found angular grid specification: user-specified.
  | Specified grid contains     5 separate shells.
  | Check grid settings after all constraints further below.
  | Found free-atom valence shell :  2 s   2.000
  | Found free-atom valence shell :  2 p   3.000
  | No ionic wave fns used. Skipping ion_occ.
  | No ionic wave fns used. Skipping ion_occ.
  | Found hydrogenic basis function :  2 p   1.800
  | Found hydrogenic basis function :  3 d   6.800
  | Found hydrogenic basis function :  3 s   5.800
  Species N                   : Missing cutoff potential type.
  Defaulting to exp(1/x)/(1-x)^2 type cutoff potential.
  Species N : No 'logarithmic' tag. Using default grid for free atom:
  | Default logarithmic grid data [bohr] : 0.1000E-03 0.1000E+03 0.1012E+01
  Species N : On-site basis accuracy parameter (for Gram-Schmidt orthonormalisation) not specified.
  Using default value basis_acc =  0.1000000E-03.
  Species N                   : Using default innermost maximum threshold i_radial=  2 for radial functions.
  Species N                   : Default cutoff onset for free atom density etc. : 0.35000000E+01 AA.
  Species N                   : Basic radial grid will be enhanced according to radial_multiplier =   1, to contain    35 grid points.
 
  Reading configuration options for species O                   .
  | Found nuclear charge :   8.0000
  | Found atomic mass :    15.9994000000000      amu
  | Found l_max for Hartree potential  :   4
  | Found cutoff potl. onset [A], width [A], scale factor :    3.50000    1.50000    1.00000
  | Threshold for basis-dependent cutoff potential is   0.100000E-03
  | Found data for basic radial integration grid :    36 points, outermost radius =    5.000 A
  | Found multiplier for basic radial grid :   1
  | Found angular grid specification: user-specified.
  | Specified grid contains     5 separate shells.
  | Check grid settings after all constraints further below.
  | Found free-atom valence shell :  2 s   2.000
  | Found free-atom valence shell :  2 p   4.000
  | No ionic wave fns used. Skipping ion_occ.
  | No ionic wave fns used. Skipping ion_occ.
  | Found hydrogenic basis function :  2 p   1.800
  | Found hydrogenic basis function :  3 d   7.600
  | Found hydrogenic basis function :  3 s   6.400
  Species O                   : Missing cutoff potential type.
  Defaulting to exp(1/x)/(1-x)^2 type cutoff potential.
  Species O : No 'logarithmic' tag. Using default grid for free atom:
  | Default logarithmic grid data [bohr] : 0.1000E-03 0.1000E+03 0.1012E+01
  Species O : On-site basis accuracy parameter (for Gram-Schmidt orthonormalisation) not specified.
  Using default value basis_acc =  0.1000000E-03.
  Species O                   : Using default innermost maximum threshold i_radial=  2 for radial functions.
  Species O                   : Default cutoff onset for free atom density etc. : 0.35000000E+01 AA.
  Species O                   : Basic radial grid will be enhanced according to radial_multiplier =   1, to contain    36 grid points.
 
  Finished reading input file 'control.in'. Consistency checks are next.
 
  MPI_IN_PLACE appears to work with this MPI implementation.
  | Keeping use_mpi_in_place .true. (see manual).
  Target number of points in a grid batch is not set. Defaulting to  100
  Method for grid partitioning is not set. Defaulting to parallel hash+maxmin partitioning.
  Batch size limit is not set. Defaulting to    200
  By default, will store active basis functions for each batch.
  If in need of memory, prune_basis_once .false. can be used to disable this option.
  communication_type for Hartree potential was not specified.
  Defaulting to calc_hartree .
  Pulay mixer: Number of initial linear mixing iterations not set.
  Defaulting to    0 iterations.
  Work space size for distributed Hartree potential not set.
  Defaulting to   0.200000E+03 MB.
  Algorithm-dependent basis array size parameters:
  | n_max_pulay                         :       10
  Presetting      1001 iterations before the initial mixing cycle
  is restarted anyway using the sc_init_iter criterion / keyword.
  Presetting a factor      1.000 between actual scf density residual
  and density convergence criterion sc_accuracy_rho below which sc_init_iter
  takes no effect.
  Geometry relaxation not requested: no relaxation will be performed.
  Handling of forces: Unphysical translation and rotation will be removed from forces.
  No accuracy limit for integral partition fn. given. Defaulting to  0.1000E-14.
  No threshold value for u(r) in integrations given. Defaulting to  0.1000E-05.
  No accuracy for occupation numbers given. Defaulting to  0.1000E-12.
  No threshold value for occupation numbers given. Defaulting to  0.0000E+00.
  No accuracy for fermi level given. Defaulting to  0.1000E-19.
  Maximum # of iterations to find E_F not set. Defaulting to  200.
  Preferred method for the eigenvalue solver ('KS_method') not specified in 'control.in'.
  Calling BLACS routine to test compilation state
  Since ScaLAPACK support is enabled, defaulting to 'elsi'.
  Will not use alltoall communication since running on < 1024 CPUs.
  Threshold for basis singularities not set.
  Default threshold for basis singularities:  0.1000E-04
  partition_type (choice of integration weights) for integrals was not specified.
  | Using a version of the partition function of Stratmann and coworkers ('stratmann_smoother').
  | At each grid point, the set of atoms used to build the partition table is smoothly restricted to
  | only those atoms whose free-atom density would be non-zero at that grid point.
  Partitioning for Hartree potential was not defined. Using partition_type for integrals.
  | Adjusted default value of keyword multip_moments_threshold to:       0.10000000E-11
  | This value may affect high angular momentum components of the Hartree potential in periodic systems.
  No q(lm)/r^(l+1) cutoff set for long-range Hartree potential.
  | Using default value of  0.100000E-09 .
  | Verify using the multipole_threshold keyword.
  Defaulting to new monopole extrapolation.
  Density update method: automatic selection selected.
------------------------------------------------------------


------------------------------------------------------------
          Reading geometry description geometry.in.
------------------------------------------------------------
  Input structure read successfully.
  The structure contains       13 atoms,  and a total of         48.000 electrons.

  Input geometry:
  | No unit cell requested.
  | Atomic structure:
  |       Atom                x [A]            y [A]            z [A]
  |    1: Species C             0.00000000        0.00000000        0.00000000
  |    2: Species H             1.09300000        0.00000000        0.00000000
  |    3: Species N            -0.47961000        0.00000000       -1.41207000
  |    4: Species H            -1.27854000        0.63092000       -1.48615000
  |    5: Species H             0.27693000        0.31809000       -2.01423000
  |    6: Species C            -0.49584000        1.26211000        0.72868000
  |    7: Species H             0.02160000        1.37913000        1.68373000
  |    8: Species H            -0.30867000        2.15111000        0.12189000
  |    9: Species H            -1.56895000        1.19406000        0.92196000
  |   10: Species C            -0.39425000       -1.28861000        0.74398000
  |   11: Species O            -1.37139000       -1.43261000        1.43948000
  |   12: Species O             0.40770000       -2.29453000        0.59647000
  |   13: Species H             0.10428000       -2.59075000       -0.27827000
  |

  | The smallest distance between any two atoms is         0.97210084 AA.
  |
  | The first atom of this pair is atom number                     12 .
  | The second atom of this pair is atom number                    13 .

  Number of empty states per atom not set in control.in - providing a guess from actual geometry.
  | Total number of empty states used during s.c.f. cycle:       29
  If you use a very high smearing, use empty_states (per atom!) in control.in to increase this value.

  Structure-dependent array size parameters: 
  | Maximum number of distinct radial functions  :       21
  | Maximum number of basis functions            :      119
  | Number of Kohn-Sham states (occupied + empty):       53
------------------------------------------------------------

------------------------------------------------------------
          Preparing all fixed parts of the calculation.
------------------------------------------------------------
  Determining machine precision:
    2.225073858507201E-308
  Setting up grids for atomic and cluster calculations.

  Creating wave function, potential, and density for free atoms.

  Species: H

  List of occupied orbitals and eigenvalues:
    n    l              occ      energy [Ha]    energy [eV]
    1    0           1.0000        -0.237589        -6.4651


  Species: C

  List of occupied orbitals and eigenvalues:
    n    l              occ      energy [Ha]    energy [eV]
    1    0           2.0000       -10.038835      -273.1706
    2    0           2.0000        -0.502696       -13.6791
    2    1           2.0000        -0.191971        -5.2238


  Species: N

  List of occupied orbitals and eigenvalues:
    n    l              occ      energy [Ha]    energy [eV]
    1    0           2.0000       -14.128000      -384.4424
    2    0           2.0000        -0.681077       -18.5330
    2    1           3.0000        -0.259788        -7.0692


  Species: O

  List of occupied orbitals and eigenvalues:
    n    l              occ      energy [Ha]    energy [eV]
    1    0           2.0000       -18.898188      -514.2459
    2    0           2.0000        -0.878505       -23.9053
    2    1           4.0000        -0.331779        -9.0282

  Creating fixed part of basis set: Ionic, confined, hydrogenic.
 
  H                    hydrogenic:
 
  List of hydrogenic basis orbitals: 
    n    l      effective z      eigenvalue [eV]  inner max. [A]     outer max. [A]     outer radius [A]   
    2    0         2.100000       -14.9728           0.193243           1.317208           4.583499
    2    1         3.500000       -41.6669           0.602369           0.602369           3.723403
 
 
  C                    hydrogenic:
 
  List of hydrogenic basis orbitals: 
    n    l      effective z      eigenvalue [eV]  inner max. [A]     outer max. [A]     outer radius [A]   
    2    1         1.700000        -9.7616           1.230570           1.230570           4.607917
    3    2         6.000000       -54.4224           0.792453           0.792453           3.883070
    2    0         4.900000       -81.6679           0.082559           0.562749           3.078220
 
 
  N                    hydrogenic:
 
  List of hydrogenic basis orbitals: 
    n    l      effective z      eigenvalue [eV]  inner max. [A]     outer max. [A]     outer radius [A]   
    2    1         1.800000       -10.9749           1.177451           1.177451           4.573712
    3    2         6.800000       -69.9026           0.704619           0.704619           3.538137
    3    0         5.800000       -50.8545           0.067388           1.191934           4.250239
 
 
  O                    hydrogenic:
 
  List of hydrogenic basis orbitals: 
    n    l      effective z      eigenvalue [eV]  inner max. [A]     outer max. [A]     outer radius [A]   
    2    1         1.800000       -10.9749           1.164242           1.164242           4.578029
    3    2         7.600000       -87.3180           0.624125           0.624125           3.251020
    3    0         6.400000       -61.9207           0.061167           1.081902           4.001998
 

  Adding cutoff potential to free-atom effective potential.
  Creating atomic-like basis functions for current effective potential.

  Species H                   :

  List of atomic basis orbitals and eigenvalues:
    n    l      energy [Ha]    energy [eV]    outer radius [A]
    1    0        -0.237589        -6.4651       4.527807


  Species C                   :

  List of atomic basis orbitals and eigenvalues:
    n    l      energy [Ha]    energy [eV]    outer radius [A]
    1    0       -10.038835      -273.1706       1.934409
    2    0        -0.502696       -13.6791       4.496620
    2    1        -0.191971        -5.2238       4.551928


  Species N                   :

  List of atomic basis orbitals and eigenvalues:
    n    l      energy [Ha]    energy [eV]    outer radius [A]
    1    0       -14.128000      -384.4424       1.637919
    2    0        -0.681077       -18.5330       4.463241
    2    1        -0.259788        -7.0692       4.518138


  Species O                   :

  List of atomic basis orbitals and eigenvalues:
    n    l      energy [Ha]    energy [eV]    outer radius [A]
    1    0       -18.898188      -514.2459       1.415765
    2    0        -0.878505       -23.9053       4.413171
    2    1        -0.331779        -9.0282       4.522403

  Assembling full basis from fixed parts.
  | Species H :   atomic orbital   1 s accepted.
  | Species H :    hydro orbital   2 s accepted.
  | Species H :    hydro orbital   2 p accepted.
  | Species C :   atomic orbital   1 s accepted.
  | Species C :    hydro orbital   2 s accepted.
  | Species C :   atomic orbital   2 s accepted.
  | Species C :   atomic orbital   2 p accepted.
  | Species C :    hydro orbital   2 p accepted.
  | Species C :    hydro orbital   3 d accepted.
  | Species N :   atomic orbital   1 s accepted.
  | Species N :    hydro orbital   3 s accepted.
  | Species N :   atomic orbital   2 s accepted.
  | Species N :   atomic orbital   2 p accepted.
  | Species N :    hydro orbital   2 p accepted.
  | Species N :    hydro orbital   3 d accepted.
  | Species O :   atomic orbital   1 s accepted.
  | Species O :    hydro orbital   3 s accepted.
  | Species O :   atomic orbital   2 s accepted.
  | Species O :   atomic orbital   2 p accepted.
  | Species O :    hydro orbital   2 p accepted.
  | Species O :    hydro orbital   3 d accepted.
 
  Basis size parameters after reduction:
  | Total number of radial functions:       21
  | Total number of basis functions :      119
 
  Per-task memory consumption for arrays in subroutine allocate_ext:
  |           5.250512MB.
  Testing on-site integration grid accuracy.
  |  Species  Function  <phi|h_atom|phi> (log., in eV)  <phi|h_atom|phi> (rad., in eV)
           1        1                 -6.4663192853                 -6.4651273558
           1        2                 13.7111246313                 13.7170609718
           1        3                 25.2673269279                 25.2674696378
           2        4               -273.1705927641               -273.1705631568
           2        5                -10.7109323383                -10.7107120029
           2        6                 17.4381822266                 17.4352413244
           2        7                 -5.2255326521                 -5.2270484734
           2        8                  8.6835629259                  8.6603288385
           2        9                 27.4952418996                 27.4953360207
           3       10               -384.4424306495               -384.4423701208
           3       11                 12.5842251816                 12.5842222903
           3       12                -15.7264628251                -15.7264433455
           3       13                 -7.0696854293                 -7.0701769954
           3       14                  8.8090390882                  8.7901077751
           3       15                 35.9586762123                 35.9588528632
           4       16               -514.2458688638               -514.2457643834
           4       17                 15.1795651126                 15.1795290741
           4       18                -21.5359799773                -21.5360846186
           4       19                 -9.0283069236                 -9.0284644067
           4       20                  8.3027758564                  8.2834874195
           4       21                 45.8339351984                 45.8338762259

  Preparing densities etc. for the partition functions (integrals / Hartree potential).

  Preparations completed.
  max(cpu_time)          :      0.163 s.
  Wall clock time (cpu1) :      0.163 s.
------------------------------------------------------------

------------------------------------------------------------
          Begin self-consistency loop: Initialization.

          Date     :  20200604, Time     :  103235.718
------------------------------------------------------------

  Initializing index lists of integration centers etc. from given atomic structure:
  | Number of centers in hartree potential         :        13
  | Number of centers in hartree multipole         :        13
  | Number of centers in electron density summation:        13
  | Number of centers in basis integrals           :        13
  | Number of centers in integrals                 :        13
  | Number of centers in hamiltonian               :        13
  * Using 20 tasks for Scalapack Eigenvalue solver.
  Detailed listing of tasks and assigned k-points:
  (for non-periodic systems, the "k-point" denotes an internal label only)
   Task     0 k-point     1 on r18c06.bullx
   Task     1 k-point     1 on r18c06.bullx
   Task     2 k-point     1 on r18c06.bullx
   Task     3 k-point     1 on r18c06.bullx
   Task     4 k-point     1 on r18c06.bullx
   Task     5 k-point     1 on r18c06.bullx
   Task     6 k-point     1 on r18c06.bullx
   Task     7 k-point     1 on r18c06.bullx
   Task     8 k-point     1 on r18c06.bullx
   Task     9 k-point     1 on r18c06.bullx
   Task    10 k-point     1 on r18c06.bullx
   Task    11 k-point     1 on r18c06.bullx
   Task    12 k-point     1 on r18c06.bullx
   Task    13 k-point     1 on r18c06.bullx
   Task    14 k-point     1 on r18c06.bullx
   Task    15 k-point     1 on r18c06.bullx
   Task    16 k-point     1 on r18c06.bullx
   Task    17 k-point     1 on r18c06.bullx
   Task    18 k-point     1 on r18c06.bullx
   Task    19 k-point     1 on r18c06.bullx
  Tasks:    20 split into      5 X      4 BLACS grid
  Calculating block size based on n_basis =          119  max_nprow =            5  max_npcol =            4
  ScaLAPACK block size set to:           16
  Allocating        0.008 MB for ovlp
  Allocating        0.008 MB for ham
  Allocating        0.008 MB for eigenvec
  Required Scalapack workspace - INTEGER:            1  REAL:             1
  Partitioning the integration grid into batches with parallel hashing+maxmin method.
  | Number of batches:      874
  | Maximal batch size:     178
  | Minimal batch size:      50
  | Average batch size:      79.686
  | Standard deviation of batch sizes:      21.258

  Integration load balanced across    20 MPI tasks.
  Work distribution over tasks is as follows:
  Task     0 has       3493 integration points.
  Task     1 has       3439 integration points.
  Task     2 has       3532 integration points.
  Task     3 has       3439 integration points.
  Task     4 has       3438 integration points.
  Task     5 has       3430 integration points.
  Task     6 has       3461 integration points.
  Task     7 has       3504 integration points.
  Task     8 has       3525 integration points.
  Task     9 has       3436 integration points.
  Task    10 has       3504 integration points.
  Task    11 has       3435 integration points.
  Task    12 has       3433 integration points.
  Task    13 has       3561 integration points.
  Task    14 has       3509 integration points.
  Task    15 has       3458 integration points.
  Task    16 has       3498 integration points.
  Task    17 has       3530 integration points.
  Task    18 has       3525 integration points.
  Task    19 has       3496 integration points.
  Initializing partition tables, free-atom densities, potentials, etc. across the integration grid (initialize_grid_storage).
  | initialize_grid_storage: Actual outermost partition radius vs. multipole_radius_free
  | (-- VB: in principle, multipole_radius_free should be larger, hence this output)
  | Species        1: Confinement radius =              4.999999999999999 AA, multipole_radius_free =              5.054417573612229 AA.
  | Species        1: outer_partition_radius set to              5.054417573612229 AA .
  | Species        2: Confinement radius =              4.999999999999999 AA, multipole_radius_free =              5.019602836301480 AA.
  | Species        2: outer_partition_radius set to              5.019602836301480 AA .
  | Species        3: Confinement radius =              4.999999999999999 AA, multipole_radius_free =              5.043624274424571 AA.
  | Species        3: outer_partition_radius set to              5.043624274424571 AA .
  | Species        4: Confinement radius =              4.999999999999999 AA, multipole_radius_free =              5.048384829883283 AA.
  | Species        4: outer_partition_radius set to              5.048384829883283 AA .
  | Original list of interatomic distances with          13 x         13 entries is created.
  | Net number of integration points:    69646
  | of which are non-zero points    :    59574
  Renormalizing the initial density to the exact electron count on the 3D integration grid.
  | Initial density: Formal number of electrons (from input files) :      48.0000000000
  | Integrated number of electrons on 3D grid     :      48.0000278887
  | Charge integration error                      :       0.0000278887
  | Normalization factor for density and gradient :       0.9999994190
  Obtaining max. number of non-zero basis functions in each batch (get_n_compute_maxes).
  | Maximal number of non-zero basis functions:      118 in task     0
  | Maximal number of non-zero basis functions:      118 in task     1
  | Maximal number of non-zero basis functions:      119 in task     2
  | Maximal number of non-zero basis functions:      118 in task     3
  | Maximal number of non-zero basis functions:      117 in task     4
  | Maximal number of non-zero basis functions:      117 in task     5
  | Maximal number of non-zero basis functions:      118 in task     6
  | Maximal number of non-zero basis functions:      118 in task     7
  | Maximal number of non-zero basis functions:      118 in task     8
  | Maximal number of non-zero basis functions:      117 in task     9
  | Maximal number of non-zero basis functions:      118 in task    10
  | Maximal number of non-zero basis functions:      118 in task    11
  | Maximal number of non-zero basis functions:      118 in task    12
  | Maximal number of non-zero basis functions:      119 in task    13
  | Maximal number of non-zero basis functions:      117 in task    14
  | Maximal number of non-zero basis functions:      119 in task    15
  | Maximal number of non-zero basis functions:      118 in task    16
  | Maximal number of non-zero basis functions:      118 in task    17
  | Maximal number of non-zero basis functions:      119 in task    18
  | Maximal number of non-zero basis functions:      119 in task    19
  Selecting the method for density update.
  Loop over occupied states selected for charge density update.
  Allocating        0.050 MB for KS_eigenvector
  Integrating Hamiltonian matrix: batch-based integration.
  Time summed over all CPUs for integration: real work        0.520 s, elapsed        0.540 s
  Integrating overlap matrix.
  Time summed over all CPUs for integration: real work        0.216 s, elapsed        0.225 s
  Deallocating overlap matrix.

  Updating Kohn-Sham eigenvalues and eigenvectors using ELSI and the ELPA eigensolver.
  ELPA settings:
  | ELPA solver          1
  | Time full => band           :     0.001 s
  | Time band => tridiagonal    :     0.001 s
  | Time solve tridiagonal      :     0.001 s
  Overlap matrix is nonsingular
  | Lowest eigenvalue of overlap  :  0.44E-02
  | Highest eigenvalue of overlap :  0.62E+01
  Finished singularity check of overlap matrix
  | Time :     0.003 s
  Finished Cholesky decomposition
  | Time :     0.002 s
  Finished transformation to standard eigenproblem
  | Time :     0.001 s
  Starting ELPA eigensolver
  | Time full => tridiagonal    :     0.002 s
  | Time solve tridiagonal      :     0.000 s
  | Time ev tridiagonal => full :     0.001 s
  Finished solving standard eigenproblem
  | Time :     0.003 s
  Finished back-transformation of eigenvectors
  | Time :     0.000 s

  Obtaining occupation numbers and chemical potential using ELSI.
  | Chemical potential (Fermi level):    -9.34428772eV
  Writing Kohn-Sham eigenvalues.

  State    Occupation    Eigenvalue [Ha]    Eigenvalue [eV]
      1       2.00000         -19.007557         -517.22193
      2       2.00000         -18.977300         -516.39861
      3       2.00000         -14.245777         -387.64733
      4       2.00000         -10.166889         -276.65513
      5       2.00000         -10.141372         -275.96076
      6       2.00000         -10.131886         -275.70264
      7       2.00000          -1.182547          -32.17875
      8       2.00000          -1.097702          -29.86999
      9       2.00000          -0.991947          -26.99224
     10       2.00000          -0.858892          -23.37164
     11       2.00000          -0.758583          -20.64209
     12       2.00000          -0.677130          -18.42564
     13       2.00000          -0.630497          -17.15670
     14       2.00000          -0.602511          -16.39516
     15       2.00000          -0.587721          -15.99269
     16       2.00000          -0.572282          -15.57257
     17       2.00000          -0.557320          -15.16545
     18       2.00000          -0.528385          -14.37808
     19       2.00000          -0.524116          -14.26192
     20       2.00000          -0.485448          -13.20970
     21       2.00000          -0.462062          -12.57334
     22       2.00000          -0.434455          -11.82211
     23       2.00000          -0.405693          -11.03946
     24       2.00000          -0.381762          -10.38828
     25       0.00000          -0.169840           -4.62158
     26       0.00000          -0.059792           -1.62703
     27       0.00000          -0.028758           -0.78256
     28       0.00000          -0.015595           -0.42435
     29       0.00000          -0.008458           -0.23014
     30       0.00000           0.006369            0.17331
     31       0.00000           0.013426            0.36535
     32       0.00000           0.028417            0.77328
     33       0.00000           0.057436            1.56292
     34       0.00000           0.073351            1.99598
     35       0.00000           0.086584            2.35608
     36       0.00000           0.124951            3.40008
     37       0.00000           0.150833            4.10436
     38       0.00000           0.214926            5.84842
     39       0.00000           0.219232            5.96561
     40       0.00000           0.227099            6.17967
     41       0.00000           0.244313            6.64809
     42       0.00000           0.265014            7.21140
     43       0.00000           0.288262            7.84400
     44       0.00000           0.321817            8.75707
     45       0.00000           0.333387            9.07193
     46       0.00000           0.359898            9.79333
     47       0.00000           0.365252            9.93902
     48       0.00000           0.383551           10.43694
     49       0.00000           0.436088           11.86657
     50       0.00000           0.475988           12.95230
     51       0.00000           0.494157           13.44668
     52       0.00000           0.513243           13.96605
     53       0.00000           0.574513           15.63330

  Highest occupied state (VBM) at    -10.38828069 eV
  | Occupation number:      2.00000000

  Lowest unoccupied state (CBM) at    -4.62157805 eV
  | Occupation number:      0.00000000

  Overall HOMO-LUMO gap:      5.76670264 eV.
  Calculating total energy contributions from superposition of free atom densities.

  Total energy components:
  | Sum of eigenvalues            :        -188.81966228 Ha       -5138.04443144 eV
  | XC energy correction          :         -41.78386834 Ha       -1136.99690736 eV
  | XC potential correction       :          53.71321593 Ha        1461.61097152 eV
  | Free-atom electrostatic energy:        -146.86528697 Ha       -3996.40779353 eV
  | Hartree energy correction     :           0.00000000 Ha           0.00000000 eV
  | vdW energy correction         :           0.00000000 Ha           0.00000000 eV
  | Entropy correction            :           0.00000000 Ha           0.00000000 eV
  | ---------------------------
  | Total energy                  :        -323.75560166 Ha       -8809.83816081 eV
  | Total energy, T -> 0          :        -323.75560166 Ha       -8809.83816081 eV  <-- do not rely on this value for anything but (periodic) metals
  | Electronic free energy        :        -323.75560166 Ha       -8809.83816081 eV

  Derived energy quantities:
  | Kinetic energy                :         320.49063084 Ha        8720.99378451 eV
  | Electrostatic energy          :        -602.46236416 Ha      -16393.83503796 eV
  | Energy correction for multipole
  | error in Hartree potential    :           0.00000000 Ha           0.00000000 eV
  | Sum of eigenvalues per atom                           :        -395.23418703 eV
  | Total energy (T->0) per atom                          :        -677.67985852 eV  <-- do not rely on this value for anything but (periodic) metals
  | Electronic free energy per atom                       :        -677.67985852 eV
  Initialize hartree_potential_storage
  Max. number of atoms included in rho_multipole:           13

  End scf initialization - timings             :  max(cpu_time)    wall_clock(cpu1)
  | Time for scf. initialization               :        0.096 s           0.097 s
  | Boundary condition initialization          :        0.000 s           0.000 s
  | Integration                                :        0.039 s           0.040 s
  | Solution of K.-S. eqns.                    :        0.010 s           0.010 s
  | Grid partitioning                          :        0.023 s           0.023 s
  | Preloading free-atom quantities on grid    :        0.003 s           0.003 s
  | Free-atom superposition energy             :        0.005 s           0.004 s
  | Total energy evaluation                    :        0.000 s           0.001 s

  Partial memory accounting:
  | Current value for overall tracked memory usage on task 0  :           0.133 MB
  | Peak value for overall tracked memory usage on task 0     :           0.808 MB after allocating wave
  | Largest tracked array allocation on task 0 so far         :           0.168 MB  when allocating H_times_psi
  Note:  These values currently only include a subset of arrays which are explicitly tracked.
  The "true" memory usage will be greater.
------------------------------------------------------------

------------------------------------------------------------
          Begin self-consistency iteration #    1

  Date     :  20200604, Time     :  103235.815
------------------------------------------------------------
  Evaluating new KS density.
  Integration grid: deviation in total charge (<rho> - N_e) =  -7.105427E-15
  Pulay mixing of updated and previous charge densities.

  Evaluating partitioned Hartree potential by multipole expansion.
  | Analytical far-field extrapolation by fixed multipoles:
  | Hartree multipole sum: apparent total charge =  -0.795715E-04
  Summing up the Hartree potential.
  Time summed over all CPUs for potential: real work        0.421 s, elapsed        0.430 s
  | RMS charge density error from multipole expansion :   0.582942E-02

  Integrating Hamiltonian matrix: batch-based integration.
  Time summed over all CPUs for integration: real work        0.513 s, elapsed        0.532 s

  Updating Kohn-Sham eigenvalues and eigenvectors using ELSI and the ELPA eigensolver.
  ELPA settings:
  | ELPA solver          1
  Finished transformation to standard eigenproblem
  | Time :     0.000 s
  Starting ELPA eigensolver
  | Time full => tridiagonal    :     0.002 s
  | Time solve tridiagonal      :     0.000 s
  | Time ev tridiagonal => full :     0.000 s
  Finished solving standard eigenproblem
  | Time :     0.003 s
  Finished back-transformation of eigenvectors
  | Time :     0.000 s

  Obtaining occupation numbers and chemical potential using ELSI.
  | Chemical potential (Fermi level):    -8.28792715eV
  Writing Kohn-Sham eigenvalues.

  State    Occupation    Eigenvalue [Ha]    Eigenvalue [eV]
      1       2.00000         -18.894517         -514.14596
      2       2.00000         -18.837428         -512.59249
      3       2.00000         -14.101192         -383.71296
      4       2.00000         -10.114569         -275.23143
      5       2.00000         -10.063012         -273.82848
      6       2.00000         -10.030200         -272.93562
      7       2.00000          -1.129866          -30.74521
      8       2.00000          -1.032460          -28.09467
      9       2.00000          -0.924118          -25.14653
     10       2.00000          -0.793313          -21.58716
     11       2.00000          -0.706412          -19.22245
     12       2.00000          -0.629617          -17.13276
     13       2.00000          -0.577360          -15.71077
     14       2.00000          -0.543407          -14.78684
     15       2.00000          -0.531681          -14.46777
     16       2.00000          -0.504736          -13.73456
     17       2.00000          -0.497973          -13.55054
     18       2.00000          -0.465857          -12.67661
     19       2.00000          -0.462138          -12.57541
     20       2.00000          -0.429400          -11.68456
     21       2.00000          -0.399675          -10.87570
     22       2.00000          -0.373582          -10.16569
     23       2.00000          -0.333330           -9.07037
     24       2.00000          -0.311361           -8.47257
     25       0.00000          -0.130446           -3.54963
     26       0.00000          -0.038439           -1.04598
     27       0.00000          -0.006830           -0.18584
     28       0.00000           0.015041            0.40929
     29       0.00000           0.025424            0.69182
     30       0.00000           0.048366            1.31611
     31       0.00000           0.050567            1.37600
     32       0.00000           0.066260            1.80301
     33       0.00000           0.103915            2.82767
     34       0.00000           0.114994            3.12915
     35       0.00000           0.124774            3.39528
     36       0.00000           0.153306            4.17168
     37       0.00000           0.176777            4.81035
     38       0.00000           0.247911            6.74600
     39       0.00000           0.248743            6.76863
     40       0.00000           0.259662            7.06576
     41       0.00000           0.280745            7.63947
     42       0.00000           0.296533            8.06907
     43       0.00000           0.325613            8.86038
     44       0.00000           0.354522            9.64703
     45       0.00000           0.367011            9.98688
     46       0.00000           0.401789           10.93323
     47       0.00000           0.412188           11.21621
     48       0.00000           0.421947           11.48176
     49       0.00000           0.473165           12.87546
     50       0.00000           0.515495           14.02733
     51       0.00000           0.530704           14.44119
     52       0.00000           0.545205           14.83578
     53       0.00000           0.609684           16.59034

  Highest occupied state (VBM) at     -8.47256820 eV
  | Occupation number:      2.00000000

  Lowest unoccupied state (CBM) at    -3.54962538 eV
  | Occupation number:      0.00000000

  Overall HOMO-LUMO gap:      4.92294282 eV.

  Total energy components:
  | Sum of eigenvalues            :        -185.37440620 Ha       -5044.29424360 eV
  | XC energy correction          :         -42.11456244 Ha       -1145.99555172 eV
  | XC potential correction       :          54.14339194 Ha        1473.31665616 eV
  | Free-atom electrostatic energy:        -146.86528697 Ha       -3996.40779353 eV
  | Hartree energy correction     :          -3.36119407 Ha         -91.46274433 eV
  | vdW energy correction         :           0.00000000 Ha           0.00000000 eV
  | Entropy correction            :          -0.00000000 Ha          -0.00000000 eV
  | ---------------------------
  | Total energy                  :        -323.57205775 Ha       -8804.84367702 eV
  | Total energy, T -> 0          :        -323.57205775 Ha       -8804.84367702 eV  <-- do not rely on this value for anything but (periodic) metals
  | Electronic free energy        :        -323.57205775 Ha       -8804.84367702 eV

  Derived energy quantities:
  | Kinetic energy                :         322.29389327 Ha        8770.06305172 eV
  | Electrostatic energy          :        -603.75138858 Ha      -16428.91117701 eV
  | Energy correction for multipole
  | error in Hartree potential    :           0.01189879 Ha           0.32378262 eV
  | Sum of eigenvalues per atom                           :        -388.02263412 eV
  | Total energy (T->0) per atom                          :        -677.29566746 eV  <-- do not rely on this value for anything but (periodic) metals
  | Electronic free energy per atom                       :        -677.29566746 eV

  Self-consistency convergence accuracy:
  | Change of charge density      :  0.5896E+00
  | Change of sum of eigenvalues  :  0.9375E+02 eV
  | Change of total energy        :  0.4994E+01 eV

  End self-consistency iteration #     1       :  max(cpu_time)    wall_clock(cpu1)
  | Time for this iteration                    :        0.078 s           0.078 s
  | Charge density update                      :        0.022 s           0.022 s
  | Density mixing                             :        0.000 s           0.001 s
  | Hartree multipole update                   :        0.001 s           0.001 s
  | Hartree multipole summation                :        0.022 s           0.022 s
  | Integration                                :        0.027 s           0.027 s
  | Solution of K.-S. eqns.                    :        0.004 s           0.005 s
  | Total energy evaluation                    :        0.000 s           0.000 s

  Partial memory accounting:
  | Current value for overall tracked memory usage on task 0  :           0.133 MB
  | Peak value for overall tracked memory usage on task 0     :           0.808 MB after allocating wave
  | Largest tracked array allocation on task 0 so far         :           0.504 MB  when allocating gradient_basis_wave
  Note:  These values currently only include a subset of arrays which are explicitly tracked.
  The "true" memory usage will be greater.
------------------------------------------------------------

------------------------------------------------------------
          Begin self-consistency iteration #    2

  Date     :  20200604, Time     :  103235.903
------------------------------------------------------------
  Evaluating new KS density.
  Integration grid: deviation in total charge (<rho> - N_e) =   0.000000E+00
  Pulay mixing of updated and previous charge densities.

  Evaluating partitioned Hartree potential by multipole expansion.
  | Analytical far-field extrapolation by fixed multipoles:
  | Hartree multipole sum: apparent total charge =  -0.216257E-03
  Summing up the Hartree potential.
  Time summed over all CPUs for potential: real work        0.420 s, elapsed        0.429 s
  | RMS charge density error from multipole expansion :   0.137969E-01

  Integrating Hamiltonian matrix: batch-based integration.
  Time summed over all CPUs for integration: real work        0.511 s, elapsed        0.530 s

  Updating Kohn-Sham eigenvalues and eigenvectors using ELSI and the ELPA eigensolver.
  ELPA settings:
  | ELPA solver          1
  Finished transformation to standard eigenproblem
  | Time :     0.000 s
  Starting ELPA eigensolver
  | Time full => tridiagonal    :     0.002 s
  | Time solve tridiagonal      :     0.000 s
  | Time ev tridiagonal => full :     0.000 s
  Finished solving standard eigenproblem
  | Time :     0.003 s
  Finished back-transformation of eigenvectors
  | Time :     0.000 s

  Obtaining occupation numbers and chemical potential using ELSI.
  | Chemical potential (Fermi level):    -2.90610135eV
  Highest occupied state (VBM) at     -6.57392819 eV
  | Occupation number:      2.00000000

  Lowest unoccupied state (CBM) at    -2.25528958 eV
  | Occupation number:      0.00000000

  Overall HOMO-LUMO gap:      4.31863862 eV.

  Checking to see if s.c.f. parameters should be adjusted.

  Total energy components:
  | Sum of eigenvalues            :        -181.77174744 Ha       -4946.26091088 eV
  | XC energy correction          :         -42.47383750 Ha       -1155.77192339 eV
  | XC potential correction       :          54.60920305 Ha        1485.99202154 eV
  | Free-atom electrostatic energy:        -146.86528697 Ha       -3996.40779353 eV
  | Hartree energy correction     :          -6.99088504 Ha        -190.23166083 eV
  | vdW energy correction         :           0.00000000 Ha           0.00000000 eV
  | Entropy correction            :           0.00000000 Ha           0.00000000 eV
  | ---------------------------
  | Total energy                  :        -323.49255390 Ha       -8802.68026709 eV
  | Total energy, T -> 0          :        -323.49255390 Ha       -8802.68026709 eV  <-- do not rely on this value for anything but (periodic) metals
  | Electronic free energy        :        -323.49255390 Ha       -8802.68026709 eV

  Derived energy quantities:
  | Kinetic energy                :         323.61020146 Ha        8805.88161995 eV
  | Electrostatic energy          :        -604.62891786 Ha      -16452.78996365 eV
  | Energy correction for multipole
  | error in Hartree potential    :           0.02604985 Ha           0.70885262 eV
  | Sum of eigenvalues per atom                           :        -380.48160853 eV
  | Total energy (T->0) per atom                          :        -677.12925131 eV  <-- do not rely on this value for anything but (periodic) metals
  | Electronic free energy per atom                       :        -677.12925131 eV

  Self-consistency convergence accuracy:
  | Change of charge density      :  0.3701E+00
  | Change of sum of eigenvalues  :  0.9803E+02 eV
  | Change of total energy        :  0.2163E+01 eV

  End self-consistency iteration #     2       :  max(cpu_time)    wall_clock(cpu1)
  | Time for this iteration                    :        0.082 s           0.076 s
  | Charge density update                      :        0.026 s           0.020 s
  | Density mixing                             :        0.001 s           0.001 s
  | Hartree multipole update                   :        0.001 s           0.001 s
  | Hartree multipole summation                :        0.022 s           0.022 s
  | Integration                                :        0.027 s           0.027 s
  | Solution of K.-S. eqns.                    :        0.004 s           0.004 s
  | Total energy evaluation                    :        0.000 s           0.001 s

  Partial memory accounting:
  | Current value for overall tracked memory usage on task 0  :           0.134 MB
  | Peak value for overall tracked memory usage on task 0     :           0.808 MB after allocating wave
  | Largest tracked array allocation on task 0 so far         :           0.504 MB  when allocating gradient_basis_wave
  Note:  These values currently only include a subset of arrays which are explicitly tracked.
  The "true" memory usage will be greater.
------------------------------------------------------------

------------------------------------------------------------
          Begin self-consistency iteration #    3

  Date     :  20200604, Time     :  103235.989
------------------------------------------------------------
  Evaluating new KS density.
  Integration grid: deviation in total charge (<rho> - N_e) =   7.105427E-15
  Pulay mixing of updated and previous charge densities.

  Evaluating partitioned Hartree potential by multipole expansion.
  | Analytical far-field extrapolation by fixed multipoles:
  | Hartree multipole sum: apparent total charge =  -0.310411E-03
  Summing up the Hartree potential.
  Time summed over all CPUs for potential: real work        0.420 s, elapsed        0.429 s
  | RMS charge density error from multipole expansion :   0.214720E-01

  Integrating Hamiltonian matrix: batch-based integration.
  Time summed over all CPUs for integration: real work        0.512 s, elapsed        0.536 s

  Updating Kohn-Sham eigenvalues and eigenvectors using ELSI and the ELPA eigensolver.
  ELPA settings:
  | ELPA solver          1
  Finished transformation to standard eigenproblem
  | Time :     0.000 s
  Starting ELPA eigensolver
  | Time full => tridiagonal    :     0.002 s
  | Time solve tridiagonal      :     0.000 s
  | Time ev tridiagonal => full :     0.000 s
  Finished solving standard eigenproblem
  | Time :     0.003 s
  Finished back-transformation of eigenvectors
  | Time :     0.000 s

  Obtaining occupation numbers and chemical potential using ELSI.
  | Chemical potential (Fermi level):    -2.26322368eV
  Highest occupied state (VBM) at     -5.93474405 eV
  | Occupation number:      2.00000000

  Lowest unoccupied state (CBM) at    -1.61036463 eV
  | Occupation number:      0.00000000

  Overall HOMO-LUMO gap:      4.32437942 eV.

  Total energy components:
  | Sum of eigenvalues            :        -180.47796917 Ha       -4911.05541287 eV
  | XC energy correction          :         -42.62224115 Ha       -1159.81019223 eV
  | XC potential correction       :          54.79858354 Ha        1491.14532679 eV
  | Free-atom electrostatic energy:        -146.86528697 Ha       -3996.40779353 eV
  | Hartree energy correction     :          -8.31266654 Ha        -226.19916539 eV
  | vdW energy correction         :           0.00000000 Ha           0.00000000 eV
  | Entropy correction            :           0.00000000 Ha           0.00000000 eV
  | ---------------------------
  | Total energy                  :        -323.47958029 Ha       -8802.32723723 eV
  | Total energy, T -> 0          :        -323.47958029 Ha       -8802.32723723 eV  <-- do not rely on this value for anything but (periodic) metals
  | Electronic free energy        :        -323.47958029 Ha       -8802.32723723 eV

  Derived energy quantities:
  | Kinetic energy                :         323.22316312 Ha        8795.34977104 eV
  | Electrostatic energy          :        -604.08050226 Ha      -16437.86681604 eV
  | Energy correction for multipole
  | error in Hartree potential    :           0.03641305 Ha           0.99084944 eV
  | Sum of eigenvalues per atom                           :        -377.77349330 eV
  | Total energy (T->0) per atom                          :        -677.10209517 eV  <-- do not rely on this value for anything but (periodic) metals
  | Electronic free energy per atom                       :        -677.10209517 eV

  Self-consistency convergence accuracy:
  | Change of charge density      :  0.2078E+00
  | Change of sum of eigenvalues  :  0.3521E+02 eV
  | Change of total energy        :  0.3530E+00 eV

  End self-consistency iteration #     3       :  max(cpu_time)    wall_clock(cpu1)
  | Time for this iteration                    :        0.083 s           0.076 s
  | Charge density update                      :        0.027 s           0.020 s
  | Density mixing                             :        0.001 s           0.001 s
  | Hartree multipole update                   :        0.001 s           0.002 s
  | Hartree multipole summation                :        0.022 s           0.022 s
  | Integration                                :        0.027 s           0.027 s
  | Solution of K.-S. eqns.                    :        0.004 s           0.004 s
  | Total energy evaluation                    :        0.000 s           0.000 s

  Partial memory accounting:
  | Current value for overall tracked memory usage on task 0  :           0.134 MB
  | Peak value for overall tracked memory usage on task 0     :           0.808 MB after allocating wave
  | Largest tracked array allocation on task 0 so far         :           0.504 MB  when allocating gradient_basis_wave
  Note:  These values currently only include a subset of arrays which are explicitly tracked.
  The "true" memory usage will be greater.
------------------------------------------------------------

------------------------------------------------------------
          Begin self-consistency iteration #    4

  Date     :  20200604, Time     :  103236.076
------------------------------------------------------------
  Evaluating new KS density.
  Integration grid: deviation in total charge (<rho> - N_e) =   2.842171E-14
  Pulay mixing of updated and previous charge densities.

  Evaluating partitioned Hartree potential by multipole expansion.
  | Analytical far-field extrapolation by fixed multipoles:
  | Hartree multipole sum: apparent total charge =  -0.345391E-03
  Summing up the Hartree potential.
  Time summed over all CPUs for potential: real work        0.412 s, elapsed        0.424 s
  | RMS charge density error from multipole expansion :   0.250978E-01

  Integrating Hamiltonian matrix: batch-based integration.
  Time summed over all CPUs for integration: real work        0.511 s, elapsed        0.532 s

  Updating Kohn-Sham eigenvalues and eigenvectors using ELSI and the ELPA eigensolver.
  ELPA settings:
  | ELPA solver          1
  Finished transformation to standard eigenproblem
  | Time :     0.000 s
  Starting ELPA eigensolver
  | Time full => tridiagonal    :     0.002 s
  | Time solve tridiagonal      :     0.000 s
  | Time ev tridiagonal => full :     0.000 s
  Finished solving standard eigenproblem
  | Time :     0.003 s
  Finished back-transformation of eigenvectors
  | Time :     0.000 s

  Obtaining occupation numbers and chemical potential using ELSI.
  | Chemical potential (Fermi level):    -2.15299161eV
  Highest occupied state (VBM) at     -5.73899887 eV
  | Occupation number:      2.00000000

  Lowest unoccupied state (CBM) at    -1.49176852 eV
  | Occupation number:      0.00000000

  Overall HOMO-LUMO gap:      4.24723034 eV.

  Total energy components:
  | Sum of eigenvalues            :        -180.31085865 Ha       -4906.50810431 eV
  | XC energy correction          :         -42.66261948 Ha       -1160.90894236 eV
  | XC potential correction       :          54.84937679 Ha        1492.52748152 eV
  | Free-atom electrostatic energy:        -146.86528697 Ha       -3996.40779353 eV
  | Hartree energy correction     :          -8.48908785 Ha        -230.99983346 eV
  | vdW energy correction         :           0.00000000 Ha           0.00000000 eV
  | Entropy correction            :           0.00000000 Ha           0.00000000 eV
  | ---------------------------
  | Total energy                  :        -323.47847616 Ha       -8802.29719214 eV
  | Total energy, T -> 0          :        -323.47847616 Ha       -8802.29719214 eV  <-- do not rely on this value for anything but (periodic) metals
  | Electronic free energy        :        -323.47847616 Ha       -8802.29719214 eV

  Derived energy quantities:
  | Kinetic energy                :         322.80686447 Ha        8784.02170835 eV
  | Electrostatic energy          :        -603.62272115 Ha      -16425.40995814 eV
  | Energy correction for multipole
  | error in Hartree potential    :           0.04078755 Ha           1.10988572 eV
  | Sum of eigenvalues per atom                           :        -377.42370033 eV
  | Total energy (T->0) per atom                          :        -677.09978401 eV  <-- do not rely on this value for anything but (periodic) metals
  | Electronic free energy per atom                       :        -677.09978401 eV

  Self-consistency convergence accuracy:
  | Change of charge density      :  0.7143E-01
  | Change of sum of eigenvalues  :  0.4547E+01 eV
  | Change of total energy        :  0.3005E-01 eV

  End self-consistency iteration #     4       :  max(cpu_time)    wall_clock(cpu1)
  | Time for this iteration                    :        0.083 s           0.076 s
  | Charge density update                      :        0.028 s           0.021 s
  | Density mixing                             :        0.001 s           0.001 s
  | Hartree multipole update                   :        0.001 s           0.001 s
  | Hartree multipole summation                :        0.022 s           0.022 s
  | Integration                                :        0.027 s           0.027 s
  | Solution of K.-S. eqns.                    :        0.004 s           0.004 s
  | Total energy evaluation                    :        0.000 s           0.000 s

  Partial memory accounting:
  | Current value for overall tracked memory usage on task 0  :           0.134 MB
  | Peak value for overall tracked memory usage on task 0     :           0.808 MB after allocating wave
  | Largest tracked array allocation on task 0 so far         :           0.504 MB  when allocating gradient_basis_wave
  Note:  These values currently only include a subset of arrays which are explicitly tracked.
  The "true" memory usage will be greater.
------------------------------------------------------------

------------------------------------------------------------
          Begin self-consistency iteration #    5

  Date     :  20200604, Time     :  103236.161
------------------------------------------------------------
  Evaluating new KS density.
  Integration grid: deviation in total charge (<rho> - N_e) =  -1.421085E-14
  Pulay mixing of updated and previous charge densities.

  Evaluating partitioned Hartree potential by multipole expansion.
  | Analytical far-field extrapolation by fixed multipoles:
  | Hartree multipole sum: apparent total charge =  -0.339340E-03
  Summing up the Hartree potential.
  Time summed over all CPUs for potential: real work        0.412 s, elapsed        0.425 s
  | RMS charge density error from multipole expansion :   0.248939E-01

  Integrating Hamiltonian matrix: batch-based integration.
  Time summed over all CPUs for integration: real work        0.511 s, elapsed        0.530 s

  Updating Kohn-Sham eigenvalues and eigenvectors using ELSI and the ELPA eigensolver.
  ELPA settings:
  | ELPA solver          1
  Finished transformation to standard eigenproblem
  | Time :     0.000 s
  Starting ELPA eigensolver
  | Time full => tridiagonal    :     0.002 s
  | Time solve tridiagonal      :     0.000 s
  | Time ev tridiagonal => full :     0.000 s
  Finished solving standard eigenproblem
  | Time :     0.003 s
  Finished back-transformation of eigenvectors
  | Time :     0.000 s

  Obtaining occupation numbers and chemical potential using ELSI.
  | Chemical potential (Fermi level):    -2.21934564eV
  Highest occupied state (VBM) at     -5.84749305 eV
  | Occupation number:      2.00000000

  Lowest unoccupied state (CBM) at    -1.59469217 eV
  | Occupation number:      0.00000000

  Overall HOMO-LUMO gap:      4.25280088 eV.

  Total energy components:
  | Sum of eigenvalues            :        -180.53225403 Ha       -4912.53257914 eV
  | XC energy correction          :         -42.63625698 Ha       -1160.19158226 eV
  | XC potential correction       :          54.81515915 Ha        1491.59637215 eV
  | Free-atom electrostatic energy:        -146.86528697 Ha       -3996.40779353 eV
  | Hartree energy correction     :          -8.25955759 Ha        -224.75399744 eV
  | vdW energy correction         :           0.00000000 Ha           0.00000000 eV
  | Entropy correction            :           0.00000000 Ha           0.00000000 eV
  | ---------------------------
  | Total energy                  :        -323.47819642 Ha       -8802.28958022 eV
  | Total energy, T -> 0          :        -323.47819642 Ha       -8802.28958022 eV  <-- do not rely on this value for anything but (periodic) metals
  | Electronic free energy        :        -323.47819642 Ha       -8802.28958022 eV

  Derived energy quantities:
  | Kinetic energy                :         322.67378782 Ha        8780.40050853 eV
  | Electrostatic energy          :        -603.51572727 Ha      -16422.49850649 eV
  | Energy correction for multipole
  | error in Hartree potential    :           0.04016507 Ha           1.09294715 eV
  | Sum of eigenvalues per atom                           :        -377.88712147 eV
  | Total energy (T->0) per atom                          :        -677.09919848 eV  <-- do not rely on this value for anything but (periodic) metals
  | Electronic free energy per atom                       :        -677.09919848 eV

  Self-consistency convergence accuracy:
  | Change of charge density      :  0.2029E-01
  | Change of sum of eigenvalues  : -0.6024E+01 eV
  | Change of total energy        :  0.7612E-02 eV

  End self-consistency iteration #     5       :  max(cpu_time)    wall_clock(cpu1)
  | Time for this iteration                    :        0.080 s           0.075 s
  | Charge density update                      :        0.025 s           0.020 s
  | Density mixing                             :        0.001 s           0.001 s
  | Hartree multipole update                   :        0.001 s           0.001 s
  | Hartree multipole summation                :        0.022 s           0.022 s
  | Integration                                :        0.027 s           0.027 s
  | Solution of K.-S. eqns.                    :        0.004 s           0.004 s
  | Total energy evaluation                    :        0.000 s           0.000 s

  Partial memory accounting:
  | Current value for overall tracked memory usage on task 0  :           0.134 MB
  | Peak value for overall tracked memory usage on task 0     :           0.808 MB after allocating wave
  | Largest tracked array allocation on task 0 so far         :           0.504 MB  when allocating gradient_basis_wave
  Note:  These values currently only include a subset of arrays which are explicitly tracked.
  The "true" memory usage will be greater.
------------------------------------------------------------

------------------------------------------------------------
          Begin self-consistency iteration #    6

  Date     :  20200604, Time     :  103236.247
------------------------------------------------------------
  Evaluating new KS density.
  Integration grid: deviation in total charge (<rho> - N_e) =   7.105427E-15
  Pulay mixing of updated and previous charge densities.

  Evaluating partitioned Hartree potential by multipole expansion.
  | Analytical far-field extrapolation by fixed multipoles:
[...]
  |   Hirshfeld dipole moment :      0.05531378
  |   Hirshfeld second moments:     -0.00190025       0.01273574       0.02633835
  |                                  0.01273574      -0.02762984       0.02057568
  |                                  0.02633835       0.02057568       0.01895924
  ----------------------------------------------------------------------
  | Atom    12: O
  |   Hirshfeld charge        :     -0.17464622
  |   Free atom volume        :     23.61338643
  |   Hirshfeld volume        :     21.08783303
  |   Hirshfeld dipole vector :     -0.02894108       0.03042617      -0.02137932
  |   Hirshfeld dipole moment :      0.04712126
  |   Hirshfeld second moments:      0.02498265      -0.00121866       0.01282908
  |                                 -0.00121866       0.05520021       0.04338330
  |                                  0.01282908       0.04338330       0.07164518
  ----------------------------------------------------------------------
  | Atom    13: H
  |   Hirshfeld charge        :      0.18117161
  |   Free atom volume        :      9.95071624
  |   Hirshfeld volume        :      6.41374243
  |   Hirshfeld dipole vector :     -0.03109057      -0.05501791      -0.10441197
  |   Hirshfeld dipole moment :      0.12204693
  |   Hirshfeld second moments:      0.11301968       0.00319666      -0.00624618
  |                                  0.00319666       0.11651185       0.01609288
  |                                 -0.00624618       0.01609288       0.09909772
  ----------------------------------------------------------------------


  Total energy components:
  | Sum of eigenvalues            :        -180.50304720 Ha       -4911.73782066 eV
  | XC energy correction          :         -42.63565316 Ha       -1160.17515144 eV
  | XC potential correction       :          54.81445470 Ha        1491.57720304 eV
  | Free-atom electrostatic energy:        -146.86528697 Ha       -3996.40779353 eV
  | Hartree energy correction     :          -8.28860351 Ha        -225.54437710 eV
  | vdW energy correction         :          -0.00334554 Ha          -0.09103670 eV
  | Entropy correction            :           0.00000000 Ha           0.00000000 eV
  | ---------------------------
  | Total energy                  :        -323.48148167 Ha       -8802.37897639 eV
  | Total energy, T -> 0          :        -323.48148167 Ha       -8802.37897639 eV  <-- do not rely on this value for anything but (periodic) metals
  | Electronic free energy        :        -323.48148167 Ha       -8802.37897639 eV

  Derived energy quantities:
  | Kinetic energy                :         322.57333249 Ha        8777.66697990 eV
  | Electrostatic energy          :        -603.41581547 Ha      -16419.77976815 eV
  | Energy correction for multipole
  | error in Hartree potential    :           0.04066122 Ha           1.10644817 eV
  | Sum of eigenvalues per atom                           :        -377.82598620 eV
  | Total energy (T->0) per atom                          :        -677.10607511 eV  <-- do not rely on this value for anything but (periodic) metals
  | Electronic free energy per atom                       :        -677.10607511 eV

  atomic forces [eV/Ang]:
  -----------------------
  atom #    1
   Hellmann-Feynman              :  0.107113E+01  0.103795E+01  0.238581E+01
   Ionic forces                  :  0.000000E+00  0.000000E+00  0.000000E+00
   Multipole                     : -0.112477E-01  0.518993E+00 -0.352383E+00
   Pulay + GGA                   : -0.140303E+01 -0.464799E+00 -0.205141E+01
   Van der Waals                 :  0.136630E-02  0.471875E-02 -0.949072E-03
   ----------------------------------------------------------------
   Total forces(   1)            : -0.341778E+00  0.109687E+01 -0.189324E-01
  atom #    2
   Hellmann-Feynman              :  0.175804E+00 -0.340457E-01 -0.205358E+00
   Ionic forces                  :  0.000000E+00  0.000000E+00  0.000000E+00
   Multipole                     :  0.200397E+00  0.508833E-01  0.227517E-01
   Pulay + GGA                   : -0.105910E+00 -0.900157E-02  0.332112E-01
   Van der Waals                 :  0.154794E-02 -0.351878E-02 -0.967894E-03
   ----------------------------------------------------------------
   Total forces(   2)            :  0.271838E+00  0.431722E-02 -0.150363E+00
  atom #    3
   Hellmann-Feynman              : -0.280050E+01 -0.107177E+02 -0.226268E+01
   Ionic forces                  :  0.000000E+00  0.000000E+00  0.000000E+00
   Multipole                     : -0.152365E+00  0.760026E-02 -0.859998E+00
   Pulay + GGA                   :  0.319760E+01  0.983401E+01  0.359942E+01
   Van der Waals                 : -0.219021E-03  0.733884E-03 -0.132987E-01
   ----------------------------------------------------------------
   Total forces(   3)            :  0.244521E+00 -0.875370E+00  0.463444E+00
  atom #    4
   Hellmann-Feynman              : -0.186588E-02  0.120769E+00 -0.105876E+00
   Ionic forces                  :  0.000000E+00  0.000000E+00  0.000000E+00
   Multipole                     : -0.702194E-01  0.622344E-01 -0.774005E-01
   Pulay + GGA                   :  0.135473E+00 -0.212492E+00  0.238519E-01
   Van der Waals                 : -0.615773E-03 -0.605759E-02 -0.735025E-02
   ----------------------------------------------------------------
   Total forces(   4)            :  0.627716E-01 -0.355454E-01 -0.166775E+00
  atom #    5
   Hellmann-Feynman              : -0.400292E-01  0.279032E+00 -0.140206E+00
   Ionic forces                  :  0.000000E+00  0.000000E+00  0.000000E+00
   Multipole                     :  0.321356E-01  0.300795E-01 -0.103195E+00
   Pulay + GGA                   : -0.150397E+00 -0.137885E+00  0.110644E+00
   Van der Waals                 : -0.187409E-02 -0.349774E-02  0.376225E-02
   ----------------------------------------------------------------
   Total forces(   5)            : -0.160165E+00  0.167730E+00 -0.128994E+00
  atom #    6
   Hellmann-Feynman              : -0.126331E-01 -0.809772E+00 -0.130343E+00
   Ionic forces                  :  0.000000E+00  0.000000E+00  0.000000E+00
   Multipole                     : -0.900917E-01  0.606861E+00  0.226449E+00
   Pulay + GGA                   :  0.309835E+00 -0.237290E+00 -0.739722E-02
   Van der Waals                 :  0.356126E-02  0.592154E-02  0.473940E-02
   ----------------------------------------------------------------
   Total forces(   6)            :  0.210672E+00 -0.434279E+00  0.934486E-01
  atom #    7
   Hellmann-Feynman              :  0.273959E-01  0.216638E-01  0.254676E+00
   Ionic forces                  :  0.000000E+00  0.000000E+00  0.000000E+00
   Multipole                     :  0.306544E-01  0.766510E-01  0.112264E+00
   Pulay + GGA                   : -0.802576E-01 -0.140408E-01 -0.989180E-01
   Van der Waals                 : -0.279624E-02  0.368205E-02  0.546033E-03
   ----------------------------------------------------------------
   Total forces(   7)            : -0.250035E-01  0.879561E-01  0.268568E+00
  atom #    8
   Hellmann-Feynman              :  0.174703E+00  0.630260E-01 -0.176824E+00
   Ionic forces                  :  0.000000E+00  0.000000E+00  0.000000E+00
   Multipole                     : -0.743569E-02  0.128495E+00 -0.131160E-01
   Pulay + GGA                   : -0.133716E-01 -0.719239E-01  0.632208E-01
   Van der Waals                 : -0.276712E-03  0.546677E-02  0.592507E-02
   ----------------------------------------------------------------
   Total forces(   8)            :  0.153619E+00  0.125064E+00 -0.120794E+00
  atom #    9
   Hellmann-Feynman              : -0.214049E+00 -0.689833E-01  0.468603E-02
   Ionic forces                  :  0.000000E+00  0.000000E+00  0.000000E+00
   Multipole                     : -0.116939E+00  0.388289E-01  0.472105E-01
   Pulay + GGA                   :  0.123021E+00 -0.426524E-01  0.296876E-01
   Van der Waals                 : -0.328675E-02  0.128625E-01  0.772945E-02
   ----------------------------------------------------------------
   Total forces(   9)            : -0.211254E+00 -0.599443E-01  0.893136E-01
  atom #   10
   Hellmann-Feynman              : -0.345482E+01  0.585479E+01 -0.327066E+00
   Ionic forces                  :  0.000000E+00  0.000000E+00  0.000000E+00
   Multipole                     : -0.258157E+00 -0.353991E-01  0.180783E+00
   Pulay + GGA                   :  0.129344E+01 -0.315250E+01  0.110065E+01
   Van der Waals                 :  0.299689E-02 -0.122517E-01 -0.216622E-02
   ----------------------------------------------------------------
   Total forces(  10)            : -0.241654E+01  0.265463E+01  0.952204E+00
  atom #   11
   Hellmann-Feynman              : -0.119704E+02 -0.749594E+00  0.790347E+01
   Ionic forces                  :  0.000000E+00  0.000000E+00  0.000000E+00
   Multipole                     : -0.577605E+00 -0.469273E+00  0.714996E+00
   Pulay + GGA                   :  0.116209E+02  0.210405E+01 -0.804933E+01
   Van der Waals                 : -0.128815E-02 -0.495710E-02  0.201514E-02
   ----------------------------------------------------------------
   Total forces(  11)            : -0.928412E+00  0.880229E+00  0.571150E+00
  atom #   12
   Hellmann-Feynman              :  0.115487E+02 -0.733876E+01  0.714636E+01
   Ionic forces                  :  0.000000E+00  0.000000E+00  0.000000E+00
   Multipole                     :  0.781059E+00 -0.135132E+01  0.385960E+00
   Pulay + GGA                   : -0.993085E+01  0.593014E+01 -0.880019E+01
   Van der Waals                 : -0.210553E-02  0.344157E-02  0.181954E-02
   ----------------------------------------------------------------
   Total forces(  12)            :  0.239679E+01 -0.275649E+01 -0.126605E+01
  atom #   13
   Hellmann-Feynman              :  0.633819E+00 -0.933781E+00 -0.938715E+00
   Ionic forces                  :  0.000000E+00  0.000000E+00  0.000000E+00
   Multipole                     : -0.194768E-01 -0.187276E-01 -0.401284E-01
   Pulay + GGA                   :  0.121762E+00  0.101462E+00  0.387665E+00
   Van der Waals                 :  0.298987E-02 -0.654412E-02 -0.180476E-02
   ----------------------------------------------------------------
   Total forces(  13)            :  0.739094E+00 -0.857591E+00 -0.592983E+00

  Timings for VdW correction (Tkatchenko-Scheffler 2009 or later):
  | CPU time:        0.010 s, Wall clock time:        0.007 s.
  Removing unitary transformations (pure translations, rotations) from forces on atoms.
  Atomic forces before filtering:
  | Net force on center of mass :  -0.385377E-02 -0.242573E-02 -0.676039E-02 eV/A
  | Net torque on center of mass:   0.510897E-02  0.618545E-03 -0.639033E-02 eV
  Atomic forces after filtering:
  | Net force on center of mass :  -0.446015E-15  0.713624E-15  0.713624E-15 eV/A
  | Net torque on center of mass:  -0.519247E-15 -0.944085E-15 -0.377634E-15 eV

  Energy and forces in a compact form:
  | Total energy uncorrected      :         -0.880237897639149E+04 eV
  | Total energy corrected        :         -0.880237897639149E+04 eV  <-- do not rely on this value for anything but (periodic) metals
  | Electronic free energy        :         -0.880237897639149E+04 eV
  Total atomic forces (unitary forces cleaned) [eV/Ang]:
  |   1         -0.341490499582738E+00          0.109710436231130E+01         -0.184139415647735E-01
  |   2          0.272125810081932E+00          0.477650331653579E-02         -0.149826324861568E+00
  |   3          0.244832022703040E+00         -0.875413342408884E+00          0.463954420105476E+00
  |   4          0.629561452465480E-01         -0.357595928118484E-01         -0.166360395646155E+00
  |   5         -0.159908554284975E+00          0.167760995601869E+00         -0.128512805240942E+00
  |   6          0.210691870036308E+00         -0.434045617019860E+00          0.937940747884462E-01
  |   7         -0.250231801396099E-01          0.884183564285080E-01          0.268907001238582E+00
  |   8          0.153469675797884E+00          0.125255867225109E+00         -0.120561009613552E+00
  |   9         -0.211223667012043E+00         -0.599031019955355E-01          0.896500631188413E-01
  |  10         -0.241600899981425E+01          0.265489007538716E+01          0.952883555032556E+00
  |  11         -0.927859065545148E+00          0.880377331699971E+00          0.571832170906595E+00
  |  12          0.239752831727607E+01         -0.275609381377371E+01         -0.126522176434331E+01
  |  13          0.739910125236976E+00         -0.857368023960617E+00         -0.592125043920191E+00

  ------------------------------------ 
  Start decomposition of the XC Energy 
  ------------------------------------ 
  X and C from original XC functional choice 
  Hartree-Fock Energy :          0.000000000 Ha              0.000000000 eV
  X Energy            :        -41.036107763 Ha          -1116.649306733 eV
  C Energy            :         -1.599545393 Ha            -43.525844705 eV
  Total XC Energy     :        -42.635653156 Ha          -1160.175151438 eV
  ------------------------------------ 
  LDA X and C from self-consistent density 
  X Energy LDA        :        -37.253373591 Ha          -1013.715872708 eV
  C Energy LDA        :         -3.138283437 Ha            -85.397037282 eV
  ------------------------------------ 
  End decomposition of the XC Energy 
  ------------------------------------ 

------------------------------------------------------------

------------------------------------------------------------------------------
  Final output of selected total energy values:

  The following output summarizes some interesting total energy values
  at the end of a run (AFTER all relaxation, molecular dynamics, etc.).

  | Total energy of the DFT / Hartree-Fock s.c.f. calculation      :          -8802.378976391 eV
  | Final zero-broadening corrected energy (caution - metals only) :          -8802.378976391 eV
  | For reference only, the value of 1 Hartree used in FHI-aims is :             27.211384500 eV

  Before relying on these values, please be sure to understand exactly which
  total energy value is referred to by a given number. Different objects may
  all carry the same name 'total energy'. Definitions:

  Total energy of the DFT / Hartree-Fock s.c.f. calculation:
  | Note that this energy does not include ANY quantities calculated after the
  | s.c.f. cycle, in particular not ANY RPA, MP2, etc. many-body perturbation terms.

  Final zero-broadening corrected energy:
  | For metallic systems only, a broadening of the occupation numbers at the Fermi
  | level can be extrapolated back to zero broadening by an electron-gas inspired
  | formula. For all systems that are not real metals, this value can be
  | meaningless and should be avoided.

------------------------------------------------------------------------------
  Methods described in the following list of references were used in this FHI-aims run.
  If you publish the results, please make sure to cite these reference if they apply.
  FHI-aims is an academic code, and for our developers (often, Ph.D. students
  and postdocs), scientific credit in the community is essential.
  Thank you for helping us!

  For any use of FHI-aims, please cite:

    Volker Blum, Ralf Gehrke, Felix Hanke, Paula Havu, Ville Havu,
    Xinguo Ren, Karsten Reuter, and Matthias Scheffler
    'Ab initio molecular simulations with numeric atom-centered orbitals'
    Computer Physics Communications 180, 2175-2196 (2009)
    http://dx.doi.org/10.1016/j.cpc.2009.06.022


  The scalable eigensolver library ELPA was used in your run.
  ELPA is essential especially for large systems on hundreds or thousands of CPUs.
  For ELPA, please cite:

    Andreas Marek, Volker Blum, Rainer Johanni, Ville Havu, Bruno Lang,
    Thomas Auckenthaler, Alexander Heinecke, Hans-Joachim Bungartz, and Hermann Lederer,
    'The ELPA Library - Scalable Parallel Eigenvalue Solutions
    for Electronic Structure Theory and Computational Science'
    The Journal of Physics: Condensed Matter 26, 213201 (2014).
    http://dx.doi.org/10.1088/0953-8984/26/21/213201


  The ELSI infrastructure was used in your run to solve the Kohn-Sham electronic structure.
  Please check out http://elsi-interchange.org to learn more.
  If scalability is important for your project, please acknowledge ELSI by citing:

    V. W-z. Yu, F. Corsetti, A. Garcia, W. P. Huhn, M. Jacquelin, W. Jia,
    B. Lange, L. Lin, J. Lu, W. Mi, A. Seifitokaldani, A. Vazquez-Mayagoitia,
    C. Yang, H. Yang, and V. Blum
    'ELSI: A unified software interface for Kohn-Sham electronic structure solvers'
    Computer Physics Communications 222, 267-285 (2018).
    http://dx.doi.org/10.1016/j.cpc.2017.09.007


  For the real-space grid partitioning and parallelization used in this calculation, please cite:

    Ville Havu, Volker Blum, Paula Havu, and Matthias Scheffler,
    'Efficient O(N) integration for all-electron electronic structure calculation'
    'using numerically tabulated basis functions'
    Journal of Computational Physics 228, 8367-8379 (2009).
    http://dx.doi.org/10.1016/j.jcp.2009.08.008

  Of course, there are many other important community references, e.g., those cited in the
  above references. Our list is limited to references that describe implementations in the
  FHI-aims code. The reason is purely practical (length of this list) - please credit others as well.

------------------------------------------------------------
          Leaving FHI-aims.
          Date     :  20200604, Time     :  103237.347

          Computational steps:
          | Number of self-consistency cycles          :           16
          | Number of SCF (re)initializations          :            1

          Detailed time accounting                     :  max(cpu_time)    wall_clock(cpu1)
          | Total time                                 :        1.759 s           1.831 s
          | Preparation time                           :        0.163 s           0.163 s
          | Boundary condition initalization           :        0.000 s           0.000 s
          | Grid partitioning                          :        0.023 s           0.023 s
          | Preloading free-atom quantities on grid    :        0.003 s           0.003 s
          | Free-atom superposition energy             :        0.005 s           0.004 s
          | Total time for integrations                :        0.474 s           0.475 s
          | Total time for solution of K.-S. equations :        0.073 s           0.073 s
          | Total time for density & force components  :        0.479 s           0.381 s
          | Total time for mixing                      :        0.019 s           0.019 s
          | Total time for Hartree multipole update    :        0.021 s           0.021 s
          | Total time for Hartree multipole sum       :        0.434 s           0.434 s
          | Total time for total energy evaluation     :        0.003 s           0.004 s
          | Total time for vdW correction              :        0.010 s           0.007 s

          Partial memory accounting:
          | Residual value for overall tracked memory usage across tasks :           0.000 MB (should be 0.000 MB)
          | Peak values for overall tracked memory usage (after allocating hessian_basis_wave):
          |   Minimum:        1.957 MB (on task 15)
          |   Maximum:        1.998 MB (on task  3)
          |   Average:        1.977 MB
          | Largest tracked array allocation (hessian_basis_wave):
          |   Minimum:        1.000 MB (on task  5)
          |   Maximum:        1.017 MB (on task  3)
          |   Average:        1.009 MB
          Note:  These values currently only include a subset of arrays which are explicitly tracked.
          The "true" memory usage will be greater.

          Have a nice day.
------------------------------------------------------------
