  MPI-parallelism will be employed.
------------------------------------------------------------
          Invoking FHI-aims ...
          Version 171221_1
          Compiled on 2019/09/09 at 14:39:39 on host puhti-login2.bullx.

          When using FHI-aims, please cite the following reference:

          Volker Blum, Ralf Gehrke, Felix Hanke, Paula Havu,
          Ville Havu, Xinguo Ren, Karsten Reuter, and Matthias Scheffler,
          'Ab Initio Molecular Simulations with Numeric Atom-Centered Orbitals',
          Computer Physics Communications 180, 2175-2196 (2009)

          For any questions about FHI-aims, please visit the aimsclub website
          with its forums and wiki. Contributions to both the forums and the
          wiki are warmly encouraged - they are for you, and everyone is welcome there.

------------------------------------------------------------



  Date     :  20200616, Time     :  071633.524
  Time zero on CPU 1             :   0.314150000000000E-01  s.
  Internal wall clock time zero  :           361523793.524  s.

  FHI-aims created a unique identifier for this run for later identification
  aims_uuid : 34A38FB2-A997-4F19-A2C4-33F295167003

  Using       20 parallel tasks.
  Task        0 on host r06c54.bullx reporting.
  Task        1 on host r06c54.bullx reporting.
  Task        2 on host r06c54.bullx reporting.
  Task        3 on host r06c54.bullx reporting.
  Task        4 on host r06c54.bullx reporting.
  Task        5 on host r06c54.bullx reporting.
  Task        6 on host r06c54.bullx reporting.
  Task        7 on host r06c54.bullx reporting.
  Task        8 on host r06c54.bullx reporting.
  Task        9 on host r06c54.bullx reporting.
  Task       10 on host r06c54.bullx reporting.
  Task       11 on host r06c54.bullx reporting.
  Task       12 on host r06c54.bullx reporting.
  Task       13 on host r06c54.bullx reporting.
  Task       14 on host r06c54.bullx reporting.
  Task       15 on host r06c54.bullx reporting.
  Task       16 on host r06c54.bullx reporting.
  Task       17 on host r06c54.bullx reporting.
  Task       18 on host r06c54.bullx reporting.
  Task       19 on host r06c54.bullx reporting.

  Performing system and environment tests:
  | Environment variable OMP_NUM_THREADS correctly set to 1.
  | Stacksize not measured: no C compiler
  | Checking for scalapack...
  | Testing pdtran()...
  | All pdtran() tests passed.

  Obtaining array dimensions for all initial allocations:
  
  -----------------------------------------------------------------------
  Parsing control.in (first pass over file, find array dimensions only).
  The contents of control.in will be repeated verbatim below
  unless switched off by setting 'verbatim_writeout .false.' .
  in the first line of control.in .
  -----------------------------------------------------------------------
  
  #########################################################################################
  #
  #  Volker Blum, FHI 2009 : Test run input file control.in for simple H2O
  #
  #########################################################################################
  #
  #  Physical model
  #
    xc                 pbe
    vdw_correction_hirshfeld
    spin               none
    relativistic       none
    charge             0.
  #
  #  SCF convergence
  #
    occupation_type    gaussian 0.01
    mixer              pulay
      n_max_pulay        10
      charge_mix_param   0.2
    sc_accuracy_rho    1E-5
    sc_accuracy_eev    1E-3
    sc_accuracy_etot   1E-6
    sc_accuracy_forces 1E-4
    sc_iter_limit      100
  #
  #  Relaxation
  #
  #  relax_geometry   bfgs 1.e-3
  #
  ################################################################################
  #
  #  FHI-aims code project
  #  VB, Fritz-Haber Institut, 2009
  #
  #  Suggested "light" defaults for H atom (to be pasted into control.in file)
  #  Be sure to double-check any results obtained with these settings for post-processing,
  #  e.g., with the "tight" defaults and larger basis sets.
  #
  ################################################################################
    species        H
  #     global species definitions
      nucleus             1
      mass                1.00794
  #
      l_hartree           4
  #
      cut_pot             3.5  1.5  1.0
      basis_dep_cutoff    1e-4
  #
      radial_base         24 5.0
      radial_multiplier   1
      angular_grids       specified
        division   0.2421   50
        division   0.3822  110
        division   0.4799  194
        division   0.5341  302
  #      division   0.5626  434
  #      division   0.5922  590
  #      division   0.6542  770
  #      division   0.6868 1202
  #      outer_grid  770
        outer_grid  302
  ################################################################################
  #
  #  Definition of "minimal" basis
  #
  ################################################################################
  #     valence basis states
      valence      1  s   1.
  #     ion occupancy
      ion_occ      1  s   0.5
  ################################################################################
  #
  #  Suggested additional basis functions. For production calculations,
  #  uncomment them one after another (the most important basis functions are
  #  listed first).
  #
  #  Basis constructed for dimers: 0.5 A, 0.7 A, 1.0 A, 1.5 A, 2.5 A
  #
  ################################################################################
  #  "First tier" - improvements: -1014.90 meV to -62.69 meV
       hydro 2 s 2.1
       hydro 2 p 3.5
  #  "Second tier" - improvements: -12.89 meV to -1.83 meV
  #     hydro 1 s 0.85
  #     hydro 2 p 3.7
  #     hydro 2 s 1.2
  #     hydro 3 d 7
  #  "Third tier" - improvements: -0.25 meV to -0.12 meV
  #     hydro 4 f 11.2
  #     hydro 3 p 4.8
  #     hydro 4 d 9
  #     hydro 3 s 3.2
  ################################################################################
  #
  #  FHI-aims code project
  #  VB, Fritz-Haber Institut, 2009
  #
  #  Suggested "light" defaults for C atom (to be pasted into control.in file)
  #  Be sure to double-check any results obtained with these settings for post-processing,
  #  e.g., with the "tight" defaults and larger basis sets.
  #
  ################################################################################
    species        C
  #     global species definitions
      nucleus             6
      mass                12.0107
  #
      l_hartree           4
  #
      cut_pot             3.5  1.5  1.0
      basis_dep_cutoff    1e-4
  #
      radial_base         34 5.0
      radial_multiplier   1
      angular_grids specified
        division   0.3326   50
        division   0.5710  110
        division   0.7727  194
        division   0.8772  302
  #      division   0.9334  434
  #      division   0.9625  590
  #      division   0.9924  770
  #      division   1.0230  974
  #      division   1.4589 1202
  #     outer_grid  974
       outer_grid 302
  ################################################################################
  #
  #  Definition of "minimal" basis
  #
  ################################################################################
  #     valence basis states
      valence      2  s   2.
      valence      2  p   2.
  #     ion occupancy
      ion_occ      2  s   1.
      ion_occ      2  p   1.
  ################################################################################
  #
  #  Suggested additional basis functions. For production calculations,
  #  uncomment them one after another (the most important basis functions are
  #  listed first).
  #
  #  Constructed for dimers: 1.0 A, 1.25 A, 1.5 A, 2.0 A, 3.0 A
  #
  ################################################################################
  #  "First tier" - improvements: -1214.57 meV to -155.61 meV
       hydro 2 p 1.7
       hydro 3 d 6
       hydro 2 s 4.9
  #  "Second tier" - improvements: -67.75 meV to -5.23 meV
  #     hydro 4 f 9.8
  #     hydro 3 p 5.2
  #     hydro 3 s 4.3
  #     hydro 5 g 14.4
  #     hydro 3 d 6.2
  #  "Third tier" - improvements: -2.43 meV to -0.60 meV
  #     hydro 2 p 5.6
  #     hydro 2 s 1.4
  #     hydro 3 d 4.9
  #     hydro 4 f 11.2
  #  "Fourth tier" - improvements: -0.39 meV to -0.18 meV
  #     hydro 2 p 2.1
  #     hydro 5 g 16.4
  #     hydro 4 d 13.2
  #     hydro 3 s 13.6
  #     hydro 4 f 17.6
  #  Further basis functions - improvements: -0.08 meV and below
  #     hydro 3 s 2
  #     hydro 3 p 6
  #     hydro 4 d 20
  ################################################################################
  #
  #  FHI-aims code project
  #  VB, Fritz-Haber Institut, 2009
  #
  #  Suggested "light" defaults for N atom (to be pasted into control.in file)
  #  Be sure to double-check any results obtained with these settings for post-processing,
  #  e.g., with the "tight" defaults and larger basis sets.
  #
  ################################################################################
    species        N
  #     global species definitions
      nucleus             7
      mass                14.0067
  #
      l_hartree           4
  #
      cut_pot             3.5  1.5  1.0
      basis_dep_cutoff    1e-4
  #
      radial_base         35 5.0
      radial_multiplier   1
      angular_grids       specified
        division   0.2599   50
        division   0.4601  110
        division   0.5885  194
        division   0.6503  302
  #      division   0.6939  434
  #      division   0.7396  590
  #      division   0.7632  770
  #      division   0.8122  974
  #      division   1.1604 1202
  #      outer_grid  974
        outer_grid  302
  ################################################################################
  #
  #  Definition of "minimal" basis
  #
  ################################################################################
  #     valence basis states
      valence      2  s   2.
      valence      2  p   3.
  #     ion occupancy
      ion_occ      2  s   1.
      ion_occ      2  p   2.
  ################################################################################
  #
  #  Suggested additional basis functions. For production calculations,
  #  uncomment them one after another (the most important basis functions are
  #  listed first).
  #
  #  Constructed for dimers: 1.0 A, 1.1 A, 1.5 A, 2.0 A, 3.0 A
  #
  ################################################################################
  #  "First tier" - improvements: -1193.42 meV to -220.60 meV
       hydro 2 p 1.8
       hydro 3 d 6.8
       hydro 3 s 5.8
  #  "Second tier" - improvements: -80.21 meV to -6.86 meV
  #     hydro 4 f 10.8
  #     hydro 3 p 5.8
  #     hydro 1 s 0.8
  #     hydro 5 g 16
  #     hydro 3 d 4.9
  #  "Third tier" - improvements: -4.29 meV to -0.53 meV
  #     hydro 3 s 16
  #     ionic 2 p auto
  #     hydro 3 d 6.6
  #     hydro 4 f 11.6
  #  "Fourth tier" - improvements: -0.75 meV to -0.25 meV
  #     hydro 2 p 4.5
  #     hydro 2 s 2.4
  #     hydro 5 g 14.4
  #     hydro 4 d 14.4
  #     hydro 4 f 16.8
  # Further basis functions - -0.21 meV and below
  #     hydro 3 p 14.8
  #     hydro 3 s 4.4
  #     hydro 3 d 19.6
  #     hydro 5 g 12.8
  ################################################################################
  #
  #  FHI-aims code project
  #  VB, Fritz-Haber Institut, 2009
  #
  #  Suggested "light" defaults for O atom (to be pasted into control.in file)
  #  Be sure to double-check any results obtained with these settings for post-processing,
  #  e.g., with the "tight" defaults and larger basis sets.
  #
  ################################################################################
    species        O
  #     global species definitions
      nucleus             8
      mass                15.9994
  #
      l_hartree           4
  #
      cut_pot             3.5  1.5  1.0
      basis_dep_cutoff    1e-4
  #
      radial_base         36 5.0
      radial_multiplier   1
       angular_grids specified
        division   0.2659   50
        division   0.4451  110
        division   0.6052  194
        division   0.7543  302
  #      division   0.8014  434
  #      division   0.8507  590
  #      division   0.8762  770
  #      division   0.9023  974
  #      division   1.2339 1202
  #      outer_grid 974
        outer_grid 302
  ################################################################################
  #
  #  Definition of "minimal" basis
  #
  ################################################################################
  #     valence basis states
      valence      2  s   2.
      valence      2  p   4.
  #     ion occupancy
      ion_occ      2  s   1.
      ion_occ      2  p   3.
  ################################################################################
  #
  #  Suggested additional basis functions. For production calculations,
  #  uncomment them one after another (the most important basis functions are
  #  listed first).
  #
  #  Constructed for dimers: 1.0 A, 1.208 A, 1.5 A, 2.0 A, 3.0 A
  #
  ################################################################################
  #  "First tier" - improvements: -699.05 meV to -159.38 meV
       hydro 2 p 1.8
       hydro 3 d 7.6
       hydro 3 s 6.4
  #  "Second tier" - improvements: -49.91 meV to -5.39 meV
  #     hydro 4 f 11.6
  #     hydro 3 p 6.2
  #     hydro 3 d 5.6
  #     hydro 5 g 17.6
  #     hydro 1 s 0.75
  #  "Third tier" - improvements: -2.83 meV to -0.50 meV
  #     ionic 2 p auto
  #     hydro 4 f 10.8
  #     hydro 4 d 4.7
  #     hydro 2 s 6.8
  #  "Fourth tier" - improvements: -0.40 meV to -0.12 meV
  #     hydro 3 p 5
  #     hydro 3 s 3.3
  #     hydro 5 g 15.6
  #     hydro 4 f 17.6
  #     hydro 4 d 14
  # Further basis functions - -0.08 meV and below
  #     hydro 3 s 2.1
  #     hydro 4 d 11.6
  #     hydro 3 p 16
  #     hydro 2 s 17.2
  
  -----------------------------------------------------------------------
  Completed first pass over input file control.in .
  -----------------------------------------------------------------------
  
  
  -----------------------------------------------------------------------
  Parsing geometry.in (first pass over file, find array dimensions only).
  The contents of geometry.in will be repeated verbatim below
  unless switched off by setting 'verbatim_writeout .false.' .
  in the first line of geometry.in .
  -----------------------------------------------------------------------
  
  atom  0.00000 0.00000 0.00000 C
  atom  1.09300 0.00000 0.00000 H
  atom  -0.47961 0.00000 -1.41207 N
  atom  0.07204 -0.67352 -1.94487 H
  atom  -1.46282 -0.26321 -1.42332 H
  atom  -0.49584 1.26211 0.72868 C
  atom  0.33892 1.77787 1.20902 H
  atom  -0.96784 1.94940 0.02271 H
  atom  -1.22710 0.99703 1.49585 H
  atom  -0.39425 -1.28861 0.74398 C
  atom  -1.28276 -1.39259 1.55576 O
  atom  0.30230 -2.34213 0.45818 O
  atom  -0.11362 -2.96072 1.08214 H
  
  -----------------------------------------------------------------------
  Completed first pass over input file geometry.in .
  -----------------------------------------------------------------------
  

  Basic array size parameters:
  | Number of species                 :        4
  | Number of atoms                   :       13
  | Max. basis fn. angular momentum   :        2
  | Max. atomic/ionic basis occupied n:        2
  | Max. number of basis fn. types    :        2
  | Max. radial fns per species/type  :        3
  | Max. logarithmic grid size        :     1301
  | Max. radial integration grid size :       36
  | Max. angular integration grid size:      302
  | Max. angular grid division number :        8
  | Radial grid for Hartree potential :     1301
  | Number of spin channels           :        1

------------------------------------------------------------
          Reading file control.in.
------------------------------------------------------------
  XC: Using PBE gradient-corrected functionals.
  Spin treatment: No spin polarisation.
  Non-relativistic treatment of kinetic energy.
  Charge =   0.000000E+00: Neutral system requested explicitly.
  Occupation type: Gaussian broadening, width =   0.100000E-01 eV.
  Using pulay charge density mixing.
  Pulay mixing - number of memorized iterations:   10
  Charge density mixing - mixing parameter:     0.2000
  Convergence accuracy of self-consistent charge density:  0.1000E-04
  Convergence accuracy of sum of eigenvalues:  0.1000E-02
  Convergence accuracy of total energy:  0.1000E-05
  Convergence accuracy of forces:  0.1000E-03
  Maximum number of s.-c. iterations  :   100
 
  Reading configuration options for species H                   .
  | Found nuclear charge :   1.0000
  | Found atomic mass :    1.00794000000000      amu
  | Found l_max for Hartree potential  :   4
  | Found cutoff potl. onset [A], width [A], scale factor :    3.50000    1.50000    1.00000
  | Threshold for basis-dependent cutoff potential is   0.100000E-03
  | Found data for basic radial integration grid :    24 points, outermost radius =    5.000 A
  | Found multiplier for basic radial grid :   1
  | Found angular grid specification: user-specified.
  | Specified grid contains     5 separate shells.
  | Check grid settings after all constraints further below.
  | Found free-atom valence shell :  1 s   1.000
  | No ionic wave fns used. Skipping ion_occ.
  | Found hydrogenic basis function :  2 s   2.100
  | Found hydrogenic basis function :  2 p   3.500
  Species H                   : Missing cutoff potential type.
  Defaulting to exp(1/x)/(1-x)^2 type cutoff potential.
  Species H : No 'logarithmic' tag. Using default grid for free atom:
  | Default logarithmic grid data [bohr] : 0.1000E-03 0.1000E+03 0.1012E+01
  Species H : On-site basis accuracy parameter (for Gram-Schmidt orthonormalisation) not specified.
  Using default value basis_acc =  0.1000000E-03.
  Species H                   : Using default innermost maximum threshold i_radial=  2 for radial functions.
  Species H                   : Default cutoff onset for free atom density etc. : 0.35000000E+01 AA.
  Species H                   : Basic radial grid will be enhanced according to radial_multiplier =   1, to contain    24 grid points.
 
  Reading configuration options for species C                   .
  | Found nuclear charge :   6.0000
  | Found atomic mass :    12.0107000000000      amu
  | Found l_max for Hartree potential  :   4
  | Found cutoff potl. onset [A], width [A], scale factor :    3.50000    1.50000    1.00000
  | Threshold for basis-dependent cutoff potential is   0.100000E-03
  | Found data for basic radial integration grid :    34 points, outermost radius =    5.000 A
  | Found multiplier for basic radial grid :   1
  | Found angular grid specification: user-specified.
  | Specified grid contains     5 separate shells.
  | Check grid settings after all constraints further below.
  | Found free-atom valence shell :  2 s   2.000
  | Found free-atom valence shell :  2 p   2.000
  | No ionic wave fns used. Skipping ion_occ.
  | No ionic wave fns used. Skipping ion_occ.
  | Found hydrogenic basis function :  2 p   1.700
  | Found hydrogenic basis function :  3 d   6.000
  | Found hydrogenic basis function :  2 s   4.900
  Species C                   : Missing cutoff potential type.
  Defaulting to exp(1/x)/(1-x)^2 type cutoff potential.
  Species C : No 'logarithmic' tag. Using default grid for free atom:
  | Default logarithmic grid data [bohr] : 0.1000E-03 0.1000E+03 0.1012E+01
  Species C : On-site basis accuracy parameter (for Gram-Schmidt orthonormalisation) not specified.
  Using default value basis_acc =  0.1000000E-03.
  Species C                   : Using default innermost maximum threshold i_radial=  2 for radial functions.
  Species C                   : Default cutoff onset for free atom density etc. : 0.35000000E+01 AA.
  Species C                   : Basic radial grid will be enhanced according to radial_multiplier =   1, to contain    34 grid points.
 
  Reading configuration options for species N                   .
  | Found nuclear charge :   7.0000
  | Found atomic mass :    14.0067000000000      amu
  | Found l_max for Hartree potential  :   4
  | Found cutoff potl. onset [A], width [A], scale factor :    3.50000    1.50000    1.00000
  | Threshold for basis-dependent cutoff potential is   0.100000E-03
  | Found data for basic radial integration grid :    35 points, outermost radius =    5.000 A
  | Found multiplier for basic radial grid :   1
  | Found angular grid specification: user-specified.
  | Specified grid contains     5 separate shells.
  | Check grid settings after all constraints further below.
  | Found free-atom valence shell :  2 s   2.000
  | Found free-atom valence shell :  2 p   3.000
  | No ionic wave fns used. Skipping ion_occ.
  | No ionic wave fns used. Skipping ion_occ.
  | Found hydrogenic basis function :  2 p   1.800
  | Found hydrogenic basis function :  3 d   6.800
  | Found hydrogenic basis function :  3 s   5.800
  Species N                   : Missing cutoff potential type.
  Defaulting to exp(1/x)/(1-x)^2 type cutoff potential.
  Species N : No 'logarithmic' tag. Using default grid for free atom:
  | Default logarithmic grid data [bohr] : 0.1000E-03 0.1000E+03 0.1012E+01
  Species N : On-site basis accuracy parameter (for Gram-Schmidt orthonormalisation) not specified.
  Using default value basis_acc =  0.1000000E-03.
  Species N                   : Using default innermost maximum threshold i_radial=  2 for radial functions.
  Species N                   : Default cutoff onset for free atom density etc. : 0.35000000E+01 AA.
  Species N                   : Basic radial grid will be enhanced according to radial_multiplier =   1, to contain    35 grid points.
 
  Reading configuration options for species O                   .
  | Found nuclear charge :   8.0000
  | Found atomic mass :    15.9994000000000      amu
  | Found l_max for Hartree potential  :   4
  | Found cutoff potl. onset [A], width [A], scale factor :    3.50000    1.50000    1.00000
  | Threshold for basis-dependent cutoff potential is   0.100000E-03
  | Found data for basic radial integration grid :    36 points, outermost radius =    5.000 A
  | Found multiplier for basic radial grid :   1
  | Found angular grid specification: user-specified.
  | Specified grid contains     5 separate shells.
  | Check grid settings after all constraints further below.
  | Found free-atom valence shell :  2 s   2.000
  | Found free-atom valence shell :  2 p   4.000
  | No ionic wave fns used. Skipping ion_occ.
  | No ionic wave fns used. Skipping ion_occ.
  | Found hydrogenic basis function :  2 p   1.800
  | Found hydrogenic basis function :  3 d   7.600
  | Found hydrogenic basis function :  3 s   6.400
  Species O                   : Missing cutoff potential type.
  Defaulting to exp(1/x)/(1-x)^2 type cutoff potential.
  Species O : No 'logarithmic' tag. Using default grid for free atom:
  | Default logarithmic grid data [bohr] : 0.1000E-03 0.1000E+03 0.1012E+01
  Species O : On-site basis accuracy parameter (for Gram-Schmidt orthonormalisation) not specified.
  Using default value basis_acc =  0.1000000E-03.
  Species O                   : Using default innermost maximum threshold i_radial=  2 for radial functions.
  Species O                   : Default cutoff onset for free atom density etc. : 0.35000000E+01 AA.
  Species O                   : Basic radial grid will be enhanced according to radial_multiplier =   1, to contain    36 grid points.
 
  Finished reading input file 'control.in'. Consistency checks are next.
 
  MPI_IN_PLACE appears to work with this MPI implementation.
  | Keeping use_mpi_in_place .true. (see manual).
  Target number of points in a grid batch is not set. Defaulting to  100
  Method for grid partitioning is not set. Defaulting to parallel hash+maxmin partitioning.
  Batch size limit is not set. Defaulting to    200
  By default, will store active basis functions for each batch.
  If in need of memory, prune_basis_once .false. can be used to disable this option.
  communication_type for Hartree potential was not specified.
  Defaulting to calc_hartree .
  Pulay mixer: Number of initial linear mixing iterations not set.
  Defaulting to    0 iterations.
  Work space size for distributed Hartree potential not set.
  Defaulting to   0.200000E+03 MB.
  Algorithm-dependent basis array size parameters:
  | n_max_pulay                         :       10
  Presetting      1001 iterations before the initial mixing cycle
  is restarted anyway using the sc_init_iter criterion / keyword.
  Presetting a factor      1.000 between actual scf density residual
  and density convergence criterion sc_accuracy_rho below which sc_init_iter
  takes no effect.
  Geometry relaxation not requested: no relaxation will be performed.
  Handling of forces: Unphysical translation and rotation will be removed from forces.
  No accuracy limit for integral partition fn. given. Defaulting to  0.1000E-14.
  No threshold value for u(r) in integrations given. Defaulting to  0.1000E-05.
  No accuracy for occupation numbers given. Defaulting to  0.1000E-12.
  No threshold value for occupation numbers given. Defaulting to  0.0000E+00.
  No accuracy for fermi level given. Defaulting to  0.1000E-19.
  Maximum # of iterations to find E_F not set. Defaulting to  200.
  Preferred method for the eigenvalue solver ('KS_method') not specified in 'control.in'.
  Calling BLACS routine to test compilation state
  Since ScaLAPACK support is enabled, defaulting to 'elsi'.
  Will not use alltoall communication since running on < 1024 CPUs.
  Threshold for basis singularities not set.
  Default threshold for basis singularities:  0.1000E-04
  partition_type (choice of integration weights) for integrals was not specified.
  | Using a version of the partition function of Stratmann and coworkers ('stratmann_smoother').
  | At each grid point, the set of atoms used to build the partition table is smoothly restricted to
  | only those atoms whose free-atom density would be non-zero at that grid point.
  Partitioning for Hartree potential was not defined. Using partition_type for integrals.
  | Adjusted default value of keyword multip_moments_threshold to:       0.10000000E-11
  | This value may affect high angular momentum components of the Hartree potential in periodic systems.
  No q(lm)/r^(l+1) cutoff set for long-range Hartree potential.
  | Using default value of  0.100000E-09 .
  | Verify using the multipole_threshold keyword.
  Defaulting to new monopole extrapolation.
  Density update method: automatic selection selected.
------------------------------------------------------------


------------------------------------------------------------
          Reading geometry description geometry.in.
------------------------------------------------------------
  Input structure read successfully.
  The structure contains       13 atoms,  and a total of         48.000 electrons.

  Input geometry:
  | No unit cell requested.
  | Atomic structure:
  |       Atom                x [A]            y [A]            z [A]
  |    1: Species C             0.00000000        0.00000000        0.00000000
  |    2: Species H             1.09300000        0.00000000        0.00000000
  |    3: Species N            -0.47961000        0.00000000       -1.41207000
  |    4: Species H             0.07204000       -0.67352000       -1.94487000
  |    5: Species H            -1.46282000       -0.26321000       -1.42332000
  |    6: Species C            -0.49584000        1.26211000        0.72868000
  |    7: Species H             0.33892000        1.77787000        1.20902000
  |    8: Species H            -0.96784000        1.94940000        0.02271000
  |    9: Species H            -1.22710000        0.99703000        1.49585000
  |   10: Species C            -0.39425000       -1.28861000        0.74398000
  |   11: Species O            -1.28276000       -1.39259000        1.55576000
  |   12: Species O             0.30230000       -2.34213000        0.45818000
  |   13: Species H            -0.11362000       -2.96072000        1.08214000
  |

  | The smallest distance between any two atoms is         0.97209522 AA.
  |
  | The first atom of this pair is atom number                     12 .
  | The second atom of this pair is atom number                    13 .

  Number of empty states per atom not set in control.in - providing a guess from actual geometry.
  | Total number of empty states used during s.c.f. cycle:       29
  If you use a very high smearing, use empty_states (per atom!) in control.in to increase this value.

  Structure-dependent array size parameters: 
  | Maximum number of distinct radial functions  :       21
  | Maximum number of basis functions            :      119
  | Number of Kohn-Sham states (occupied + empty):       53
------------------------------------------------------------

------------------------------------------------------------
          Preparing all fixed parts of the calculation.
------------------------------------------------------------
  Determining machine precision:
    2.225073858507201E-308
  Setting up grids for atomic and cluster calculations.

  Creating wave function, potential, and density for free atoms.

  Species: H

  List of occupied orbitals and eigenvalues:
    n    l              occ      energy [Ha]    energy [eV]
    1    0           1.0000        -0.237589        -6.4651


  Species: C

  List of occupied orbitals and eigenvalues:
    n    l              occ      energy [Ha]    energy [eV]
    1    0           2.0000       -10.038835      -273.1706
    2    0           2.0000        -0.502696       -13.6791
    2    1           2.0000        -0.191971        -5.2238


  Species: N

  List of occupied orbitals and eigenvalues:
    n    l              occ      energy [Ha]    energy [eV]
    1    0           2.0000       -14.128000      -384.4424
    2    0           2.0000        -0.681077       -18.5330
    2    1           3.0000        -0.259788        -7.0692


  Species: O

  List of occupied orbitals and eigenvalues:
    n    l              occ      energy [Ha]    energy [eV]
    1    0           2.0000       -18.898188      -514.2459
    2    0           2.0000        -0.878505       -23.9053
    2    1           4.0000        -0.331779        -9.0282

  Creating fixed part of basis set: Ionic, confined, hydrogenic.
 
  H                    hydrogenic:
 
  List of hydrogenic basis orbitals: 
    n    l      effective z      eigenvalue [eV]  inner max. [A]     outer max. [A]     outer radius [A]   
    2    0         2.100000       -14.9728           0.193243           1.317208           4.583499
    2    1         3.500000       -41.6669           0.602369           0.602369           3.723403
 
 
  C                    hydrogenic:
 
  List of hydrogenic basis orbitals: 
    n    l      effective z      eigenvalue [eV]  inner max. [A]     outer max. [A]     outer radius [A]   
    2    1         1.700000        -9.7616           1.230570           1.230570           4.607917
    3    2         6.000000       -54.4224           0.792453           0.792453           3.883070
    2    0         4.900000       -81.6679           0.082559           0.562749           3.078220
 
 
  N                    hydrogenic:
 
  List of hydrogenic basis orbitals: 
    n    l      effective z      eigenvalue [eV]  inner max. [A]     outer max. [A]     outer radius [A]   
    2    1         1.800000       -10.9749           1.177451           1.177451           4.573712
    3    2         6.800000       -69.9026           0.704619           0.704619           3.538137
    3    0         5.800000       -50.8545           0.067388           1.191934           4.250239
 
 
  O                    hydrogenic:
 
  List of hydrogenic basis orbitals: 
    n    l      effective z      eigenvalue [eV]  inner max. [A]     outer max. [A]     outer radius [A]   
    2    1         1.800000       -10.9749           1.164242           1.164242           4.578029
    3    2         7.600000       -87.3180           0.624125           0.624125           3.251020
    3    0         6.400000       -61.9207           0.061167           1.081902           4.001998
 

  Adding cutoff potential to free-atom effective potential.
  Creating atomic-like basis functions for current effective potential.

  Species H                   :

  List of atomic basis orbitals and eigenvalues:
    n    l      energy [Ha]    energy [eV]    outer radius [A]
    1    0        -0.237589        -6.4651       4.527807


  Species C                   :

  List of atomic basis orbitals and eigenvalues:
    n    l      energy [Ha]    energy [eV]    outer radius [A]
    1    0       -10.038835      -273.1706       1.934409
    2    0        -0.502696       -13.6791       4.496620
    2    1        -0.191971        -5.2238       4.551928


  Species N                   :

  List of atomic basis orbitals and eigenvalues:
    n    l      energy [Ha]    energy [eV]    outer radius [A]
    1    0       -14.128000      -384.4424       1.637919
    2    0        -0.681077       -18.5330       4.463241
    2    1        -0.259788        -7.0692       4.518138


  Species O                   :

  List of atomic basis orbitals and eigenvalues:
    n    l      energy [Ha]    energy [eV]    outer radius [A]
    1    0       -18.898188      -514.2459       1.415765
    2    0        -0.878505       -23.9053       4.413171
    2    1        -0.331779        -9.0282       4.522403

  Assembling full basis from fixed parts.
  | Species H :   atomic orbital   1 s accepted.
  | Species H :    hydro orbital   2 s accepted.
  | Species H :    hydro orbital   2 p accepted.
  | Species C :   atomic orbital   1 s accepted.
  | Species C :    hydro orbital   2 s accepted.
  | Species C :   atomic orbital   2 s accepted.
  | Species C :   atomic orbital   2 p accepted.
  | Species C :    hydro orbital   2 p accepted.
  | Species C :    hydro orbital   3 d accepted.
  | Species N :   atomic orbital   1 s accepted.
  | Species N :    hydro orbital   3 s accepted.
  | Species N :   atomic orbital   2 s accepted.
  | Species N :   atomic orbital   2 p accepted.
  | Species N :    hydro orbital   2 p accepted.
  | Species N :    hydro orbital   3 d accepted.
  | Species O :   atomic orbital   1 s accepted.
  | Species O :    hydro orbital   3 s accepted.
  | Species O :   atomic orbital   2 s accepted.
  | Species O :   atomic orbital   2 p accepted.
  | Species O :    hydro orbital   2 p accepted.
  | Species O :    hydro orbital   3 d accepted.
 
  Basis size parameters after reduction:
  | Total number of radial functions:       21
  | Total number of basis functions :      119
 
  Per-task memory consumption for arrays in subroutine allocate_ext:
  |           5.250512MB.
  Testing on-site integration grid accuracy.
  |  Species  Function  <phi|h_atom|phi> (log., in eV)  <phi|h_atom|phi> (rad., in eV)
           1        1                 -6.4663192853                 -6.4651273558
           1        2                 13.7111246313                 13.7170609718
           1        3                 25.2673269279                 25.2674696378
           2        4               -273.1705927641               -273.1705631568
           2        5                -10.7109323383                -10.7107120029
           2        6                 17.4381822266                 17.4352413244
           2        7                 -5.2255326521                 -5.2270484734
           2        8                  8.6835629259                  8.6603288385
           2        9                 27.4952418996                 27.4953360207
           3       10               -384.4424306495               -384.4423701208
           3       11                 12.5842251816                 12.5842222903
           3       12                -15.7264628251                -15.7264433455
           3       13                 -7.0696854293                 -7.0701769954
           3       14                  8.8090390882                  8.7901077751
           3       15                 35.9586762123                 35.9588528632
           4       16               -514.2458688638               -514.2457643834
           4       17                 15.1795651126                 15.1795290741
           4       18                -21.5359799773                -21.5360846186
           4       19                 -9.0283069236                 -9.0284644067
           4       20                  8.3027758564                  8.2834874195
           4       21                 45.8339351984                 45.8338762259

  Preparing densities etc. for the partition functions (integrals / Hartree potential).

  Preparations completed.
  max(cpu_time)          :      0.163 s.
  Wall clock time (cpu1) :      0.162 s.
------------------------------------------------------------

------------------------------------------------------------
          Begin self-consistency loop: Initialization.

          Date     :  20200616, Time     :  071633.729
------------------------------------------------------------

  Initializing index lists of integration centers etc. from given atomic structure:
  | Number of centers in hartree potential         :        13
  | Number of centers in hartree multipole         :        13
  | Number of centers in electron density summation:        13
  | Number of centers in basis integrals           :        13
  | Number of centers in integrals                 :        13
  | Number of centers in hamiltonian               :        13
  * Using 20 tasks for Scalapack Eigenvalue solver.
  Detailed listing of tasks and assigned k-points:
  (for non-periodic systems, the "k-point" denotes an internal label only)
   Task     0 k-point     1 on r06c54.bullx
   Task     1 k-point     1 on r06c54.bullx
   Task     2 k-point     1 on r06c54.bullx
   Task     3 k-point     1 on r06c54.bullx
   Task     4 k-point     1 on r06c54.bullx
   Task     5 k-point     1 on r06c54.bullx
   Task     6 k-point     1 on r06c54.bullx
   Task     7 k-point     1 on r06c54.bullx
   Task     8 k-point     1 on r06c54.bullx
   Task     9 k-point     1 on r06c54.bullx
   Task    10 k-point     1 on r06c54.bullx
   Task    11 k-point     1 on r06c54.bullx
   Task    12 k-point     1 on r06c54.bullx
   Task    13 k-point     1 on r06c54.bullx
   Task    14 k-point     1 on r06c54.bullx
   Task    15 k-point     1 on r06c54.bullx
   Task    16 k-point     1 on r06c54.bullx
   Task    17 k-point     1 on r06c54.bullx
   Task    18 k-point     1 on r06c54.bullx
   Task    19 k-point     1 on r06c54.bullx
  Tasks:    20 split into      5 X      4 BLACS grid
  Calculating block size based on n_basis =          119  max_nprow =            5  max_npcol =            4
  ScaLAPACK block size set to:           16
  Allocating        0.008 MB for ovlp
  Allocating        0.008 MB for ham
  Allocating        0.008 MB for eigenvec
  Required Scalapack workspace - INTEGER:            1  REAL:             1
  Partitioning the integration grid into batches with parallel hashing+maxmin method.
  | Number of batches:      885
  | Maximal batch size:     189
  | Minimal batch size:      51
  | Average batch size:      78.696
  | Standard deviation of batch sizes:      21.920

  Integration load balanced across    20 MPI tasks.
  Work distribution over tasks is as follows:
  Task     0 has       3566 integration points.
  Task     1 has       3465 integration points.
  Task     2 has       3550 integration points.
  Task     3 has       3570 integration points.
  Task     4 has       3442 integration points.
  Task     5 has       3433 integration points.
  Task     6 has       3522 integration points.
  Task     7 has       3527 integration points.
  Task     8 has       3446 integration points.
  Task     9 has       3430 integration points.
  Task    10 has       3441 integration points.
  Task    11 has       3537 integration points.
  Task    12 has       3439 integration points.
  Task    13 has       3436 integration points.
  Task    14 has       3430 integration points.
  Task    15 has       3542 integration points.
  Task    16 has       3459 integration points.
  Task    17 has       3434 integration points.
  Task    18 has       3534 integration points.
  Task    19 has       3443 integration points.
  Initializing partition tables, free-atom densities, potentials, etc. across the integration grid (initialize_grid_storage).
  | initialize_grid_storage: Actual outermost partition radius vs. multipole_radius_free
  | (-- VB: in principle, multipole_radius_free should be larger, hence this output)
  | Species        1: Confinement radius =              4.999999999999999 AA, multipole_radius_free =              5.054417573612229 AA.
  | Species        1: outer_partition_radius set to              5.054417573612229 AA .
  | Species        2: Confinement radius =              4.999999999999999 AA, multipole_radius_free =              5.019602836301480 AA.
  | Species        2: outer_partition_radius set to              5.019602836301480 AA .
  | Species        3: Confinement radius =              4.999999999999999 AA, multipole_radius_free =              5.043624274424571 AA.
  | Species        3: outer_partition_radius set to              5.043624274424571 AA .
  | Species        4: Confinement radius =              4.999999999999999 AA, multipole_radius_free =              5.048384829883283 AA.
  | Species        4: outer_partition_radius set to              5.048384829883283 AA .
  | Original list of interatomic distances with          13 x         13 entries is created.
  | Net number of integration points:    69646
  | of which are non-zero points    :    59808
  Renormalizing the initial density to the exact electron count on the 3D integration grid.
  | Initial density: Formal number of electrons (from input files) :      48.0000000000
  | Integrated number of electrons on 3D grid     :      47.9999227112
  | Charge integration error                      :      -0.0000772888
  | Normalization factor for density and gradient :       1.0000016102
  Obtaining max. number of non-zero basis functions in each batch (get_n_compute_maxes).
  | Maximal number of non-zero basis functions:      119 in task     0
  | Maximal number of non-zero basis functions:      118 in task     1
  | Maximal number of non-zero basis functions:      118 in task     2
  | Maximal number of non-zero basis functions:      119 in task     3
  | Maximal number of non-zero basis functions:      118 in task     4
  | Maximal number of non-zero basis functions:      117 in task     5
  | Maximal number of non-zero basis functions:      119 in task     6
  | Maximal number of non-zero basis functions:      118 in task     7
  | Maximal number of non-zero basis functions:      117 in task     8
  | Maximal number of non-zero basis functions:      118 in task     9
  | Maximal number of non-zero basis functions:      118 in task    10
  | Maximal number of non-zero basis functions:      118 in task    11
  | Maximal number of non-zero basis functions:      117 in task    12
  | Maximal number of non-zero basis functions:      118 in task    13
  | Maximal number of non-zero basis functions:      118 in task    14
  | Maximal number of non-zero basis functions:      117 in task    15
  | Maximal number of non-zero basis functions:      119 in task    16
  | Maximal number of non-zero basis functions:      117 in task    17
  | Maximal number of non-zero basis functions:      118 in task    18
  | Maximal number of non-zero basis functions:      119 in task    19
  Selecting the method for density update.
  Loop over occupied states selected for charge density update.
  Allocating        0.050 MB for KS_eigenvector
  Integrating Hamiltonian matrix: batch-based integration.
  Time summed over all CPUs for integration: real work        0.518 s, elapsed        0.547 s
  Integrating overlap matrix.
  Time summed over all CPUs for integration: real work        0.216 s, elapsed        0.230 s
  Deallocating overlap matrix.

  Updating Kohn-Sham eigenvalues and eigenvectors using ELSI and the ELPA eigensolver.
  ELPA settings:
  | ELPA solver          1
  | Time full => band           :     0.001 s
  | Time band => tridiagonal    :     0.001 s
  | Time solve tridiagonal      :     0.001 s
  Overlap matrix is nonsingular
  | Lowest eigenvalue of overlap  :  0.46E-02
  | Highest eigenvalue of overlap :  0.61E+01
  Finished singularity check of overlap matrix
  | Time :     0.003 s
  Finished Cholesky decomposition
  | Time :     0.002 s
  Finished transformation to standard eigenproblem
  | Time :     0.001 s
  Starting ELPA eigensolver
  | Time full => tridiagonal    :     0.002 s
  | Time solve tridiagonal      :     0.000 s
  | Time ev tridiagonal => full :     0.001 s
  Finished solving standard eigenproblem
  | Time :     0.004 s
  Finished back-transformation of eigenvectors
  | Time :     0.000 s

  Obtaining occupation numbers and chemical potential using ELSI.
  | Chemical potential (Fermi level):    -8.89457474eV
  Writing Kohn-Sham eigenvalues.

  State    Occupation    Eigenvalue [Ha]    Eigenvalue [eV]
      1       2.00000         -19.007568         -517.22223
      2       2.00000         -18.978662         -516.43568
      3       2.00000         -14.245822         -387.64854
      4       2.00000         -10.166641         -276.64838
      5       2.00000         -10.141236         -275.95707
      6       2.00000         -10.132139         -275.70954
      7       2.00000          -1.188463          -32.33972
      8       2.00000          -1.093261          -29.74914
      9       2.00000          -0.991111          -26.96951
     10       2.00000          -0.861705          -23.44818
     11       2.00000          -0.761957          -20.73391
     12       2.00000          -0.675226          -18.37383
     13       2.00000          -0.625179          -17.01200
     14       2.00000          -0.606637          -16.50744
     15       2.00000          -0.593815          -16.15854
     16       2.00000          -0.570725          -15.53023
     17       2.00000          -0.535294          -14.56609
     18       2.00000          -0.528727          -14.38738
     19       2.00000          -0.514962          -14.01284
     20       2.00000          -0.502086          -13.66246
     21       2.00000          -0.475833          -12.94808
     22       2.00000          -0.428763          -11.66724
     23       2.00000          -0.419489          -11.41488
     24       2.00000          -0.381647          -10.38514
     25       0.00000          -0.156427           -4.25660
     26       0.00000          -0.050783           -1.38187
     27       0.00000          -0.027260           -0.74179
     28       0.00000          -0.015735           -0.42817
     29       0.00000          -0.009879           -0.26882
     30       0.00000          -0.000438           -0.01191
     31       0.00000           0.019185            0.52205
     32       0.00000           0.030621            0.83323
     33       0.00000           0.037278            1.01439
     34       0.00000           0.086602            2.35655
     35       0.00000           0.099236            2.70036
     36       0.00000           0.135172            3.67822
     37       0.00000           0.145843            3.96860
     38       0.00000           0.194149            5.28307
     39       0.00000           0.217050            5.90622
     40       0.00000           0.239368            6.51354
     41       0.00000           0.250818            6.82509
     42       0.00000           0.260432            7.08671
     43       0.00000           0.298243            8.11560
     44       0.00000           0.315619            8.58842
     45       0.00000           0.330251            8.98657
     46       0.00000           0.351449            9.56342
     47       0.00000           0.372360           10.13244
     48       0.00000           0.403638           10.98354
     49       0.00000           0.415332           11.30175
     50       0.00000           0.477305           12.98812
     51       0.00000           0.489773           13.32740
     52       0.00000           0.512619           13.94907
     53       0.00000           0.591853           16.10515

  Highest occupied state (VBM) at    -10.38514342 eV
  | Occupation number:      2.00000000

  Lowest unoccupied state (CBM) at    -4.25659574 eV
  | Occupation number:      0.00000000

  Overall HOMO-LUMO gap:      6.12854768 eV.
  Calculating total energy contributions from superposition of free atom densities.

  Total energy components:
  | Sum of eigenvalues            :        -188.85389927 Ha       -5138.97606745 eV
  | XC energy correction          :         -41.78764815 Ha       -1137.09976103 eV
  | XC potential correction       :          53.71838077 Ha        1461.75151392 eV
  | Free-atom electrostatic energy:        -146.85008621 Ha       -3995.99415965 eV
  | Hartree energy correction     :           0.00000000 Ha           0.00000000 eV
  | vdW energy correction         :           0.00000000 Ha           0.00000000 eV
  | Entropy correction            :           0.00000000 Ha           0.00000000 eV
  | ---------------------------
  | Total energy                  :        -323.77325285 Ha       -8810.31847420 eV
  | Total energy, T -> 0          :        -323.77325285 Ha       -8810.31847420 eV  <-- do not rely on this value for anything but (periodic) metals
  | Electronic free energy        :        -323.77325285 Ha       -8810.31847420 eV

  Derived energy quantities:
  | Kinetic energy                :         320.48222888 Ha        8720.76515550 eV
  | Electrostatic energy          :        -602.46783359 Ha      -16393.98386867 eV
  | Energy correction for multipole
  | error in Hartree potential    :           0.00000000 Ha           0.00000000 eV
  | Sum of eigenvalues per atom                           :        -395.30585134 eV
  | Total energy (T->0) per atom                          :        -677.71680571 eV  <-- do not rely on this value for anything but (periodic) metals
  | Electronic free energy per atom                       :        -677.71680571 eV
  Initialize hartree_potential_storage
  Max. number of atoms included in rho_multipole:           13

  End scf initialization - timings             :  max(cpu_time)    wall_clock(cpu1)
  | Time for scf. initialization               :        0.097 s           0.098 s
  | Boundary condition initialization          :        0.000 s           0.001 s
  | Integration                                :        0.040 s           0.040 s
  | Solution of K.-S. eqns.                    :        0.010 s           0.011 s
  | Grid partitioning                          :        0.023 s           0.023 s
  | Preloading free-atom quantities on grid    :        0.003 s           0.002 s
  | Free-atom superposition energy             :        0.005 s           0.005 s
  | Total energy evaluation                    :        0.000 s           0.000 s

  Partial memory accounting:
  | Current value for overall tracked memory usage on task 0  :           0.133 MB
  | Peak value for overall tracked memory usage on task 0     :           0.846 MB after allocating wave
  | Largest tracked array allocation on task 0 so far         :           0.180 MB  when allocating H_times_psi
  Note:  These values currently only include a subset of arrays which are explicitly tracked.
  The "true" memory usage will be greater.
------------------------------------------------------------

------------------------------------------------------------
          Begin self-consistency iteration #    1

  Date     :  20200616, Time     :  071633.827
------------------------------------------------------------
  Evaluating new KS density.
  Integration grid: deviation in total charge (<rho> - N_e) =   0.000000E+00
  Pulay mixing of updated and previous charge densities.

  Evaluating partitioned Hartree potential by multipole expansion.
  | Analytical far-field extrapolation by fixed multipoles:
  | Hartree multipole sum: apparent total charge =  -0.185374E-03
  Summing up the Hartree potential.
  Time summed over all CPUs for potential: real work        0.421 s, elapsed        0.433 s
  | RMS charge density error from multipole expansion :   0.592647E-02

  Integrating Hamiltonian matrix: batch-based integration.
  Time summed over all CPUs for integration: real work        0.506 s, elapsed        0.538 s

  Updating Kohn-Sham eigenvalues and eigenvectors using ELSI and the ELPA eigensolver.
  ELPA settings:
  | ELPA solver          1
  Finished transformation to standard eigenproblem
  | Time :     0.000 s
  Starting ELPA eigensolver
  | Time full => tridiagonal    :     0.002 s
  | Time solve tridiagonal      :     0.000 s
  | Time ev tridiagonal => full :     0.000 s
  Finished solving standard eigenproblem
  | Time :     0.003 s
  Finished back-transformation of eigenvectors
  | Time :     0.000 s

  Obtaining occupation numbers and chemical potential using ELSI.
  | Chemical potential (Fermi level):    -8.00440984eV
  Writing Kohn-Sham eigenvalues.

  State    Occupation    Eigenvalue [Ha]    Eigenvalue [eV]
      1       2.00000         -18.910244         -514.57391
      2       2.00000         -18.840336         -512.67163
      3       2.00000         -14.098489         -383.63940
      4       2.00000         -10.115413         -275.25440
      5       2.00000         -10.060769         -273.76744
      6       2.00000         -10.024529         -272.78132
      7       2.00000          -1.141871          -31.07189
      8       2.00000          -1.032764          -28.10294
      9       2.00000          -0.921404          -25.07268
     10       2.00000          -0.793339          -21.58785
     11       2.00000          -0.711682          -19.36584
     12       2.00000          -0.625848          -17.03020
     13       2.00000          -0.568734          -15.47604
     14       2.00000          -0.548327          -14.92073
     15       2.00000          -0.533274          -14.51113
     16       2.00000          -0.511464          -13.91765
     17       2.00000          -0.482985          -13.14270
     18       2.00000          -0.469609          -12.77871
     19       2.00000          -0.449581          -12.23371
     20       2.00000          -0.439109          -11.94877
     21       2.00000          -0.419308          -11.40996
     22       2.00000          -0.370044          -10.06942
     23       2.00000          -0.347911           -9.46715
     24       2.00000          -0.310414           -8.44679
     25       0.00000          -0.117404           -3.19472
     26       0.00000          -0.027335           -0.74383
     27       0.00000          -0.003518           -0.09574
     28       0.00000           0.014947            0.40674
     29       0.00000           0.026327            0.71640
     30       0.00000           0.042127            1.14634
     31       0.00000           0.063491            1.72768
     32       0.00000           0.072004            1.95932
     33       0.00000           0.077887            2.11940
     34       0.00000           0.128229            3.48929
     35       0.00000           0.141493            3.85021
     36       0.00000           0.160255            4.36075
     37       0.00000           0.178191            4.84883
     38       0.00000           0.222827            6.06344
     39       0.00000           0.251672            6.84835
     40       0.00000           0.270496            7.36058
     41       0.00000           0.282640            7.69103
     42       0.00000           0.295013            8.02772
     43       0.00000           0.332886            9.05829
     44       0.00000           0.348436            9.48144
     45       0.00000           0.371419           10.10683
     46       0.00000           0.395891           10.77274
     47       0.00000           0.408352           11.11183
     48       0.00000           0.445815           12.13124
     49       0.00000           0.457698           12.45459
     50       0.00000           0.509477           13.86357
     51       0.00000           0.522790           14.22583
     52       0.00000           0.554421           15.08655
     53       0.00000           0.621389           16.90884

  Highest occupied state (VBM) at     -8.44678595 eV
  | Occupation number:      2.00000000

  Lowest unoccupied state (CBM) at    -3.19472194 eV
  | Occupation number:      0.00000000

  Overall HOMO-LUMO gap:      5.25206401 eV.

  Total energy components:
  | Sum of eigenvalues            :        -185.45489577 Ha       -5046.48447615 eV
  | XC energy correction          :         -42.11557044 Ha       -1146.02298061 eV
  | XC potential correction       :          54.14489604 Ha        1473.35758496 eV
  | Free-atom electrostatic energy:        -146.85008621 Ha       -3995.99415965 eV
  | Hartree energy correction     :          -3.31861358 Ha         -90.30407007 eV
  | vdW energy correction         :           0.00000000 Ha           0.00000000 eV
  | Entropy correction            :           0.00000000 Ha           0.00000000 eV
  | ---------------------------
  | Total energy                  :        -323.59426995 Ha       -8805.44810153 eV
  | Total energy, T -> 0          :        -323.59426995 Ha       -8805.44810153 eV  <-- do not rely on this value for anything but (periodic) metals
  | Electronic free energy        :        -323.59426995 Ha       -8805.44810153 eV

  Derived energy quantities:
  | Kinetic energy                :         322.26535929 Ha        8769.28660276 eV
  | Electrostatic energy          :        -603.74405880 Ha      -16428.71172367 eV
  | Energy correction for multipole
  | error in Hartree potential    :           0.01219323 Ha           0.33179475 eV
  | Sum of eigenvalues per atom                           :        -388.19111355 eV
  | Total energy (T->0) per atom                          :        -677.34216166 eV  <-- do not rely on this value for anything but (periodic) metals
  | Electronic free energy per atom                       :        -677.34216166 eV

  Self-consistency convergence accuracy:
  | Change of charge density      :  0.5785E+00
  | Change of sum of eigenvalues  :  0.9249E+02 eV
  | Change of total energy        :  0.4870E+01 eV

  End self-consistency iteration #     1       :  max(cpu_time)    wall_clock(cpu1)
  | Time for this iteration                    :        0.078 s           0.078 s
  | Charge density update                      :        0.022 s           0.022 s
  | Density mixing                             :        0.000 s           0.000 s
  | Hartree multipole update                   :        0.001 s           0.001 s
  | Hartree multipole summation                :        0.022 s           0.023 s
  | Integration                                :        0.027 s           0.027 s
  | Solution of K.-S. eqns.                    :        0.004 s           0.005 s
  | Total energy evaluation                    :        0.000 s           0.000 s

  Partial memory accounting:
  | Current value for overall tracked memory usage on task 0  :           0.133 MB
  | Peak value for overall tracked memory usage on task 0     :           0.852 MB after allocating gradient_basis_wave
  | Largest tracked array allocation on task 0 so far         :           0.540 MB  when allocating gradient_basis_wave
  Note:  These values currently only include a subset of arrays which are explicitly tracked.
  The "true" memory usage will be greater.
------------------------------------------------------------

------------------------------------------------------------
          Begin self-consistency iteration #    2

  Date     :  20200616, Time     :  071633.909
------------------------------------------------------------
  Evaluating new KS density.
  Integration grid: deviation in total charge (<rho> - N_e) =   7.105427E-15
  Pulay mixing of updated and previous charge densities.

  Evaluating partitioned Hartree potential by multipole expansion.
  | Analytical far-field extrapolation by fixed multipoles:
  | Hartree multipole sum: apparent total charge =  -0.324388E-03
  Summing up the Hartree potential.
  Time summed over all CPUs for potential: real work        0.420 s, elapsed        0.432 s
  | RMS charge density error from multipole expansion :   0.142171E-01

  Integrating Hamiltonian matrix: batch-based integration.
  Time summed over all CPUs for integration: real work        0.507 s, elapsed        0.536 s

  Updating Kohn-Sham eigenvalues and eigenvectors using ELSI and the ELPA eigensolver.
  ELPA settings:
  | ELPA solver          1
  Finished transformation to standard eigenproblem
  | Time :     0.000 s
  Starting ELPA eigensolver
  | Time full => tridiagonal    :     0.002 s
  | Time solve tridiagonal      :     0.000 s
  | Time ev tridiagonal => full :     0.000 s
  Finished solving standard eigenproblem
  | Time :     0.003 s
  Finished back-transformation of eigenvectors
  | Time :     0.000 s

  Obtaining occupation numbers and chemical potential using ELSI.
  | Chemical potential (Fermi level):    -2.83998915eV
  Highest occupied state (VBM) at     -6.48251326 eV
  | Occupation number:      2.00000000

  Lowest unoccupied state (CBM) at    -1.86487337 eV
  | Occupation number:      0.00000000

  Overall HOMO-LUMO gap:      4.61763990 eV.

  Checking to see if s.c.f. parameters should be adjusted.

  Total energy components:
  | Sum of eigenvalues            :        -181.82306187 Ha       -4947.65724763 eV
  | XC energy correction          :         -42.48125102 Ha       -1155.97365562 eV
  | XC potential correction       :          54.61901677 Ha        1486.25906648 eV
  | Free-atom electrostatic energy:        -146.85008621 Ha       -3995.99415965 eV
  | Hartree energy correction     :          -6.98124288 Ha        -189.96928434 eV
  | vdW energy correction         :           0.00000000 Ha           0.00000000 eV
  | Entropy correction            :           0.00000000 Ha           0.00000000 eV
  | ---------------------------
  | Total energy                  :        -323.51662521 Ha       -8803.33528076 eV
  | Total energy, T -> 0          :        -323.51662521 Ha       -8803.33528076 eV  <-- do not rely on this value for anything but (periodic) metals
  | Electronic free energy        :        -323.51662521 Ha       -8803.33528076 eV

  Derived energy quantities:
  | Kinetic energy                :         323.61189302 Ha        8805.92764966 eV
  | Electrostatic energy          :        -604.64726721 Ha      -16453.28927480 eV
  | Energy correction for multipole
  | error in Hartree potential    :           0.02722502 Ha           0.74083052 eV
  | Sum of eigenvalues per atom                           :        -380.58901905 eV
  | Total energy (T->0) per atom                          :        -677.17963698 eV  <-- do not rely on this value for anything but (periodic) metals
  | Electronic free energy per atom                       :        -677.17963698 eV

  Self-consistency convergence accuracy:
  | Change of charge density      :  0.3623E+00
  | Change of sum of eigenvalues  :  0.9883E+02 eV
  | Change of total energy        :  0.2113E+01 eV

  End self-consistency iteration #     2       :  max(cpu_time)    wall_clock(cpu1)
  | Time for this iteration                    :        0.081 s           0.081 s
  | Charge density update                      :        0.025 s           0.025 s
  | Density mixing                             :        0.001 s           0.001 s
  | Hartree multipole update                   :        0.001 s           0.001 s
  | Hartree multipole summation                :        0.022 s           0.022 s
  | Integration                                :        0.027 s           0.027 s
  | Solution of K.-S. eqns.                    :        0.004 s           0.004 s
  | Total energy evaluation                    :        0.000 s           0.000 s

  Partial memory accounting:
  | Current value for overall tracked memory usage on task 0  :           0.134 MB
  | Peak value for overall tracked memory usage on task 0     :           0.852 MB after allocating gradient_basis_wave
  | Largest tracked array allocation on task 0 so far         :           0.540 MB  when allocating gradient_basis_wave
  Note:  These values currently only include a subset of arrays which are explicitly tracked.
  The "true" memory usage will be greater.
------------------------------------------------------------

------------------------------------------------------------
          Begin self-consistency iteration #    3

  Date     :  20200616, Time     :  071633.998
------------------------------------------------------------
  Evaluating new KS density.
  Integration grid: deviation in total charge (<rho> - N_e) =   7.105427E-15
  Pulay mixing of updated and previous charge densities.

  Evaluating partitioned Hartree potential by multipole expansion.
  | Analytical far-field extrapolation by fixed multipoles:
  | Hartree multipole sum: apparent total charge =  -0.419665E-03
  Summing up the Hartree potential.
  Time summed over all CPUs for potential: real work        0.420 s, elapsed        0.432 s
  | RMS charge density error from multipole expansion :   0.224592E-01

  Integrating Hamiltonian matrix: batch-based integration.
  Time summed over all CPUs for integration: real work        0.507 s, elapsed        0.538 s

  Updating Kohn-Sham eigenvalues and eigenvectors using ELSI and the ELPA eigensolver.
  ELPA settings:
  | ELPA solver          1
  Finished transformation to standard eigenproblem
  | Time :     0.000 s
  Starting ELPA eigensolver
  | Time full => tridiagonal    :     0.002 s
  | Time solve tridiagonal      :     0.000 s
  | Time ev tridiagonal => full :     0.000 s
  Finished solving standard eigenproblem
  | Time :     0.003 s
  Finished back-transformation of eigenvectors
  | Time :     0.000 s

  Obtaining occupation numbers and chemical potential using ELSI.
  | Chemical potential (Fermi level):    -2.25918497eV
  Highest occupied state (VBM) at     -5.87616451 eV
  | Occupation number:      2.00000000

  Lowest unoccupied state (CBM) at    -1.16884147 eV
  | Occupation number:      0.00000000

  Overall HOMO-LUMO gap:      4.70732304 eV.

  Total energy components:
  | Sum of eigenvalues            :        -180.52533868 Ha       -4912.34440283 eV
  | XC energy correction          :         -42.63199032 Ha       -1160.07548051 eV
  | XC potential correction       :          54.81130284 Ha        1491.49143661 eV
  | Free-atom electrostatic energy:        -146.85008621 Ha       -3995.99415965 eV
  | Hartree energy correction     :          -8.30850918 Ha        -226.08603795 eV
  | vdW energy correction         :           0.00000000 Ha           0.00000000 eV
  | Entropy correction            :           0.00000000 Ha           0.00000000 eV
  | ---------------------------
  | Total energy                  :        -323.50462154 Ha       -8803.00864433 eV
  | Total energy, T -> 0          :        -323.50462154 Ha       -8803.00864433 eV  <-- do not rely on this value for anything but (periodic) metals
  | Electronic free energy        :        -323.50462154 Ha       -8803.00864433 eV

  Derived energy quantities:
  | Kinetic energy                :         323.18913617 Ha        8794.42385062 eV
  | Electrostatic energy          :        -604.06176740 Ha      -16437.35701444 eV
  | Energy correction for multipole
  | error in Hartree potential    :           0.03876035 Ha           1.05472292 eV
  | Sum of eigenvalues per atom                           :        -377.87264637 eV
  | Total energy (T->0) per atom                          :        -677.15451110 eV  <-- do not rely on this value for anything but (periodic) metals
  | Electronic free energy per atom                       :        -677.15451110 eV

  Self-consistency convergence accuracy:
  | Change of charge density      :  0.2002E+00
  | Change of sum of eigenvalues  :  0.3531E+02 eV
  | Change of total energy        :  0.3266E+00 eV

  End self-consistency iteration #     3       :  max(cpu_time)    wall_clock(cpu1)
  | Time for this iteration                    :        0.082 s           0.076 s
  | Charge density update                      :        0.026 s           0.020 s
  | Density mixing                             :        0.001 s           0.001 s
  | Hartree multipole update                   :        0.001 s           0.001 s
  | Hartree multipole summation                :        0.022 s           0.022 s
  | Integration                                :        0.027 s           0.028 s
  | Solution of K.-S. eqns.                    :        0.004 s           0.004 s
  | Total energy evaluation                    :        0.000 s           0.000 s

  Partial memory accounting:
  | Current value for overall tracked memory usage on task 0  :           0.134 MB
  | Peak value for overall tracked memory usage on task 0     :           0.853 MB after allocating gradient_basis_wave
  | Largest tracked array allocation on task 0 so far         :           0.540 MB  when allocating gradient_basis_wave
  Note:  These values currently only include a subset of arrays which are explicitly tracked.
  The "true" memory usage will be greater.
------------------------------------------------------------

------------------------------------------------------------
          Begin self-consistency iteration #    4

  Date     :  20200616, Time     :  071634.085
------------------------------------------------------------
  Evaluating new KS density.
  Integration grid: deviation in total charge (<rho> - N_e) =   0.000000E+00
  Pulay mixing of updated and previous charge densities.

  Evaluating partitioned Hartree potential by multipole expansion.
  | Analytical far-field extrapolation by fixed multipoles:
  | Hartree multipole sum: apparent total charge =  -0.450243E-03
  Summing up the Hartree potential.
  Time summed over all CPUs for potential: real work        0.413 s, elapsed        0.431 s
  | RMS charge density error from multipole expansion :   0.258059E-01

  Integrating Hamiltonian matrix: batch-based integration.
  Time summed over all CPUs for integration: real work        0.507 s, elapsed        0.538 s

  Updating Kohn-Sham eigenvalues and eigenvectors using ELSI and the ELPA eigensolver.
  ELPA settings:
  | ELPA solver          1
  Finished transformation to standard eigenproblem
  | Time :     0.000 s
  Starting ELPA eigensolver
  | Time full => tridiagonal    :     0.002 s
  | Time solve tridiagonal      :     0.000 s
  | Time ev tridiagonal => full :     0.000 s
  Finished solving standard eigenproblem
  | Time :     0.003 s
  Finished back-transformation of eigenvectors
  | Time :     0.000 s

  Obtaining occupation numbers and chemical potential using ELSI.
  | Chemical potential (Fermi level):    -2.19354068eV
  Highest occupied state (VBM) at     -5.68589950 eV
  | Occupation number:      2.00000000

  Lowest unoccupied state (CBM) at    -1.09060941 eV
  | Occupation number:      0.00000000

  Overall HOMO-LUMO gap:      4.59529009 eV.

  Total energy components:
  | Sum of eigenvalues            :        -180.38047587 Ha       -4908.40248527 eV
  | XC energy correction          :         -42.66791052 Ha       -1161.05291899 eV
  | XC potential correction       :          54.85655064 Ha        1492.72269171 eV
  | Free-atom electrostatic energy:        -146.85008621 Ha       -3995.99415965 eV
  | Hartree energy correction     :          -8.46192371 Ha        -230.26065974 eV
  | vdW energy correction         :           0.00000000 Ha           0.00000000 eV
  | Entropy correction            :           0.00000000 Ha           0.00000000 eV
  | ---------------------------
  | Total energy                  :        -323.50384568 Ha       -8802.98753194 eV
  | Total energy, T -> 0          :        -323.50384568 Ha       -8802.98753194 eV  <-- do not rely on this value for anything but (periodic) metals
  | Electronic free energy        :        -323.50384568 Ha       -8802.98753194 eV

  Derived energy quantities:
  | Kinetic energy                :         322.81853245 Ha        8784.33921019 eV
  | Electrostatic energy          :        -603.65446760 Ha      -16426.27382314 eV
  | Energy correction for multipole
  | error in Hartree potential    :           0.04290068 Ha           1.16738682 eV
  | Sum of eigenvalues per atom                           :        -377.56942194 eV
  | Total energy (T->0) per atom                          :        -677.15288707 eV  <-- do not rely on this value for anything but (periodic) metals
  | Electronic free energy per atom                       :        -677.15288707 eV

  Self-consistency convergence accuracy:
  | Change of charge density      :  0.6186E-01
  | Change of sum of eigenvalues  :  0.3942E+01 eV
  | Change of total energy        :  0.2111E-01 eV

  End self-consistency iteration #     4       :  max(cpu_time)    wall_clock(cpu1)
  | Time for this iteration                    :        0.084 s           0.077 s
  | Charge density update                      :        0.028 s           0.021 s
  | Density mixing                             :        0.001 s           0.001 s
  | Hartree multipole update                   :        0.001 s           0.001 s
  | Hartree multipole summation                :        0.022 s           0.022 s
  | Integration                                :        0.027 s           0.027 s
  | Solution of K.-S. eqns.                    :        0.004 s           0.004 s
  | Total energy evaluation                    :        0.000 s           0.000 s

  Partial memory accounting:
  | Current value for overall tracked memory usage on task 0  :           0.134 MB
  | Peak value for overall tracked memory usage on task 0     :           0.853 MB after allocating gradient_basis_wave
  | Largest tracked array allocation on task 0 so far         :           0.540 MB  when allocating gradient_basis_wave
  Note:  These values currently only include a subset of arrays which are explicitly tracked.
  The "true" memory usage will be greater.
------------------------------------------------------------

------------------------------------------------------------
          Begin self-consistency iteration #    5

  Date     :  20200616, Time     :  071634.171
------------------------------------------------------------
  Evaluating new KS density.
  Integration grid: deviation in total charge (<rho> - N_e) =   0.000000E+00
  Pulay mixing of updated and previous charge densities.

  Evaluating partitioned Hartree potential by multipole expansion.
  | Analytical far-field extrapolation by fixed multipoles:
  | Hartree multipole sum: apparent total charge =  -0.444349E-03
  Summing up the Hartree potential.
  Time summed over all CPUs for potential: real work        0.411 s, elapsed        0.429 s
  | RMS charge density error from multipole expansion :   0.255531E-01

  Integrating Hamiltonian matrix: batch-based integration.
  Time summed over all CPUs for integration: real work        0.507 s, elapsed        0.536 s

  Updating Kohn-Sham eigenvalues and eigenvectors using ELSI and the ELPA eigensolver.
  ELPA settings:
  | ELPA solver          1
  Finished transformation to standard eigenproblem
  | Time :     0.000 s
  Starting ELPA eigensolver
  | Time full => tridiagonal    :     0.002 s
  | Time solve tridiagonal      :     0.000 s
  | Time ev tridiagonal => full :     0.000 s
  Finished solving standard eigenproblem
  | Time :     0.003 s
  Finished back-transformation of eigenvectors
  | Time :     0.000 s

  Obtaining occupation numbers and chemical potential using ELSI.
  | Chemical potential (Fermi level):    -2.23859332eV
  Highest occupied state (VBM) at     -5.77427082 eV
  | Occupation number:      2.00000000

  Lowest unoccupied state (CBM) at    -1.17417291 eV
  | Occupation number:      0.00000000

  Overall HOMO-LUMO gap:      4.60009790 eV.

  Total energy components:
  | Sum of eigenvalues            :        -180.56526064 Ha       -4913.43073471 eV
  | XC energy correction          :         -42.64549398 Ha       -1160.44293401 eV
  | XC potential correction       :          54.82748852 Ha        1491.93187125 eV
  | Free-atom electrostatic energy:        -146.85008621 Ha       -3995.99415965 eV
  | Hartree energy correction     :          -8.27020181 Ha        -225.04364137 eV
  | vdW energy correction         :           0.00000000 Ha           0.00000000 eV
  | Entropy correction            :           0.00000000 Ha           0.00000000 eV
  | ---------------------------
  | Total energy                  :        -323.50355413 Ha       -8802.97959849 eV
  | Total energy, T -> 0          :        -323.50355413 Ha       -8802.97959849 eV  <-- do not rely on this value for anything but (periodic) metals
  | Electronic free energy        :        -323.50355413 Ha       -8802.97959849 eV

  Derived energy quantities:
  | Kinetic energy                :         322.71828936 Ha        8781.61145708 eV
  | Electrostatic energy          :        -603.57634951 Ha      -16424.14812156 eV
  | Energy correction for multipole
  | error in Hartree potential    :           0.04226989 Ha           1.15022215 eV
  | Sum of eigenvalues per atom                           :        -377.95621036 eV
  | Total energy (T->0) per atom                          :        -677.15227681 eV  <-- do not rely on this value for anything but (periodic) metals
  | Electronic free energy per atom                       :        -677.15227681 eV

  Self-consistency convergence accuracy:
  | Change of charge density      :  0.2016E-01
  | Change of sum of eigenvalues  : -0.5028E+01 eV
  | Change of total energy        :  0.7933E-02 eV

  End self-consistency iteration #     5       :  max(cpu_time)    wall_clock(cpu1)
  | Time for this iteration                    :        0.081 s           0.075 s
  | Charge density update                      :        0.026 s           0.020 s
  | Density mixing                             :        0.001 s           0.000 s
  | Hartree multipole update                   :        0.001 s           0.002 s
  | Hartree multipole summation                :        0.022 s           0.022 s
  | Integration                                :        0.027 s           0.027 s
  | Solution of K.-S. eqns.                    :        0.004 s           0.004 s
  | Total energy evaluation                    :        0.000 s           0.000 s

  Partial memory accounting:
  | Current value for overall tracked memory usage on task 0  :           0.134 MB
  | Peak value for overall tracked memory usage on task 0     :           0.853 MB after allocating gradient_basis_wave
  | Largest tracked array allocation on task 0 so far         :           0.540 MB  when allocating gradient_basis_wave
  Note:  These values currently only include a subset of arrays which are explicitly tracked.
  The "true" memory usage will be greater.
------------------------------------------------------------

------------------------------------------------------------
          Begin self-consistency iteration #    6

  Date     :  20200616, Time     :  071634.255
------------------------------------------------------------
  Evaluating new KS density.
  Integration grid: deviation in total charge (<rho> - N_e) =  -7.105427E-15
  Pulay mixing of updated and previous charge densities.

[...]
  |   Hirshfeld dipole moment :      0.06096456
  |   Hirshfeld second moments:     -0.00137127      -0.00009643       0.02354011
  |                                 -0.00009643      -0.00684994       0.01103785
  |                                  0.02354011       0.01103785       0.00592588
  ----------------------------------------------------------------------
  | Atom    12: O
  |   Hirshfeld charge        :     -0.14972095
  |   Free atom volume        :     23.61338643
  |   Hirshfeld volume        :     20.81729512
  |   Hirshfeld dipole vector :     -0.03536723       0.00966946       0.02907639
  |   Hirshfeld dipole moment :      0.04679504
  |   Hirshfeld second moments:      0.03326187       0.01218251       0.01371126
  |                                  0.01218251       0.09141439      -0.02489063
  |                                  0.01371126      -0.02489063       0.05276147
  ----------------------------------------------------------------------
  | Atom    13: H
  |   Hirshfeld charge        :      0.16851499
  |   Free atom volume        :      9.95071624
  |   Hirshfeld volume        :      6.46569184
  |   Hirshfeld dipole vector :     -0.02257095      -0.09265677       0.05910786
  |   Hirshfeld dipole moment :      0.11219832
  |   Hirshfeld second moments:      0.09225619       0.00525954       0.02182295
  |                                  0.00525954       0.12074626      -0.00516765
  |                                  0.02182295      -0.00516765       0.10203508
  ----------------------------------------------------------------------


  Total energy components:
  | Sum of eigenvalues            :        -180.57659560 Ha       -4913.73917445 eV
  | XC energy correction          :         -42.63964008 Ha       -1160.28364108 eV
  | XC potential correction       :          54.81997713 Ha        1491.72747606 eV
  | Free-atom electrostatic energy:        -146.85008621 Ha       -3995.99415965 eV
  | Hartree energy correction     :          -8.25713941 Ha        -224.68819546 eV
  | vdW energy correction         :          -0.00328574 Ha          -0.08940961 eV
  | Entropy correction            :           0.00000000 Ha           0.00000000 eV
  | ---------------------------
  | Total energy                  :        -323.50676990 Ha       -8803.06710420 eV
  | Total energy, T -> 0          :        -323.50676990 Ha       -8803.06710420 eV  <-- do not rely on this value for anything but (periodic) metals
  | Electronic free energy        :        -323.50676990 Ha       -8803.06710420 eV

  Derived energy quantities:
  | Kinetic energy                :         322.58948322 Ha        8778.10646353 eV
  | Electrostatic energy          :        -603.45332730 Ha      -16420.80051704 eV
  | Energy correction for multipole
  | error in Hartree potential    :           0.04262872 Ha           1.15998651 eV
  | Sum of eigenvalues per atom                           :        -377.97993650 eV
  | Total energy (T->0) per atom                          :        -677.15900802 eV  <-- do not rely on this value for anything but (periodic) metals
  | Electronic free energy per atom                       :        -677.15900802 eV

  atomic forces [eV/Ang]:
  -----------------------
  atom #    1
   Hellmann-Feynman              :  0.117278E+01  0.147061E+00  0.180985E+01
   Ionic forces                  :  0.000000E+00  0.000000E+00  0.000000E+00
   Multipole                     : -0.206932E-02  0.324884E+00 -0.328494E+00
   Pulay + GGA                   : -0.147760E+01 -0.302835E+00 -0.164128E+01
   Van der Waals                 :  0.163377E-02  0.849187E-03 -0.145145E-02
   ----------------------------------------------------------------
   Total forces(   1)            : -0.305264E+00  0.169960E+00 -0.161379E+00
  atom #    2
   Hellmann-Feynman              :  0.179834E+00 -0.174310E-01 -0.335034E+00
   Ionic forces                  :  0.000000E+00  0.000000E+00  0.000000E+00
   Multipole                     :  0.206541E+00  0.104098E-01 -0.686122E-02
   Pulay + GGA                   : -0.129911E+00  0.317048E-01  0.129239E-01
   Van der Waals                 : -0.251905E-02  0.838398E-03  0.212247E-02
   ----------------------------------------------------------------
   Total forces(   2)            :  0.253945E+00  0.255220E-01 -0.326849E+00
  atom #    3
   Hellmann-Feynman              :  0.179276E+01  0.112916E+02 -0.379229E+01
   Ionic forces                  :  0.000000E+00  0.000000E+00  0.000000E+00
   Multipole                     : -0.473590E-01  0.515741E-01 -0.788011E+00
   Pulay + GGA                   : -0.107869E+01 -0.112566E+02  0.514502E+01
   Van der Waals                 : -0.175116E-02  0.263856E-02 -0.493152E-03
   ----------------------------------------------------------------
   Total forces(   3)            :  0.664955E+00  0.891781E-01  0.564233E+00
  atom #    4
   Hellmann-Feynman              : -0.199664E+00 -0.324256E+00 -0.149791E+00
   Ionic forces                  :  0.000000E+00  0.000000E+00  0.000000E+00
   Multipole                     :  0.169029E-01 -0.705550E-01 -0.796996E-01
   Pulay + GGA                   : -0.756352E-01  0.199774E+00  0.871962E-01
   Van der Waals                 : -0.207919E-02  0.476901E-02 -0.343839E-02
   ----------------------------------------------------------------
   Total forces(   4)            : -0.260475E+00 -0.190268E+00 -0.145733E+00
  atom #    5
   Hellmann-Feynman              : -0.290500E+00 -0.259146E+00 -0.117216E+00
   Ionic forces                  :  0.000000E+00  0.000000E+00  0.000000E+00
   Multipole                     : -0.860078E-01 -0.524516E-01 -0.463836E-01
   Pulay + GGA                   :  0.196788E+00  0.141858E+00 -0.152431E-01
   Van der Waals                 : -0.268551E-03 -0.668931E-02 -0.148467E-02
   ----------------------------------------------------------------
   Total forces(   5)            : -0.179988E+00 -0.176429E+00 -0.180327E+00
  atom #    6
   Hellmann-Feynman              : -0.545308E+00 -0.720505E+00  0.209623E+00
   Ionic forces                  :  0.000000E+00  0.000000E+00  0.000000E+00
   Multipole                     : -0.171760E+00  0.851770E+00  0.308720E+00
   Pulay + GGA                   :  0.681510E+00 -0.432849E+00 -0.412166E+00
   Van der Waals                 :  0.624250E-02  0.590762E-02  0.177187E-02
   ----------------------------------------------------------------
   Total forces(   6)            : -0.293155E-01 -0.295677E+00  0.107949E+00
  atom #    7
   Hellmann-Feynman              :  0.129283E+00  0.497033E-01  0.734505E-01
   Ionic forces                  :  0.000000E+00  0.000000E+00  0.000000E+00
   Multipole                     :  0.397061E-01  0.119934E+00  0.841868E-01
   Pulay + GGA                   : -0.887913E-01 -0.505850E-01 -0.500871E-01
   Van der Waals                 : -0.343268E-02 -0.492895E-02 -0.224705E-02
   ----------------------------------------------------------------
   Total forces(   7)            :  0.767651E-01  0.114123E+00  0.105303E+00
  atom #    8
   Hellmann-Feynman              :  0.329370E-01  0.264071E-01 -0.180611E+00
   Ionic forces                  :  0.000000E+00  0.000000E+00  0.000000E+00
   Multipole                     : -0.646846E-01  0.129440E+00 -0.141410E-01
   Pulay + GGA                   :  0.682954E-01 -0.971824E-01  0.363112E-01
   Van der Waals                 :  0.119642E-02 -0.299087E-02  0.389878E-02
   ----------------------------------------------------------------
   Total forces(   8)            :  0.377441E-01  0.556734E-01 -0.154542E+00
  atom #    9
   Hellmann-Feynman              : -0.963587E-01 -0.142004E-01  0.111624E+00
   Ionic forces                  :  0.000000E+00  0.000000E+00  0.000000E+00
   Multipole                     : -0.946302E-01  0.374689E-01  0.102266E+00
   Pulay + GGA                   :  0.659760E-01 -0.323793E-01 -0.797675E-01
   Van der Waals                 :  0.153136E-02  0.309983E-03 -0.526543E-02
   ----------------------------------------------------------------
   Total forces(   9)            : -0.123482E+00 -0.880087E-02  0.128858E+00
  atom #   10
   Hellmann-Feynman              : -0.986406E+00  0.652592E+01 -0.484666E+00
   Ionic forces                  :  0.000000E+00  0.000000E+00  0.000000E+00
   Multipole                     : -0.163285E+00 -0.139307E+00  0.158582E+00
   Pulay + GGA                   :  0.452202E+00 -0.383218E+01  0.271025E+00
   Van der Waals                 :  0.120136E-02 -0.411224E-02  0.113101E-01
   ----------------------------------------------------------------
   Total forces(  10)            : -0.696288E+00  0.255032E+01 -0.437496E-01
  atom #   11
   Hellmann-Feynman              : -0.112193E+02 -0.403967E+00  0.999036E+01
   Ionic forces                  :  0.000000E+00  0.000000E+00  0.000000E+00
   Multipole                     : -0.624436E+00 -0.332148E+00  0.744303E+00
   Pulay + GGA                   :  0.103196E+02  0.117886E+01 -0.960896E+01
   Van der Waals                 :  0.860313E-03 -0.141129E-02 -0.628843E-02
   ----------------------------------------------------------------
   Total forces(  11)            : -0.152324E+01  0.441338E+00  0.111941E+01
  atom #   12
   Hellmann-Feynman              :  0.120254E+02 -0.225392E+01 -0.102315E+02
   Ionic forces                  :  0.000000E+00  0.000000E+00  0.000000E+00
   Multipole                     :  0.975810E+00 -0.108931E+01 -0.396475E+00
   Pulay + GGA                   : -0.109689E+02  0.156321E+01  0.947399E+01
   Van der Waals                 : -0.298172E-02 -0.769919E-03  0.461671E-02
   ----------------------------------------------------------------
   Total forces(  12)            :  0.202939E+01 -0.178079E+01 -0.114937E+01
  atom #   13
   Hellmann-Feynman              : -0.168516E-01 -0.121842E+01  0.266185E+00
   Ionic forces                  :  0.000000E+00  0.000000E+00  0.000000E+00
   Multipole                     : -0.619697E-01 -0.511470E-01  0.930722E-01
   Pulay + GGA                   :  0.130928E+00  0.263597E+00 -0.221077E+00
   Van der Waals                 :  0.366627E-03  0.558982E-02 -0.305135E-02
   ----------------------------------------------------------------
   Total forces(  13)            :  0.524732E-01 -0.100038E+01  0.135128E+00

  Timings for VdW correction (Tkatchenko-Scheffler 2009 or later):
  | CPU time:        0.009 s, Wall clock time:        0.007 s.
  Removing unitary transformations (pure translations, rotations) from forces on atoms.
  Atomic forces before filtering:
  | Net force on center of mass :  -0.277721E-02 -0.622574E-02 -0.106057E-02 eV/A
  | Net torque on center of mass:  -0.716592E-02 -0.643772E-02 -0.892700E-02 eV
  Atomic forces after filtering:
  | Net force on center of mass :  -0.223008E-15  0.000000E+00  0.133805E-15 eV/A
  | Net torque on center of mass:  -0.113290E-14  0.607754E-15 -0.283225E-15 eV

  Energy and forces in a compact form:
  | Total energy uncorrected      :         -0.880306710419912E+04 eV
  | Total energy corrected        :         -0.880306710419912E+04 eV  <-- do not rely on this value for anything but (periodic) metals
  | Electronic free energy        :         -0.880306710419912E+04 eV
  Total atomic forces (unitary forces cleaned) [eV/Ang]:
  |   1         -0.305159465466492E+00          0.170559558576602E+00         -0.161357882642350E+00
  |   2          0.254048788226000E+00          0.264015935058857E-01         -0.327119616741404E+00
  |   3          0.664682955186773E+00          0.898671841367097E-01          0.564382207021798E+00
  |   4         -0.260716866768455E+00         -0.189357233638429E+00         -0.145832477485634E+00
  |   5         -0.180196136591071E+00         -0.175989992346731E+00         -0.179955774209083E+00
  |   6         -0.293409022382248E-01         -0.295314550274527E+00          0.108292830661508E+00
  |   7          0.767355146492391E-01          0.114627189237824E+00          0.105501855296873E+00
  |   8          0.373542113210893E-01          0.560208804384898E-01         -0.153969298269105E+00
  |   9         -0.123234381268664E+00         -0.874203401005551E-02          0.129356241393991E+00
  |  10         -0.695655163146801E+00          0.255070502467620E+01         -0.438179030075151E-01
  |  11         -0.152236424224453E+01          0.441373283214393E+00          0.111956650553485E+01
  |  12          0.203022029985046E+01         -0.178017948837131E+01         -0.114977971653686E+01
  |  13          0.536253884906679E-01         -0.999971415145049E+00          0.134733028982930E+00

  ------------------------------------ 
  Start decomposition of the XC Energy 
  ------------------------------------ 
  X and C from original XC functional choice 
  Hartree-Fock Energy :          0.000000000 Ha              0.000000000 eV
  X Energy            :        -41.039126437 Ha          -1116.731449028 eV
  C Energy            :         -1.600513640 Ha            -43.552192049 eV
  Total XC Energy     :        -42.639640077 Ha          -1160.283641078 eV
  ------------------------------------ 
  LDA X and C from self-consistent density 
  X Energy LDA        :        -37.257856282 Ha          -1013.837852930 eV
  C Energy LDA        :         -3.138619098 Ha            -85.406171087 eV
  ------------------------------------ 
  End decomposition of the XC Energy 
  ------------------------------------ 

------------------------------------------------------------

------------------------------------------------------------------------------
  Final output of selected total energy values:

  The following output summarizes some interesting total energy values
  at the end of a run (AFTER all relaxation, molecular dynamics, etc.).

  | Total energy of the DFT / Hartree-Fock s.c.f. calculation      :          -8803.067104199 eV
  | Final zero-broadening corrected energy (caution - metals only) :          -8803.067104199 eV
  | For reference only, the value of 1 Hartree used in FHI-aims is :             27.211384500 eV

  Before relying on these values, please be sure to understand exactly which
  total energy value is referred to by a given number. Different objects may
  all carry the same name 'total energy'. Definitions:

  Total energy of the DFT / Hartree-Fock s.c.f. calculation:
  | Note that this energy does not include ANY quantities calculated after the
  | s.c.f. cycle, in particular not ANY RPA, MP2, etc. many-body perturbation terms.

  Final zero-broadening corrected energy:
  | For metallic systems only, a broadening of the occupation numbers at the Fermi
  | level can be extrapolated back to zero broadening by an electron-gas inspired
  | formula. For all systems that are not real metals, this value can be
  | meaningless and should be avoided.

------------------------------------------------------------------------------
  Methods described in the following list of references were used in this FHI-aims run.
  If you publish the results, please make sure to cite these reference if they apply.
  FHI-aims is an academic code, and for our developers (often, Ph.D. students
  and postdocs), scientific credit in the community is essential.
  Thank you for helping us!

  For any use of FHI-aims, please cite:

    Volker Blum, Ralf Gehrke, Felix Hanke, Paula Havu, Ville Havu,
    Xinguo Ren, Karsten Reuter, and Matthias Scheffler
    'Ab initio molecular simulations with numeric atom-centered orbitals'
    Computer Physics Communications 180, 2175-2196 (2009)
    http://dx.doi.org/10.1016/j.cpc.2009.06.022


  The scalable eigensolver library ELPA was used in your run.
  ELPA is essential especially for large systems on hundreds or thousands of CPUs.
  For ELPA, please cite:

    Andreas Marek, Volker Blum, Rainer Johanni, Ville Havu, Bruno Lang,
    Thomas Auckenthaler, Alexander Heinecke, Hans-Joachim Bungartz, and Hermann Lederer,
    'The ELPA Library - Scalable Parallel Eigenvalue Solutions
    for Electronic Structure Theory and Computational Science'
    The Journal of Physics: Condensed Matter 26, 213201 (2014).
    http://dx.doi.org/10.1088/0953-8984/26/21/213201


  The ELSI infrastructure was used in your run to solve the Kohn-Sham electronic structure.
  Please check out http://elsi-interchange.org to learn more.
  If scalability is important for your project, please acknowledge ELSI by citing:

    V. W-z. Yu, F. Corsetti, A. Garcia, W. P. Huhn, M. Jacquelin, W. Jia,
    B. Lange, L. Lin, J. Lu, W. Mi, A. Seifitokaldani, A. Vazquez-Mayagoitia,
    C. Yang, H. Yang, and V. Blum
    'ELSI: A unified software interface for Kohn-Sham electronic structure solvers'
    Computer Physics Communications 222, 267-285 (2018).
    http://dx.doi.org/10.1016/j.cpc.2017.09.007


  For the real-space grid partitioning and parallelization used in this calculation, please cite:

    Ville Havu, Volker Blum, Paula Havu, and Matthias Scheffler,
    'Efficient O(N) integration for all-electron electronic structure calculation'
    'using numerically tabulated basis functions'
    Journal of Computational Physics 228, 8367-8379 (2009).
    http://dx.doi.org/10.1016/j.jcp.2009.08.008

  Of course, there are many other important community references, e.g., those cited in the
  above references. Our list is limited to references that describe implementations in the
  FHI-aims code. The reason is purely practical (length of this list) - please credit others as well.

------------------------------------------------------------
          Leaving FHI-aims.
          Date     :  20200616, Time     :  071635.247

          Computational steps:
          | Number of self-consistency cycles          :           15
          | Number of SCF (re)initializations          :            1

          Detailed time accounting                     :  max(cpu_time)    wall_clock(cpu1)
          | Total time                                 :        1.664 s           1.723 s
          | Preparation time                           :        0.163 s           0.162 s
          | Boundary condition initalization           :        0.000 s           0.001 s
          | Grid partitioning                          :        0.023 s           0.023 s
          | Preloading free-atom quantities on grid    :        0.003 s           0.002 s
          | Free-atom superposition energy             :        0.005 s           0.005 s
          | Total time for integrations                :        0.448 s           0.447 s
          | Total time for solution of K.-S. equations :        0.072 s           0.072 s
          | Total time for density & force components  :        0.432 s           0.365 s
          | Total time for mixing                      :        0.016 s           0.015 s
          | Total time for Hartree multipole update    :        0.019 s           0.019 s
          | Total time for Hartree multipole sum       :        0.407 s           0.406 s
          | Total time for total energy evaluation     :        0.003 s           0.003 s
          | Total time for vdW correction              :        0.009 s           0.007 s

          Partial memory accounting:
          | Residual value for overall tracked memory usage across tasks :           0.000 MB (should be 0.000 MB)
          | Peak values for overall tracked memory usage (after allocating hessian_basis_wave):
          |   Minimum:        2.067 MB (on task 16)
          |   Maximum:        2.113 MB (on task  1)
          |   Average:        2.090 MB
          | Largest tracked array allocation (hessian_basis_wave):
          |   Minimum:        1.061 MB (on task  6)
          |   Maximum:        1.080 MB (on task  1)
          |   Average:        1.070 MB
          Note:  These values currently only include a subset of arrays which are explicitly tracked.
          The "true" memory usage will be greater.

          Have a nice day.
------------------------------------------------------------
