  MPI-parallelism will be employed.
------------------------------------------------------------
          Invoking FHI-aims ...
          Version 171221_1
          Compiled on 2019/09/09 at 14:39:39 on host puhti-login2.bullx.

          When using FHI-aims, please cite the following reference:

          Volker Blum, Ralf Gehrke, Felix Hanke, Paula Havu,
          Ville Havu, Xinguo Ren, Karsten Reuter, and Matthias Scheffler,
          'Ab Initio Molecular Simulations with Numeric Atom-Centered Orbitals',
          Computer Physics Communications 180, 2175-2196 (2009)

          For any questions about FHI-aims, please visit the aimsclub website
          with its forums and wiki. Contributions to both the forums and the
          wiki are warmly encouraged - they are for you, and everyone is welcome there.

------------------------------------------------------------



  Date     :  20200815, Time     :  002310.032
  Time zero on CPU 1             :   0.107200000000000E-01  s.
  Internal wall clock time zero  :           366682990.032  s.

  FHI-aims created a unique identifier for this run for later identification
  aims_uuid : E2AA47D4-ABB1-4145-A63D-D472E9BAAD43

  Using        1 parallel tasks.
  Task        0 on host r18c31.bullx reporting.

  Performing system and environment tests:
  | Environment variable OMP_NUM_THREADS correctly set to 1.
  | Stacksize not measured: no C compiler
  | Checking for scalapack...
  | Testing pdtran()...
  | All pdtran() tests passed.

  Obtaining array dimensions for all initial allocations:
  
  -----------------------------------------------------------------------
  Parsing control.in (first pass over file, find array dimensions only).
  The contents of control.in will be repeated verbatim below
  unless switched off by setting 'verbatim_writeout .false.' .
  in the first line of control.in .
  -----------------------------------------------------------------------
  
  #########################################################################################
  #
  #  Volker Blum, FHI 2009 : Test run input file control.in for simple H2O
  #
  #########################################################################################
  #
  #  Physical model
  #
    xc                 pbe
    vdw_correction_hirshfeld
    spin               none
    relativistic       none
    charge             0.
  #
  #  SCF convergence
  #
    occupation_type    gaussian 0.01
    mixer              pulay
      n_max_pulay        10
      charge_mix_param   0.2
    sc_accuracy_rho    1E-5
    sc_accuracy_eev    1E-3
    sc_accuracy_etot   1E-6
    sc_accuracy_forces 1E-4
    sc_iter_limit      100
  #
  #  Relaxation
  #
  #  relax_geometry   bfgs 1.e-3
  #
  ################################################################################
  #
  #  FHI-aims code project
  #  VB, Fritz-Haber Institut, 2009
  #
  #  Suggested "light" defaults for H atom (to be pasted into control.in file)
  #  Be sure to double-check any results obtained with these settings for post-processing,
  #  e.g., with the "tight" defaults and larger basis sets.
  #
  ################################################################################
    species        H
  #     global species definitions
      nucleus             1
      mass                1.00794
  #
      l_hartree           4
  #
      cut_pot             3.5  1.5  1.0
      basis_dep_cutoff    1e-4
  #
      radial_base         24 5.0
      radial_multiplier   1
      angular_grids       specified
        division   0.2421   50
        division   0.3822  110
        division   0.4799  194
        division   0.5341  302
  #      division   0.5626  434
  #      division   0.5922  590
  #      division   0.6542  770
  #      division   0.6868 1202
  #      outer_grid  770
        outer_grid  302
  ################################################################################
  #
  #  Definition of "minimal" basis
  #
  ################################################################################
  #     valence basis states
      valence      1  s   1.
  #     ion occupancy
      ion_occ      1  s   0.5
  ################################################################################
  #
  #  Suggested additional basis functions. For production calculations,
  #  uncomment them one after another (the most important basis functions are
  #  listed first).
  #
  #  Basis constructed for dimers: 0.5 A, 0.7 A, 1.0 A, 1.5 A, 2.5 A
  #
  ################################################################################
  #  "First tier" - improvements: -1014.90 meV to -62.69 meV
       hydro 2 s 2.1
       hydro 2 p 3.5
  #  "Second tier" - improvements: -12.89 meV to -1.83 meV
  #     hydro 1 s 0.85
  #     hydro 2 p 3.7
  #     hydro 2 s 1.2
  #     hydro 3 d 7
  #  "Third tier" - improvements: -0.25 meV to -0.12 meV
  #     hydro 4 f 11.2
  #     hydro 3 p 4.8
  #     hydro 4 d 9
  #     hydro 3 s 3.2
  ################################################################################
  #
  #  FHI-aims code project
  #  VB, Fritz-Haber Institut, 2009
  #
  #  Suggested "light" defaults for C atom (to be pasted into control.in file)
  #  Be sure to double-check any results obtained with these settings for post-processing,
  #  e.g., with the "tight" defaults and larger basis sets.
  #
  ################################################################################
    species        C
  #     global species definitions
      nucleus             6
      mass                12.0107
  #
      l_hartree           4
  #
      cut_pot             3.5  1.5  1.0
      basis_dep_cutoff    1e-4
  #
      radial_base         34 5.0
      radial_multiplier   1
      angular_grids specified
        division   0.3326   50
        division   0.5710  110
        division   0.7727  194
        division   0.8772  302
  #      division   0.9334  434
  #      division   0.9625  590
  #      division   0.9924  770
  #      division   1.0230  974
  #      division   1.4589 1202
  #     outer_grid  974
       outer_grid 302
  ################################################################################
  #
  #  Definition of "minimal" basis
  #
  ################################################################################
  #     valence basis states
      valence      2  s   2.
      valence      2  p   2.
  #     ion occupancy
      ion_occ      2  s   1.
      ion_occ      2  p   1.
  ################################################################################
  #
  #  Suggested additional basis functions. For production calculations,
  #  uncomment them one after another (the most important basis functions are
  #  listed first).
  #
  #  Constructed for dimers: 1.0 A, 1.25 A, 1.5 A, 2.0 A, 3.0 A
  #
  ################################################################################
  #  "First tier" - improvements: -1214.57 meV to -155.61 meV
       hydro 2 p 1.7
       hydro 3 d 6
       hydro 2 s 4.9
  #  "Second tier" - improvements: -67.75 meV to -5.23 meV
  #     hydro 4 f 9.8
  #     hydro 3 p 5.2
  #     hydro 3 s 4.3
  #     hydro 5 g 14.4
  #     hydro 3 d 6.2
  #  "Third tier" - improvements: -2.43 meV to -0.60 meV
  #     hydro 2 p 5.6
  #     hydro 2 s 1.4
  #     hydro 3 d 4.9
  #     hydro 4 f 11.2
  #  "Fourth tier" - improvements: -0.39 meV to -0.18 meV
  #     hydro 2 p 2.1
  #     hydro 5 g 16.4
  #     hydro 4 d 13.2
  #     hydro 3 s 13.6
  #     hydro 4 f 17.6
  #  Further basis functions - improvements: -0.08 meV and below
  #     hydro 3 s 2
  #     hydro 3 p 6
  #     hydro 4 d 20
  ################################################################################
  #
  #  FHI-aims code project
  #  VB, Fritz-Haber Institut, 2009
  #
  #  Suggested "light" defaults for N atom (to be pasted into control.in file)
  #  Be sure to double-check any results obtained with these settings for post-processing,
  #  e.g., with the "tight" defaults and larger basis sets.
  #
  ################################################################################
    species        N
  #     global species definitions
      nucleus             7
      mass                14.0067
  #
      l_hartree           4
  #
      cut_pot             3.5  1.5  1.0
      basis_dep_cutoff    1e-4
  #
      radial_base         35 5.0
      radial_multiplier   1
      angular_grids       specified
        division   0.2599   50
        division   0.4601  110
        division   0.5885  194
        division   0.6503  302
  #      division   0.6939  434
  #      division   0.7396  590
  #      division   0.7632  770
  #      division   0.8122  974
  #      division   1.1604 1202
  #      outer_grid  974
        outer_grid  302
  ################################################################################
  #
  #  Definition of "minimal" basis
  #
  ################################################################################
  #     valence basis states
      valence      2  s   2.
      valence      2  p   3.
  #     ion occupancy
      ion_occ      2  s   1.
      ion_occ      2  p   2.
  ################################################################################
  #
  #  Suggested additional basis functions. For production calculations,
  #  uncomment them one after another (the most important basis functions are
  #  listed first).
  #
  #  Constructed for dimers: 1.0 A, 1.1 A, 1.5 A, 2.0 A, 3.0 A
  #
  ################################################################################
  #  "First tier" - improvements: -1193.42 meV to -220.60 meV
       hydro 2 p 1.8
       hydro 3 d 6.8
       hydro 3 s 5.8
  #  "Second tier" - improvements: -80.21 meV to -6.86 meV
  #     hydro 4 f 10.8
  #     hydro 3 p 5.8
  #     hydro 1 s 0.8
  #     hydro 5 g 16
  #     hydro 3 d 4.9
  #  "Third tier" - improvements: -4.29 meV to -0.53 meV
  #     hydro 3 s 16
  #     ionic 2 p auto
  #     hydro 3 d 6.6
  #     hydro 4 f 11.6
  #  "Fourth tier" - improvements: -0.75 meV to -0.25 meV
  #     hydro 2 p 4.5
  #     hydro 2 s 2.4
  #     hydro 5 g 14.4
  #     hydro 4 d 14.4
  #     hydro 4 f 16.8
  # Further basis functions - -0.21 meV and below
  #     hydro 3 p 14.8
  #     hydro 3 s 4.4
  #     hydro 3 d 19.6
  #     hydro 5 g 12.8
  ################################################################################
  #
  #  FHI-aims code project
  #  VB, Fritz-Haber Institut, 2009
  #
  #  Suggested "light" defaults for O atom (to be pasted into control.in file)
  #  Be sure to double-check any results obtained with these settings for post-processing,
  #  e.g., with the "tight" defaults and larger basis sets.
  #
  ################################################################################
    species        O
  #     global species definitions
      nucleus             8
      mass                15.9994
  #
      l_hartree           4
  #
      cut_pot             3.5  1.5  1.0
      basis_dep_cutoff    1e-4
  #
      radial_base         36 5.0
      radial_multiplier   1
       angular_grids specified
        division   0.2659   50
        division   0.4451  110
        division   0.6052  194
        division   0.7543  302
  #      division   0.8014  434
  #      division   0.8507  590
  #      division   0.8762  770
  #      division   0.9023  974
  #      division   1.2339 1202
  #      outer_grid 974
        outer_grid 302
  ################################################################################
  #
  #  Definition of "minimal" basis
  #
  ################################################################################
  #     valence basis states
      valence      2  s   2.
      valence      2  p   4.
  #     ion occupancy
      ion_occ      2  s   1.
      ion_occ      2  p   3.
  ################################################################################
  #
  #  Suggested additional basis functions. For production calculations,
  #  uncomment them one after another (the most important basis functions are
  #  listed first).
  #
  #  Constructed for dimers: 1.0 A, 1.208 A, 1.5 A, 2.0 A, 3.0 A
  #
  ################################################################################
  #  "First tier" - improvements: -699.05 meV to -159.38 meV
       hydro 2 p 1.8
       hydro 3 d 7.6
       hydro 3 s 6.4
  #  "Second tier" - improvements: -49.91 meV to -5.39 meV
  #     hydro 4 f 11.6
  #     hydro 3 p 6.2
  #     hydro 3 d 5.6
  #     hydro 5 g 17.6
  #     hydro 1 s 0.75
  #  "Third tier" - improvements: -2.83 meV to -0.50 meV
  #     ionic 2 p auto
  #     hydro 4 f 10.8
  #     hydro 4 d 4.7
  #     hydro 2 s 6.8
  #  "Fourth tier" - improvements: -0.40 meV to -0.12 meV
  #     hydro 3 p 5
  #     hydro 3 s 3.3
  #     hydro 5 g 15.6
  #     hydro 4 f 17.6
  #     hydro 4 d 14
  # Further basis functions - -0.08 meV and below
  #     hydro 3 s 2.1
  #     hydro 4 d 11.6
  #     hydro 3 p 16
  #     hydro 2 s 17.2
  
  -----------------------------------------------------------------------
  Completed first pass over input file control.in .
  -----------------------------------------------------------------------
  
  
  -----------------------------------------------------------------------
  Parsing geometry.in (first pass over file, find array dimensions only).
  The contents of geometry.in will be repeated verbatim below
  unless switched off by setting 'verbatim_writeout .false.' .
  in the first line of geometry.in .
  -----------------------------------------------------------------------
  
  atom  0.00000 0.00000 0.00000 C
  atom  1.09300 0.00000 0.00000 H
  atom  -0.47961 0.00000 -1.41207 N
  atom  -1.42171 -0.39195 -1.43752 H
  atom  -0.48796 0.95856 -1.75443 H
  atom  -0.49584 1.26211 0.72868 C
  atom  -1.58789 1.28919 0.74431 H
  atom  -0.13407 1.27425 1.75947 H
  atom  -0.13407 2.16087 0.22380 H
  atom  -0.39425 -1.28861 0.74398 C
  atom  -0.10189 -1.56493 1.88303 O
  atom  -1.10210 -2.13717 0.06896 O
  atom  -1.69096 -1.50637 -0.37861 H
  
  -----------------------------------------------------------------------
  Completed first pass over input file geometry.in .
  -----------------------------------------------------------------------
  

  Basic array size parameters:
  | Number of species                 :        4
  | Number of atoms                   :       13
  | Max. basis fn. angular momentum   :        2
  | Max. atomic/ionic basis occupied n:        2
  | Max. number of basis fn. types    :        2
  | Max. radial fns per species/type  :        3
  | Max. logarithmic grid size        :     1301
  | Max. radial integration grid size :       36
  | Max. angular integration grid size:      302
  | Max. angular grid division number :        8
  | Radial grid for Hartree potential :     1301
  | Number of spin channels           :        1

------------------------------------------------------------
          Reading file control.in.
------------------------------------------------------------
  XC: Using PBE gradient-corrected functionals.
  Spin treatment: No spin polarisation.
  Non-relativistic treatment of kinetic energy.
  Charge =   0.000000E+00: Neutral system requested explicitly.
  Occupation type: Gaussian broadening, width =   0.100000E-01 eV.
  Using pulay charge density mixing.
  Pulay mixing - number of memorized iterations:   10
  Charge density mixing - mixing parameter:     0.2000
  Convergence accuracy of self-consistent charge density:  0.1000E-04
  Convergence accuracy of sum of eigenvalues:  0.1000E-02
  Convergence accuracy of total energy:  0.1000E-05
  Convergence accuracy of forces:  0.1000E-03
  Maximum number of s.-c. iterations  :   100
 
  Reading configuration options for species H                   .
  | Found nuclear charge :   1.0000
  | Found atomic mass :    1.00794000000000      amu
  | Found l_max for Hartree potential  :   4
  | Found cutoff potl. onset [A], width [A], scale factor :    3.50000    1.50000    1.00000
  | Threshold for basis-dependent cutoff potential is   0.100000E-03
  | Found data for basic radial integration grid :    24 points, outermost radius =    5.000 A
  | Found multiplier for basic radial grid :   1
  | Found angular grid specification: user-specified.
  | Specified grid contains     5 separate shells.
  | Check grid settings after all constraints further below.
  | Found free-atom valence shell :  1 s   1.000
  | No ionic wave fns used. Skipping ion_occ.
  | Found hydrogenic basis function :  2 s   2.100
  | Found hydrogenic basis function :  2 p   3.500
  Species H                   : Missing cutoff potential type.
  Defaulting to exp(1/x)/(1-x)^2 type cutoff potential.
  Species H : No 'logarithmic' tag. Using default grid for free atom:
  | Default logarithmic grid data [bohr] : 0.1000E-03 0.1000E+03 0.1012E+01
  Species H : On-site basis accuracy parameter (for Gram-Schmidt orthonormalisation) not specified.
  Using default value basis_acc =  0.1000000E-03.
  Species H                   : Using default innermost maximum threshold i_radial=  2 for radial functions.
  Species H                   : Default cutoff onset for free atom density etc. : 0.35000000E+01 AA.
  Species H                   : Basic radial grid will be enhanced according to radial_multiplier =   1, to contain    24 grid points.
 
  Reading configuration options for species C                   .
  | Found nuclear charge :   6.0000
  | Found atomic mass :    12.0107000000000      amu
  | Found l_max for Hartree potential  :   4
  | Found cutoff potl. onset [A], width [A], scale factor :    3.50000    1.50000    1.00000
  | Threshold for basis-dependent cutoff potential is   0.100000E-03
  | Found data for basic radial integration grid :    34 points, outermost radius =    5.000 A
  | Found multiplier for basic radial grid :   1
  | Found angular grid specification: user-specified.
  | Specified grid contains     5 separate shells.
  | Check grid settings after all constraints further below.
  | Found free-atom valence shell :  2 s   2.000
  | Found free-atom valence shell :  2 p   2.000
  | No ionic wave fns used. Skipping ion_occ.
  | No ionic wave fns used. Skipping ion_occ.
  | Found hydrogenic basis function :  2 p   1.700
  | Found hydrogenic basis function :  3 d   6.000
  | Found hydrogenic basis function :  2 s   4.900
  Species C                   : Missing cutoff potential type.
  Defaulting to exp(1/x)/(1-x)^2 type cutoff potential.
  Species C : No 'logarithmic' tag. Using default grid for free atom:
  | Default logarithmic grid data [bohr] : 0.1000E-03 0.1000E+03 0.1012E+01
  Species C : On-site basis accuracy parameter (for Gram-Schmidt orthonormalisation) not specified.
  Using default value basis_acc =  0.1000000E-03.
  Species C                   : Using default innermost maximum threshold i_radial=  2 for radial functions.
  Species C                   : Default cutoff onset for free atom density etc. : 0.35000000E+01 AA.
  Species C                   : Basic radial grid will be enhanced according to radial_multiplier =   1, to contain    34 grid points.
 
  Reading configuration options for species N                   .
  | Found nuclear charge :   7.0000
  | Found atomic mass :    14.0067000000000      amu
  | Found l_max for Hartree potential  :   4
  | Found cutoff potl. onset [A], width [A], scale factor :    3.50000    1.50000    1.00000
  | Threshold for basis-dependent cutoff potential is   0.100000E-03
  | Found data for basic radial integration grid :    35 points, outermost radius =    5.000 A
  | Found multiplier for basic radial grid :   1
  | Found angular grid specification: user-specified.
  | Specified grid contains     5 separate shells.
  | Check grid settings after all constraints further below.
  | Found free-atom valence shell :  2 s   2.000
  | Found free-atom valence shell :  2 p   3.000
  | No ionic wave fns used. Skipping ion_occ.
  | No ionic wave fns used. Skipping ion_occ.
  | Found hydrogenic basis function :  2 p   1.800
  | Found hydrogenic basis function :  3 d   6.800
  | Found hydrogenic basis function :  3 s   5.800
  Species N                   : Missing cutoff potential type.
  Defaulting to exp(1/x)/(1-x)^2 type cutoff potential.
  Species N : No 'logarithmic' tag. Using default grid for free atom:
  | Default logarithmic grid data [bohr] : 0.1000E-03 0.1000E+03 0.1012E+01
  Species N : On-site basis accuracy parameter (for Gram-Schmidt orthonormalisation) not specified.
  Using default value basis_acc =  0.1000000E-03.
  Species N                   : Using default innermost maximum threshold i_radial=  2 for radial functions.
  Species N                   : Default cutoff onset for free atom density etc. : 0.35000000E+01 AA.
  Species N                   : Basic radial grid will be enhanced according to radial_multiplier =   1, to contain    35 grid points.
 
  Reading configuration options for species O                   .
  | Found nuclear charge :   8.0000
  | Found atomic mass :    15.9994000000000      amu
  | Found l_max for Hartree potential  :   4
  | Found cutoff potl. onset [A], width [A], scale factor :    3.50000    1.50000    1.00000
  | Threshold for basis-dependent cutoff potential is   0.100000E-03
  | Found data for basic radial integration grid :    36 points, outermost radius =    5.000 A
  | Found multiplier for basic radial grid :   1
  | Found angular grid specification: user-specified.
  | Specified grid contains     5 separate shells.
  | Check grid settings after all constraints further below.
  | Found free-atom valence shell :  2 s   2.000
  | Found free-atom valence shell :  2 p   4.000
  | No ionic wave fns used. Skipping ion_occ.
  | No ionic wave fns used. Skipping ion_occ.
  | Found hydrogenic basis function :  2 p   1.800
  | Found hydrogenic basis function :  3 d   7.600
  | Found hydrogenic basis function :  3 s   6.400
  Species O                   : Missing cutoff potential type.
  Defaulting to exp(1/x)/(1-x)^2 type cutoff potential.
  Species O : No 'logarithmic' tag. Using default grid for free atom:
  | Default logarithmic grid data [bohr] : 0.1000E-03 0.1000E+03 0.1012E+01
  Species O : On-site basis accuracy parameter (for Gram-Schmidt orthonormalisation) not specified.
  Using default value basis_acc =  0.1000000E-03.
  Species O                   : Using default innermost maximum threshold i_radial=  2 for radial functions.
  Species O                   : Default cutoff onset for free atom density etc. : 0.35000000E+01 AA.
  Species O                   : Basic radial grid will be enhanced according to radial_multiplier =   1, to contain    36 grid points.
 
  Finished reading input file 'control.in'. Consistency checks are next.
 
  MPI_IN_PLACE appears to work with this MPI implementation.
  | Keeping use_mpi_in_place .true. (see manual).
  Target number of points in a grid batch is not set. Defaulting to  100
  Method for grid partitioning is not set. Defaulting to parallel hash+maxmin partitioning.
  Batch size limit is not set. Defaulting to    200
  By default, will store active basis functions for each batch.
  If in need of memory, prune_basis_once .false. can be used to disable this option.
  communication_type for Hartree potential was not specified.
  Defaulting to calc_hartree .
  Pulay mixer: Number of initial linear mixing iterations not set.
  Defaulting to    0 iterations.
  Work space size for distributed Hartree potential not set.
  Defaulting to   0.200000E+03 MB.
  Algorithm-dependent basis array size parameters:
  | n_max_pulay                         :       10
  Presetting      1001 iterations before the initial mixing cycle
  is restarted anyway using the sc_init_iter criterion / keyword.
  Presetting a factor      1.000 between actual scf density residual
  and density convergence criterion sc_accuracy_rho below which sc_init_iter
  takes no effect.
  Geometry relaxation not requested: no relaxation will be performed.
  Handling of forces: Unphysical translation and rotation will be removed from forces.
  No accuracy limit for integral partition fn. given. Defaulting to  0.1000E-14.
  No threshold value for u(r) in integrations given. Defaulting to  0.1000E-05.
  No accuracy for occupation numbers given. Defaulting to  0.1000E-12.
  No threshold value for occupation numbers given. Defaulting to  0.0000E+00.
  No accuracy for fermi level given. Defaulting to  0.1000E-19.
  Maximum # of iterations to find E_F not set. Defaulting to  200.
  Preferred method for the eigenvalue solver ('KS_method') not specified in 'control.in'.
  Defaulting to serial version, 'lapack_fast'.
  Will not use alltoall communication since running on < 1024 CPUs.
  Threshold for basis singularities not set.
  Default threshold for basis singularities:  0.1000E-04
  partition_type (choice of integration weights) for integrals was not specified.
  | Using a version of the partition function of Stratmann and coworkers ('stratmann_smoother').
  | At each grid point, the set of atoms used to build the partition table is smoothly restricted to
  | only those atoms whose free-atom density would be non-zero at that grid point.
  Partitioning for Hartree potential was not defined. Using partition_type for integrals.
  | Adjusted default value of keyword multip_moments_threshold to:       0.10000000E-11
  | This value may affect high angular momentum components of the Hartree potential in periodic systems.
  No q(lm)/r^(l+1) cutoff set for long-range Hartree potential.
  | Using default value of  0.100000E-09 .
  | Verify using the multipole_threshold keyword.
  Defaulting to new monopole extrapolation.
  Density update method: automatic selection selected.
------------------------------------------------------------


------------------------------------------------------------
          Reading geometry description geometry.in.
------------------------------------------------------------
  Input structure read successfully.
  The structure contains       13 atoms,  and a total of         48.000 electrons.

  Input geometry:
  | No unit cell requested.
  | Atomic structure:
  |       Atom                x [A]            y [A]            z [A]
  |    1: Species C             0.00000000        0.00000000        0.00000000
  |    2: Species H             1.09300000        0.00000000        0.00000000
  |    3: Species N            -0.47961000        0.00000000       -1.41207000
  |    4: Species H            -1.42171000       -0.39195000       -1.43752000
  |    5: Species H            -0.48796000        0.95856000       -1.75443000
  |    6: Species C            -0.49584000        1.26211000        0.72868000
  |    7: Species H            -1.58789000        1.28919000        0.74431000
  |    8: Species H            -0.13407000        1.27425000        1.75947000
  |    9: Species H            -0.13407000        2.16087000        0.22380000
  |   10: Species C            -0.39425000       -1.28861000        0.74398000
  |   11: Species O            -0.10189000       -1.56493000        1.88303000
  |   12: Species O            -1.10210000       -2.13717000        0.06896000
  |   13: Species H            -1.69096000       -1.50637000       -0.37861000
  |

  | The smallest distance between any two atoms is         0.97210269 AA.
  |
  | The first atom of this pair is atom number                     12 .
  | The second atom of this pair is atom number                    13 .

  Number of empty states per atom not set in control.in - providing a guess from actual geometry.
  | Total number of empty states used during s.c.f. cycle:       29
  If you use a very high smearing, use empty_states (per atom!) in control.in to increase this value.

  Structure-dependent array size parameters: 
  | Maximum number of distinct radial functions  :       21
  | Maximum number of basis functions            :      119
  | Number of Kohn-Sham states (occupied + empty):       53
------------------------------------------------------------

------------------------------------------------------------
          Preparing all fixed parts of the calculation.
------------------------------------------------------------
  Determining machine precision:
    2.225073858507201E-308
  Setting up grids for atomic and cluster calculations.

  Creating wave function, potential, and density for free atoms.

  Species: H

  List of occupied orbitals and eigenvalues:
    n    l              occ      energy [Ha]    energy [eV]
    1    0           1.0000        -0.237589        -6.4651


  Species: C

  List of occupied orbitals and eigenvalues:
    n    l              occ      energy [Ha]    energy [eV]
    1    0           2.0000       -10.038835      -273.1706
    2    0           2.0000        -0.502696       -13.6791
    2    1           2.0000        -0.191971        -5.2238


  Species: N

  List of occupied orbitals and eigenvalues:
    n    l              occ      energy [Ha]    energy [eV]
    1    0           2.0000       -14.128000      -384.4424
    2    0           2.0000        -0.681077       -18.5330
    2    1           3.0000        -0.259788        -7.0692


  Species: O

  List of occupied orbitals and eigenvalues:
    n    l              occ      energy [Ha]    energy [eV]
    1    0           2.0000       -18.898188      -514.2459
    2    0           2.0000        -0.878505       -23.9053
    2    1           4.0000        -0.331779        -9.0282

  Creating fixed part of basis set: Ionic, confined, hydrogenic.
 
  H                    hydrogenic:
 
  List of hydrogenic basis orbitals: 
    n    l      effective z      eigenvalue [eV]  inner max. [A]     outer max. [A]     outer radius [A]   
    2    0         2.100000       -14.9728           0.193243           1.317208           4.583499
    2    1         3.500000       -41.6669           0.602369           0.602369           3.723403
 
 
  C                    hydrogenic:
 
  List of hydrogenic basis orbitals: 
    n    l      effective z      eigenvalue [eV]  inner max. [A]     outer max. [A]     outer radius [A]   
    2    1         1.700000        -9.7616           1.230570           1.230570           4.607917
    3    2         6.000000       -54.4224           0.792453           0.792453           3.883070
    2    0         4.900000       -81.6679           0.082559           0.562749           3.078220
 
 
  N                    hydrogenic:
 
  List of hydrogenic basis orbitals: 
    n    l      effective z      eigenvalue [eV]  inner max. [A]     outer max. [A]     outer radius [A]   
    2    1         1.800000       -10.9749           1.177451           1.177451           4.573712
    3    2         6.800000       -69.9026           0.704619           0.704619           3.538137
    3    0         5.800000       -50.8545           0.067388           1.191934           4.250239
 
 
  O                    hydrogenic:
 
  List of hydrogenic basis orbitals: 
    n    l      effective z      eigenvalue [eV]  inner max. [A]     outer max. [A]     outer radius [A]   
    2    1         1.800000       -10.9749           1.164242           1.164242           4.578029
    3    2         7.600000       -87.3180           0.624125           0.624125           3.251020
    3    0         6.400000       -61.9207           0.061167           1.081902           4.001998
 

  Adding cutoff potential to free-atom effective potential.
  Creating atomic-like basis functions for current effective potential.

  Species H                   :

  List of atomic basis orbitals and eigenvalues:
    n    l      energy [Ha]    energy [eV]    outer radius [A]
    1    0        -0.237589        -6.4651       4.527807


  Species C                   :

  List of atomic basis orbitals and eigenvalues:
    n    l      energy [Ha]    energy [eV]    outer radius [A]
    1    0       -10.038835      -273.1706       1.934409
    2    0        -0.502696       -13.6791       4.496620
    2    1        -0.191971        -5.2238       4.551928


  Species N                   :

  List of atomic basis orbitals and eigenvalues:
    n    l      energy [Ha]    energy [eV]    outer radius [A]
    1    0       -14.128000      -384.4424       1.637919
    2    0        -0.681077       -18.5330       4.463241
    2    1        -0.259788        -7.0692       4.518138


  Species O                   :

  List of atomic basis orbitals and eigenvalues:
    n    l      energy [Ha]    energy [eV]    outer radius [A]
    1    0       -18.898188      -514.2459       1.415765
    2    0        -0.878505       -23.9053       4.413171
    2    1        -0.331779        -9.0282       4.522403

  Assembling full basis from fixed parts.
  | Species H :   atomic orbital   1 s accepted.
  | Species H :    hydro orbital   2 s accepted.
  | Species H :    hydro orbital   2 p accepted.
  | Species C :   atomic orbital   1 s accepted.
  | Species C :    hydro orbital   2 s accepted.
  | Species C :   atomic orbital   2 s accepted.
  | Species C :   atomic orbital   2 p accepted.
  | Species C :    hydro orbital   2 p accepted.
  | Species C :    hydro orbital   3 d accepted.
  | Species N :   atomic orbital   1 s accepted.
  | Species N :    hydro orbital   3 s accepted.
  | Species N :   atomic orbital   2 s accepted.
  | Species N :   atomic orbital   2 p accepted.
  | Species N :    hydro orbital   2 p accepted.
  | Species N :    hydro orbital   3 d accepted.
  | Species O :   atomic orbital   1 s accepted.
  | Species O :    hydro orbital   3 s accepted.
  | Species O :   atomic orbital   2 s accepted.
  | Species O :   atomic orbital   2 p accepted.
  | Species O :    hydro orbital   2 p accepted.
  | Species O :    hydro orbital   3 d accepted.
 
  Basis size parameters after reduction:
  | Total number of radial functions:       21
  | Total number of basis functions :      119
 
  Per-task memory consumption for arrays in subroutine allocate_ext:
  |           5.250512MB.
  Testing on-site integration grid accuracy.
  |  Species  Function  <phi|h_atom|phi> (log., in eV)  <phi|h_atom|phi> (rad., in eV)
           1        1                 -6.4663192853                 -6.4651273558
           1        2                 13.7111246313                 13.7170609718
           1        3                 25.2673269279                 25.2674696378
           2        4               -273.1705927641               -273.1705631568
           2        5                -10.7109323383                -10.7107120029
           2        6                 17.4381822266                 17.4352413244
           2        7                 -5.2255326521                 -5.2270484734
           2        8                  8.6835629259                  8.6603288385
           2        9                 27.4952418996                 27.4953360207
           3       10               -384.4424306495               -384.4423701208
           3       11                 12.5842251816                 12.5842222903
           3       12                -15.7264628251                -15.7264433455
           3       13                 -7.0696854293                 -7.0701769954
           3       14                  8.8090390882                  8.7901077751
           3       15                 35.9586762123                 35.9588528632
           4       16               -514.2458688638               -514.2457643834
           4       17                 15.1795651126                 15.1795290741
           4       18                -21.5359799773                -21.5360846186
           4       19                 -9.0283069236                 -9.0284644067
           4       20                  8.3027758564                  8.2834874195
           4       21                 45.8339351984                 45.8338762259

  Preparing densities etc. for the partition functions (integrals / Hartree potential).

  Preparations completed.
  max(cpu_time)          :      0.143 s.
  Wall clock time (cpu1) :      0.144 s.
------------------------------------------------------------

------------------------------------------------------------
          Begin self-consistency loop: Initialization.

          Date     :  20200815, Time     :  002310.188
------------------------------------------------------------

  Initializing index lists of integration centers etc. from given atomic structure:
  | Number of centers in hartree potential         :        13
  | Number of centers in hartree multipole         :        13
  | Number of centers in electron density summation:        13
  | Number of centers in basis integrals           :        13
  | Number of centers in integrals                 :        13
  | Number of centers in hamiltonian               :        13
  Partitioning the integration grid into batches with parallel hashing+maxmin method.
  | Number of batches:      963
  | Maximal batch size:     139
  | Minimal batch size:      66
  | Average batch size:      72.322
  | Standard deviation of batch sizes:      16.565

  Integration load balanced across     1 MPI tasks.
  Work distribution over tasks is as follows:
  Task     0 has      69646 integration points.
  Initializing partition tables, free-atom densities, potentials, etc. across the integration grid (initialize_grid_storage).
  | initialize_grid_storage: Actual outermost partition radius vs. multipole_radius_free
  | (-- VB: in principle, multipole_radius_free should be larger, hence this output)
  | Species        1: Confinement radius =              4.999999999999999 AA, multipole_radius_free =              5.054417573612229 AA.
  | Species        1: outer_partition_radius set to              5.054417573612229 AA .
  | Species        2: Confinement radius =              4.999999999999999 AA, multipole_radius_free =              5.019602836301480 AA.
  | Species        2: outer_partition_radius set to              5.019602836301480 AA .
  | Species        3: Confinement radius =              4.999999999999999 AA, multipole_radius_free =              5.043624274424571 AA.
  | Species        3: outer_partition_radius set to              5.043624274424571 AA .
  | Species        4: Confinement radius =              4.999999999999999 AA, multipole_radius_free =              5.048384829883283 AA.
  | Species        4: outer_partition_radius set to              5.048384829883283 AA .
  | Original list of interatomic distances with          13 x         13 entries is created.
  | Net number of integration points:    69646
  | of which are non-zero points    :    59372
  Renormalizing the initial density to the exact electron count on the 3D integration grid.
  | Initial density: Formal number of electrons (from input files) :      48.0000000000
  | Integrated number of electrons on 3D grid     :      47.9998847107
  | Charge integration error                      :      -0.0001152893
  | Normalization factor for density and gradient :       1.0000024019
  Obtaining max. number of non-zero basis functions in each batch (get_n_compute_maxes).
  | Maximal number of non-zero basis functions:      119 in task     0
  Selecting the method for density update.
  Loop over occupied states selected for charge density update.
  Allocating        0.050 MB for KS_eigenvector
  Integrating Hamiltonian matrix: batch-based integration.
  Time summed over all CPUs for integration: real work        0.493 s, elapsed        0.493 s
  Integrating overlap matrix.
  Time summed over all CPUs for integration: real work        0.211 s, elapsed        0.211 s

  Updating Kohn-Sham eigenvalues and eigenvectors using ELSI and the ELPA eigensolver.
  Overlap matrix is nonsingular
  | Lowest eigenvalue of overlap  :  0.39E-02
  | Highest eigenvalue of overlap :  0.64E+01
  Finished singularity check of overlap matrix
  | Time :     0.002 s
  Finished Cholesky decomposition
  | Time :     0.000 s
  Finished transformation to standard eigenproblem
  | Time :     0.000 s
  Starting LAPACK eigensolver
  Finished solving standard eigenproblem
  | Time :     0.002 s
  Finished back-transformation of eigenvectors
  | Time :     0.000 s

  Obtaining occupation numbers and chemical potential using ELSI.
  | Chemical potential (Fermi level):    -9.18856092eV
  Writing Kohn-Sham eigenvalues.

  State    Occupation    Eigenvalue [Ha]    Eigenvalue [eV]
      1       2.00000         -19.007899         -517.23125
      2       2.00000         -18.977142         -516.39431
      3       2.00000         -14.246487         -387.66662
      4       2.00000         -10.166843         -276.65387
      5       2.00000         -10.141711         -275.96999
      6       2.00000         -10.132035         -275.70671
      7       2.00000          -1.182546          -32.17871
      8       2.00000          -1.101069          -29.96162
      9       2.00000          -0.993319          -27.02957
     10       2.00000          -0.858985          -23.37416
     11       2.00000          -0.756494          -20.58526
     12       2.00000          -0.681109          -18.53392
     13       2.00000          -0.649236          -17.66662
     14       2.00000          -0.595705          -16.20995
     15       2.00000          -0.577549          -15.71590
     16       2.00000          -0.558306          -15.19229
     17       2.00000          -0.552477          -15.03367
     18       2.00000          -0.544081          -14.80521
     19       2.00000          -0.527554          -14.35548
     20       2.00000          -0.490959          -13.35967
     21       2.00000          -0.471082          -12.81878
     22       2.00000          -0.428223          -11.65255
     23       2.00000          -0.400605          -10.90103
     24       2.00000          -0.391963          -10.66586
     25       0.00000          -0.153614           -4.18005
     26       0.00000          -0.084294           -2.29377
     27       0.00000          -0.030320           -0.82505
     28       0.00000          -0.027083           -0.73697
     29       0.00000           0.004240            0.11537
     30       0.00000           0.010240            0.27865
     31       0.00000           0.023978            0.65246
     32       0.00000           0.040244            1.09509
     33       0.00000           0.057353            1.56065
     34       0.00000           0.070912            1.92962
     35       0.00000           0.096811            2.63435
     36       0.00000           0.132733            3.61186
     37       0.00000           0.170292            4.63388
     38       0.00000           0.206608            5.62208
     39       0.00000           0.219281            5.96694
     40       0.00000           0.228061            6.20586
     41       0.00000           0.240397            6.54153
     42       0.00000           0.261919            7.12719
     43       0.00000           0.290253            7.89819
     44       0.00000           0.302220            8.22383
     45       0.00000           0.326244            8.87755
     46       0.00000           0.339825            9.24712
     47       0.00000           0.373075           10.15189
     48       0.00000           0.383186           10.42701
     49       0.00000           0.445044           12.11025
     50       0.00000           0.465007           12.65348
     51       0.00000           0.513211           13.96517
     52       0.00000           0.544461           14.81553
     53       0.00000           0.580534           15.79715

  Highest occupied state (VBM) at    -10.66585684 eV
  | Occupation number:      2.00000000

  Lowest unoccupied state (CBM) at    -4.18004825 eV
  | Occupation number:      0.00000000

  Overall HOMO-LUMO gap:      6.48580860 eV.
  Calculating total energy contributions from superposition of free atom densities.

  Total energy components:
  | Sum of eigenvalues            :        -188.86675784 Ha       -5139.32596680 eV
  | XC energy correction          :         -41.80616715 Ha       -1137.60368893 eV
  | XC potential correction       :          53.74411262 Ha        1462.45171300 eV
  | Free-atom electrostatic energy:        -146.82207276 Ha       -3995.23187495 eV
  | Hartree energy correction     :           0.00000000 Ha           0.00000000 eV
  | vdW energy correction         :           0.00000000 Ha           0.00000000 eV
  | Entropy correction            :           0.00000000 Ha           0.00000000 eV
  | ---------------------------
  | Total energy                  :        -323.75088514 Ha       -8809.70981767 eV
  | Total energy, T -> 0          :        -323.75088514 Ha       -8809.70981767 eV  <-- do not rely on this value for anything but (periodic) metals
  | Electronic free energy        :        -323.75088514 Ha       -8809.70981767 eV

  Derived energy quantities:
  | Kinetic energy                :         320.53877736 Ha        8722.30391800 eV
  | Electrostatic energy          :        -602.48349535 Ha      -16394.41004674 eV
  | Energy correction for multipole
  | error in Hartree potential    :           0.00000000 Ha           0.00000000 eV
  | Sum of eigenvalues per atom                           :        -395.33276668 eV
  | Total energy (T->0) per atom                          :        -677.66998597 eV  <-- do not rely on this value for anything but (periodic) metals
  | Electronic free energy per atom                       :        -677.66998597 eV
  Initialize hartree_potential_storage
  Max. number of atoms included in rho_multipole:           13

  End scf initialization - timings             :  max(cpu_time)    wall_clock(cpu1)
  | Time for scf. initialization               :        1.142 s           1.149 s
  | Boundary condition initialization          :        0.000 s           0.000 s
  | Integration                                :        0.705 s           0.706 s
  | Solution of K.-S. eqns.                    :        0.004 s           0.004 s
  | Grid partitioning                          :        0.109 s           0.115 s
  | Preloading free-atom quantities on grid    :        0.002 s           0.003 s
  | Free-atom superposition energy             :        0.084 s           0.084 s
  | Total energy evaluation                    :        0.000 s           0.000 s

  Partial memory accounting:
  | Current value for overall tracked memory usage on task 0  :           0.165 MB
  | Peak value for overall tracked memory usage on task 0     :           0.678 MB after allocating wave
  | Largest tracked array allocation on task 0 so far         :           0.132 MB  when allocating H_times_psi
  Note:  These values currently only include a subset of arrays which are explicitly tracked.
  The "true" memory usage will be greater.
------------------------------------------------------------

------------------------------------------------------------
          Begin self-consistency iteration #    1

  Date     :  20200815, Time     :  002311.337
------------------------------------------------------------
  Evaluating new KS density.
  Integration grid: deviation in total charge (<rho> - N_e) =   1.421085E-14
  Pulay mixing of updated and previous charge densities.

  Evaluating partitioned Hartree potential by multipole expansion.
  | Analytical far-field extrapolation by fixed multipoles:
  | Hartree multipole sum: apparent total charge =  -0.224207E-03
  Summing up the Hartree potential.
  Time summed over all CPUs for potential: real work        0.279 s, elapsed        0.279 s
  | RMS charge density error from multipole expansion :   0.593403E-02

  Integrating Hamiltonian matrix: batch-based integration.
  Time summed over all CPUs for integration: real work        0.493 s, elapsed        0.493 s

  Updating Kohn-Sham eigenvalues and eigenvectors using ELSI and the ELPA eigensolver.
  Finished Cholesky decomposition
  | Time :     0.000 s
  Finished transformation to standard eigenproblem
  | Time :     0.000 s
  Starting LAPACK eigensolver
  Finished solving standard eigenproblem
  | Time :     0.001 s
  Finished back-transformation of eigenvectors
  | Time :     0.000 s

  Obtaining occupation numbers and chemical potential using ELSI.
  | Chemical potential (Fermi level):    -8.19792846eV
  Writing Kohn-Sham eigenvalues.

  State    Occupation    Eigenvalue [Ha]    Eigenvalue [eV]
      1       2.00000         -18.906547         -514.47332
      2       2.00000         -18.833190         -512.47717
      3       2.00000         -14.105980         -383.84324
      4       2.00000         -10.116427         -275.28199
      5       2.00000         -10.067212         -273.94279
      6       2.00000         -10.034837         -273.06181
      7       2.00000          -1.134594          -30.87387
      8       2.00000          -1.036746          -28.21130
      9       2.00000          -0.930078          -25.30871
     10       2.00000          -0.797108          -21.69042
     11       2.00000          -0.706501          -19.22486
     12       2.00000          -0.639088          -17.39046
     13       2.00000          -0.599821          -16.32197
     14       2.00000          -0.534561          -14.54616
     15       2.00000          -0.527373          -14.35056
     16       2.00000          -0.497963          -13.55027
     17       2.00000          -0.493072          -13.41716
     18       2.00000          -0.486259          -13.23179
     19       2.00000          -0.468868          -12.75854
     20       2.00000          -0.438405          -11.92961
     21       2.00000          -0.414253          -11.27239
     22       2.00000          -0.368646          -10.03138
     23       2.00000          -0.327754           -8.91865
     24       2.00000          -0.322516           -8.77612
     25       0.00000          -0.116628           -3.17361
     26       0.00000          -0.066563           -1.81126
     27       0.00000          -0.001175           -0.03196
     28       0.00000           0.013661            0.37173
     29       0.00000           0.032107            0.87366
     30       0.00000           0.041994            1.14272
     31       0.00000           0.063007            1.71451
     32       0.00000           0.078000            2.12249
     33       0.00000           0.094220            2.56384
     34       0.00000           0.107244            2.91824
     35       0.00000           0.122819            3.34208
     36       0.00000           0.160389            4.36440
     37       0.00000           0.194205            5.28459
     38       0.00000           0.235818            6.41694
     39       0.00000           0.248616            6.76519
     40       0.00000           0.262475            7.14232
     41       0.00000           0.268590            7.30872
     42       0.00000           0.295946            8.05309
     43       0.00000           0.324332            8.82552
     44       0.00000           0.339887            9.24879
     45       0.00000           0.363358            9.88749
     46       0.00000           0.371771           10.11641
     47       0.00000           0.415567           11.30816
     48       0.00000           0.421550           11.47097
     49       0.00000           0.479260           13.04132
     50       0.00000           0.496079           13.49899
     51       0.00000           0.546350           14.86694
     52       0.00000           0.574706           15.63854
     53       0.00000           0.613745           16.70086

  Highest occupied state (VBM) at     -8.77611624 eV
  | Occupation number:      2.00000000

  Lowest unoccupied state (CBM) at    -3.17360656 eV
  | Occupation number:      0.00000000

  Overall HOMO-LUMO gap:      5.60250968 eV.

  Total energy components:
  | Sum of eigenvalues            :        -185.57560154 Ha       -5049.76904742 eV
  | XC energy correction          :         -42.12912177 Ha       -1146.39173103 eV
  | XC potential correction       :          54.16400174 Ha        1473.87747741 eV
  | Free-atom electrostatic energy:        -146.82207276 Ha       -3995.23187495 eV
  | Hartree energy correction     :          -3.20775032 Ha         -87.28732738 eV
  | vdW energy correction         :           0.00000000 Ha           0.00000000 eV
  | Entropy correction            :           0.00000000 Ha           0.00000000 eV
  | ---------------------------
  | Total energy                  :        -323.57054465 Ha       -8804.80250337 eV
  | Total energy, T -> 0          :        -323.57054465 Ha       -8804.80250337 eV  <-- do not rely on this value for anything but (periodic) metals
  | Electronic free energy        :        -323.57054465 Ha       -8804.80250337 eV

  Derived energy quantities:
  | Kinetic energy                :         322.30640513 Ha        8770.40351676 eV
  | Electrostatic energy          :        -603.74782801 Ha      -16428.81428910 eV
  | Energy correction for multipole
  | error in Hartree potential    :           0.01185299 Ha           0.32253627 eV
  | Sum of eigenvalues per atom                           :        -388.44377288 eV
  | Total energy (T->0) per atom                          :        -677.29250026 eV  <-- do not rely on this value for anything but (periodic) metals
  | Electronic free energy per atom                       :        -677.29250026 eV

  Self-consistency convergence accuracy:
  | Change of charge density      :  0.5812E+00
  | Change of sum of eigenvalues  :  0.8956E+02 eV
  | Change of total energy        :  0.4907E+01 eV

  End self-consistency iteration #     1       :  max(cpu_time)    wall_clock(cpu1)
  | Time for this iteration                    :        1.182 s           1.183 s
  | Charge density update                      :        0.393 s           0.394 s
  | Density mixing                             :        0.005 s           0.005 s
  | Hartree multipole update                   :        0.009 s           0.009 s
  | Hartree multipole summation                :        0.280 s           0.280 s
  | Integration                                :        0.493 s           0.493 s
  | Solution of K.-S. eqns.                    :        0.002 s           0.002 s
  | Total energy evaluation                    :        0.000 s           0.000 s

  Partial memory accounting:
  | Current value for overall tracked memory usage on task 0  :           0.165 MB
  | Peak value for overall tracked memory usage on task 0     :           0.695 MB after allocating gradient_basis_wave
  | Largest tracked array allocation on task 0 so far         :           0.397 MB  when allocating gradient_basis_wave
  Note:  These values currently only include a subset of arrays which are explicitly tracked.
  The "true" memory usage will be greater.
------------------------------------------------------------

------------------------------------------------------------
          Begin self-consistency iteration #    2

  Date     :  20200815, Time     :  002312.521
------------------------------------------------------------
  Evaluating new KS density.
  Integration grid: deviation in total charge (<rho> - N_e) =   7.105427E-15
  Pulay mixing of updated and previous charge densities.

  Evaluating partitioned Hartree potential by multipole expansion.
  | Analytical far-field extrapolation by fixed multipoles:
  | Hartree multipole sum: apparent total charge =  -0.361076E-03
  Summing up the Hartree potential.
  Time summed over all CPUs for potential: real work        0.279 s, elapsed        0.279 s
  | RMS charge density error from multipole expansion :   0.140558E-01

  Integrating Hamiltonian matrix: batch-based integration.
  Time summed over all CPUs for integration: real work        0.492 s, elapsed        0.492 s

  Updating Kohn-Sham eigenvalues and eigenvectors using ELSI and the ELPA eigensolver.
  Finished Cholesky decomposition
  | Time :     0.000 s
  Finished transformation to standard eigenproblem
  | Time :     0.000 s
  Starting LAPACK eigensolver
  Finished solving standard eigenproblem
  | Time :     0.001 s
  Finished back-transformation of eigenvectors
  | Time :     0.000 s

  Obtaining occupation numbers and chemical potential using ELSI.
  | Chemical potential (Fermi level):    -2.92753617eV
  Highest occupied state (VBM) at     -6.87613796 eV
  | Occupation number:      2.00000000

  Lowest unoccupied state (CBM) at    -1.91007183 eV
  | Occupation number:      0.00000000

  Overall HOMO-LUMO gap:      4.96606613 eV.

  Checking to see if s.c.f. parameters should be adjusted.

  Total energy components:
  | Sum of eigenvalues            :        -182.14997198 Ha       -4956.55292433 eV
  | XC energy correction          :         -42.47875096 Ha       -1155.90562543 eV
  | XC potential correction       :          54.61690597 Ha        1486.20162866 eV
  | Free-atom electrostatic energy:        -146.82207276 Ha       -3995.23187495 eV
  | Hartree energy correction     :          -6.65950107 Ha        -181.21424415 eV
  | vdW energy correction         :           0.00000000 Ha           0.00000000 eV
  | Entropy correction            :           0.00000000 Ha           0.00000000 eV
  | ---------------------------
  | Total energy                  :        -323.49339080 Ha       -8802.70304021 eV
  | Total energy, T -> 0          :        -323.49339080 Ha       -8802.70304021 eV  <-- do not rely on this value for anything but (periodic) metals
  | Electronic free energy        :        -323.49339080 Ha       -8802.70304021 eV

  Derived energy quantities:
  | Kinetic energy                :         323.59286267 Ha        8805.40980764 eV
  | Electrostatic energy          :        -604.60750251 Ha      -16452.20722242 eV
  | Energy correction for multipole
  | error in Hartree potential    :           0.02597574 Ha           0.70683594 eV
  | Sum of eigenvalues per atom                           :        -381.27330187 eV
  | Total energy (T->0) per atom                          :        -677.13100309 eV  <-- do not rely on this value for anything but (periodic) metals
  | Electronic free energy per atom                       :        -677.13100309 eV

  Self-consistency convergence accuracy:
  | Change of charge density      :  0.3635E+00
  | Change of sum of eigenvalues  :  0.9322E+02 eV
  | Change of total energy        :  0.2099E+01 eV

  End self-consistency iteration #     2       :  max(cpu_time)    wall_clock(cpu1)
  | Time for this iteration                    :        1.174 s           1.175 s
  | Charge density update                      :        0.385 s           0.385 s
  | Density mixing                             :        0.006 s           0.007 s
  | Hartree multipole update                   :        0.009 s           0.008 s
  | Hartree multipole summation                :        0.279 s           0.280 s
  | Integration                                :        0.493 s           0.492 s
  | Solution of K.-S. eqns.                    :        0.002 s           0.002 s
  | Total energy evaluation                    :        0.000 s           0.000 s

  Partial memory accounting:
  | Current value for overall tracked memory usage on task 0  :           0.166 MB
  | Peak value for overall tracked memory usage on task 0     :           0.695 MB after allocating gradient_basis_wave
  | Largest tracked array allocation on task 0 so far         :           0.397 MB  when allocating gradient_basis_wave
  Note:  These values currently only include a subset of arrays which are explicitly tracked.
  The "true" memory usage will be greater.
------------------------------------------------------------

------------------------------------------------------------
          Begin self-consistency iteration #    3

  Date     :  20200815, Time     :  002313.696
------------------------------------------------------------
  Evaluating new KS density.
  Integration grid: deviation in total charge (<rho> - N_e) =   2.842171E-14
  Pulay mixing of updated and previous charge densities.

  Evaluating partitioned Hartree potential by multipole expansion.
  | Analytical far-field extrapolation by fixed multipoles:
  | Hartree multipole sum: apparent total charge =  -0.457470E-03
  Summing up the Hartree potential.
  Time summed over all CPUs for potential: real work        0.279 s, elapsed        0.279 s
  | RMS charge density error from multipole expansion :   0.222543E-01

  Integrating Hamiltonian matrix: batch-based integration.
  Time summed over all CPUs for integration: real work        0.492 s, elapsed        0.492 s

  Updating Kohn-Sham eigenvalues and eigenvectors using ELSI and the ELPA eigensolver.
  Finished Cholesky decomposition
  | Time :     0.000 s
  Finished transformation to standard eigenproblem
  | Time :     0.000 s
  Starting LAPACK eigensolver
  Finished solving standard eigenproblem
  | Time :     0.001 s
  Finished back-transformation of eigenvectors
  | Time :     0.000 s

  Obtaining occupation numbers and chemical potential using ELSI.
  | Chemical potential (Fermi level):    -2.37439705eV
  Highest occupied state (VBM) at     -6.21796745 eV
  | Occupation number:      2.00000000

  Lowest unoccupied state (CBM) at    -1.22099063 eV
  | Occupation number:      0.00000000

  Overall HOMO-LUMO gap:      4.99697681 eV.

  Total energy components:
  | Sum of eigenvalues            :        -180.86064453 Ha       -4921.46853929 eV
  | XC energy correction          :         -42.63131711 Ha       -1160.05716152 eV
  | XC potential correction       :          54.81111764 Ha        1491.48639691 eV
  | Free-atom electrostatic energy:        -146.82207276 Ha       -3995.23187495 eV
  | Hartree energy correction     :          -7.97797027 Ha        -217.09161662 eV
  | vdW energy correction         :           0.00000000 Ha           0.00000000 eV
  | Entropy correction            :           0.00000000 Ha           0.00000000 eV
  | ---------------------------
  | Total energy                  :        -323.48088703 Ha       -8802.36279547 eV
  | Total energy, T -> 0          :        -323.48088703 Ha       -8802.36279547 eV  <-- do not rely on this value for anything but (periodic) metals
  | Electronic free energy        :        -323.48088703 Ha       -8802.36279547 eV

  Derived energy quantities:
  | Kinetic energy                :         323.21379067 Ha        8795.09473359 eV
  | Electrostatic energy          :        -604.06336060 Ha      -16437.40036753 eV
  | Energy correction for multipole
  | error in Hartree potential    :           0.03687124 Ha           1.00331747 eV
  | Sum of eigenvalues per atom                           :        -378.57450302 eV
  | Total energy (T->0) per atom                          :        -677.10483042 eV  <-- do not rely on this value for anything but (periodic) metals
  | Electronic free energy per atom                       :        -677.10483042 eV

  Self-consistency convergence accuracy:
  | Change of charge density      :  0.2051E+00
  | Change of sum of eigenvalues  :  0.3508E+02 eV
  | Change of total energy        :  0.3402E+00 eV

  End self-consistency iteration #     3       :  max(cpu_time)    wall_clock(cpu1)
  | Time for this iteration                    :        1.177 s           1.178 s
  | Charge density update                      :        0.385 s           0.386 s
  | Density mixing                             :        0.008 s           0.008 s
  | Hartree multipole update                   :        0.009 s           0.009 s
  | Hartree multipole summation                :        0.280 s           0.280 s
  | Integration                                :        0.493 s           0.492 s
  | Solution of K.-S. eqns.                    :        0.002 s           0.002 s
  | Total energy evaluation                    :        0.000 s           0.000 s

  Partial memory accounting:
  | Current value for overall tracked memory usage on task 0  :           0.166 MB
  | Peak value for overall tracked memory usage on task 0     :           0.695 MB after allocating gradient_basis_wave
  | Largest tracked array allocation on task 0 so far         :           0.397 MB  when allocating gradient_basis_wave
  Note:  These values currently only include a subset of arrays which are explicitly tracked.
  The "true" memory usage will be greater.
------------------------------------------------------------

------------------------------------------------------------
          Begin self-consistency iteration #    4

  Date     :  20200815, Time     :  002314.874
------------------------------------------------------------
  Evaluating new KS density.
  Integration grid: deviation in total charge (<rho> - N_e) =   2.131628E-14
  Pulay mixing of updated and previous charge densities.

  Evaluating partitioned Hartree potential by multipole expansion.
  | Analytical far-field extrapolation by fixed multipoles:
  | Hartree multipole sum: apparent total charge =  -0.489064E-03
  Summing up the Hartree potential.
  Time summed over all CPUs for potential: real work        0.279 s, elapsed        0.279 s
  | RMS charge density error from multipole expansion :   0.257982E-01

  Integrating Hamiltonian matrix: batch-based integration.
  Time summed over all CPUs for integration: real work        0.492 s, elapsed        0.492 s

  Updating Kohn-Sham eigenvalues and eigenvectors using ELSI and the ELPA eigensolver.
  Finished Cholesky decomposition
  | Time :     0.000 s
  Finished transformation to standard eigenproblem
  | Time :     0.000 s
  Starting LAPACK eigensolver
  Finished solving standard eigenproblem
  | Time :     0.001 s
  Finished back-transformation of eigenvectors
  | Time :     0.000 s

  Obtaining occupation numbers and chemical potential using ELSI.
  | Chemical potential (Fermi level):    -2.28327671eV
  Highest occupied state (VBM) at     -6.10574824 eV
  | Occupation number:      2.00000000

  Lowest unoccupied state (CBM) at    -1.14036155 eV
  | Occupation number:      0.00000000

  Overall HOMO-LUMO gap:      4.96538669 eV.

  Total energy components:
  | Sum of eigenvalues            :        -180.75471625 Ha       -4918.58608395 eV
  | XC energy correction          :         -42.66892451 Ha       -1161.08051107 eV
  | XC potential correction       :          54.85817206 Ha        1492.76681298 eV
  | Free-atom electrostatic energy:        -146.82207276 Ha       -3995.23187495 eV
  | Hartree energy correction     :          -8.09233422 Ha        -220.20361797 eV
  | vdW energy correction         :           0.00000000 Ha           0.00000000 eV
  | Entropy correction            :           0.00000000 Ha           0.00000000 eV
  | ---------------------------
  | Total energy                  :        -323.47987567 Ha       -8802.33527497 eV
  | Total energy, T -> 0          :        -323.47987567 Ha       -8802.33527497 eV  <-- do not rely on this value for anything but (periodic) metals
  | Electronic free energy        :        -323.47987567 Ha       -8802.33527497 eV

  Derived energy quantities:
  | Kinetic energy                :         322.82686688 Ha        8784.56600156 eV
  | Electrostatic energy          :        -603.63781804 Ha      -16425.82076546 eV
  | Energy correction for multipole
  | error in Hartree potential    :           0.04111338 Ha           1.11875197 eV
  | Sum of eigenvalues per atom                           :        -378.35277569 eV
  | Total energy (T->0) per atom                          :        -677.10271346 eV  <-- do not rely on this value for anything but (periodic) metals
  | Electronic free energy per atom                       :        -677.10271346 eV

  Self-consistency convergence accuracy:
  | Change of charge density      :  0.6722E-01
  | Change of sum of eigenvalues  :  0.2882E+01 eV
  | Change of total energy        :  0.2752E-01 eV

  End self-consistency iteration #     4       :  max(cpu_time)    wall_clock(cpu1)
  | Time for this iteration                    :        1.177 s           1.178 s
  | Charge density update                      :        0.385 s           0.386 s
  | Density mixing                             :        0.009 s           0.009 s
  | Hartree multipole update                   :        0.009 s           0.009 s
  | Hartree multipole summation                :        0.279 s           0.279 s
  | Integration                                :        0.492 s           0.493 s
  | Solution of K.-S. eqns.                    :        0.002 s           0.002 s
  | Total energy evaluation                    :        0.000 s           0.000 s

  Partial memory accounting:
  | Current value for overall tracked memory usage on task 0  :           0.166 MB
  | Peak value for overall tracked memory usage on task 0     :           0.696 MB after allocating gradient_basis_wave
  | Largest tracked array allocation on task 0 so far         :           0.397 MB  when allocating gradient_basis_wave
  Note:  These values currently only include a subset of arrays which are explicitly tracked.
  The "true" memory usage will be greater.
------------------------------------------------------------

------------------------------------------------------------
          Begin self-consistency iteration #    5

  Date     :  20200815, Time     :  002316.053
------------------------------------------------------------
  Evaluating new KS density.
  Integration grid: deviation in total charge (<rho> - N_e) =   7.105427E-15
  Pulay mixing of updated and previous charge densities.

  Evaluating partitioned Hartree potential by multipole expansion.
  | Analytical far-field extrapolation by fixed multipoles:
  | Hartree multipole sum: apparent total charge =  -0.483409E-03
  Summing up the Hartree potential.
  Time summed over all CPUs for potential: real work        0.279 s, elapsed        0.279 s
  | RMS charge density error from multipole expansion :   0.255380E-01

  Integrating Hamiltonian matrix: batch-based integration.
  Time summed over all CPUs for integration: real work        0.492 s, elapsed        0.492 s

  Updating Kohn-Sham eigenvalues and eigenvectors using ELSI and the ELPA eigensolver.
  Finished Cholesky decomposition
  | Time :     0.000 s
  Finished transformation to standard eigenproblem
  | Time :     0.000 s
  Starting LAPACK eigensolver
  Finished solving standard eigenproblem
  | Time :     0.001 s
  Finished back-transformation of eigenvectors
  | Time :     0.000 s

  Obtaining occupation numbers and chemical potential using ELSI.
  | Chemical potential (Fermi level):    -2.33251799eV
  Highest occupied state (VBM) at     -6.16587818 eV
  | Occupation number:      2.00000000

  Lowest unoccupied state (CBM) at    -1.21551864 eV
  | Occupation number:      0.00000000

  Overall HOMO-LUMO gap:      4.95035954 eV.

  Total energy components:
  | Sum of eigenvalues            :        -180.91443757 Ha       -4922.93232220 eV
  | XC energy correction          :         -42.64833758 Ha       -1160.52031224 eV
  | XC potential correction       :          54.83148597 Ha        1492.04064753 eV
  | Free-atom electrostatic energy:        -146.82207276 Ha       -3995.23187495 eV
  | Hartree energy correction     :          -7.92621201 Ha        -215.68320275 eV
  | vdW energy correction         :           0.00000000 Ha           0.00000000 eV
  | Entropy correction            :           0.00000000 Ha           0.00000000 eV
  | ---------------------------
  | Total energy                  :        -323.47957395 Ha       -8802.32706461 eV
  | Total energy, T -> 0          :        -323.47957395 Ha       -8802.32706461 eV  <-- do not rely on this value for anything but (periodic) metals
  | Electronic free energy        :        -323.47957395 Ha       -8802.32706461 eV

  Derived energy quantities:
  | Kinetic energy                :         322.73917814 Ha        8782.17986945 eV
  | Electrostatic energy          :        -603.57041450 Ha      -16423.98662182 eV
  | Energy correction for multipole
  | error in Hartree potential    :           0.04051563 Ha           1.10248647 eV
  | Sum of eigenvalues per atom                           :        -378.68710171 eV
  | Total energy (T->0) per atom                          :        -677.10208189 eV  <-- do not rely on this value for anything but (periodic) metals
  | Electronic free energy per atom                       :        -677.10208189 eV

  Self-consistency convergence accuracy:
  | Change of charge density      :  0.2204E-01
  | Change of sum of eigenvalues  : -0.4346E+01 eV
  | Change of total energy        :  0.8210E-02 eV

  End self-consistency iteration #     5       :  max(cpu_time)    wall_clock(cpu1)
  | Time for this iteration                    :        1.179 s           1.179 s
  | Charge density update                      :        0.385 s           0.385 s
  | Density mixing                             :        0.010 s           0.011 s
  | Hartree multipole update                   :        0.009 s           0.009 s
  | Hartree multipole summation                :        0.279 s           0.279 s
  | Integration                                :        0.492 s           0.493 s
  | Solution of K.-S. eqns.                    :        0.002 s           0.002 s
  | Total energy evaluation                    :        0.000 s           0.000 s

  Partial memory accounting:
  | Current value for overall tracked memory usage on task 0  :           0.166 MB
  | Peak value for overall tracked memory usage on task 0     :           0.696 MB after allocating gradient_basis_wave
  | Largest tracked array allocation on task 0 so far         :           0.397 MB  when allocating gradient_basis_wave
  Note:  These values currently only include a subset of arrays which are explicitly tracked.
  The "true" memory usage will be greater.
------------------------------------------------------------

------------------------------------------------------------
          Begin self-consistency iteration #    6

  Date     :  20200815, Time     :  002317.233
------------------------------------------------------------
  Evaluating new KS density.
  Integration grid: deviation in total charge (<rho> - N_e) =   1.421085E-14
  Pulay mixing of updated and previous charge densities.

  Evaluating partitioned Hartree potential by multipole expansion.
  | Analytical far-field extrapolation by fixed multipoles:
  | Hartree multipole sum: apparent total charge =  -0.485360E-03
  Summing up the Hartree potential.
  Time summed over all CPUs for potential: real work        0.279 s, elapsed        0.279 s
  | RMS charge density error from multipole expansion :   0.258859E-01

  Integrating Hamiltonian matrix: batch-based integration.
  Time summed over all CPUs for integration: real work        0.493 s, elapsed        0.493 s

  Updating Kohn-Sham eigenvalues and eigenvectors using ELSI and the ELPA eigensolver.
  Finished Cholesky decomposition
  | Time :     0.000 s
  Finished transformation to standard eigenproblem
  | Time :     0.000 s
  Starting LAPACK eigensolver
  Finished solving standard eigenproblem
  | Time :     0.001 s
  Finished back-transformation of eigenvectors
  | Time :     0.000 s

  Obtaining occupation numbers and chemical potential using ELSI.
  | Chemical potential (Fermi level):    -2.33843502eV
  Highest occupied state (VBM) at     -6.14736605 eV
  | Occupation number:      2.00000000

  Lowest unoccupied state (CBM) at    -1.24438896 eV
  | Occupation number:      0.00000000

  Overall HOMO-LUMO gap:      4.90297708 eV.

  Total energy components:
  | Sum of eigenvalues            :        -180.94891860 Ha       -4923.87059879 eV
  | XC energy correction          :         -42.64403839 Ha       -1160.40332518 eV
  | XC potential correction       :          54.82586765 Ha        1491.88776530 eV
  | Free-atom electrostatic energy:        -146.82207276 Ha       -3995.23187495 eV
  | Hartree energy correction     :          -7.89035336 Ha        -214.70743909 eV
  | vdW energy correction         :           0.00000000 Ha           0.00000000 eV
  | Entropy correction            :           0.00000000 Ha           0.00000000 eV
  | ---------------------------
  | Total energy                  :        -323.47951545 Ha       -8802.32547271 eV
  | Total energy, T -> 0          :        -323.47951545 Ha       -8802.32547271 eV  <-- do not rely on this value for anything but (periodic) metals
  | Electronic free energy        :        -323.47951545 Ha       -8802.32547271 eV

  Derived energy quantities:
  | Kinetic energy                :         322.65515211 Ha        8779.89340508 eV
  | Electrostatic energy          :        -603.49062917 Ha      -16421.81555260 eV
  | Energy correction for multipole
  | error in Hartree potential    :           0.04074649 Ha           1.10876848 eV
  | Sum of eigenvalues per atom                           :        -378.75927683 eV
  | Total energy (T->0) per atom                          :        -677.10195944 eV  <-- do not rely on this value for anything but (periodic) metals
  | Electronic free energy per atom                       :        -677.10195944 eV

  Self-consistency convergence accuracy:
  | Change of charge density      :  0.1066E-01
  | Change of sum of eigenvalues  : -0.9383E+00 eV
  | Change of total energy        :  0.1592E-02 eV

  End self-consistency iteration #     6       :  max(cpu_time)    wall_clock(cpu1)
  | Time for this iteration                    :        1.184 s           1.185 s
  | Charge density update                      :        0.389 s           0.389 s
  | Density mixing                             :        0.012 s           0.012 s
  | Hartree multipole update                   :        0.009 s           0.009 s
  | Hartree multipole summation                :        0.280 s           0.279 s
  | Integration                                :        0.493 s           0.493 s
  | Solution of K.-S. eqns.                    :        0.002 s           0.002 s
  | Total energy evaluation                    :        0.000 s           0.000 s

  Partial memory accounting:
  | Current value for overall tracked memory usage on task 0  :           0.166 MB
  | Peak value for overall tracked memory usage on task 0     :           0.696 MB after allocating gradient_basis_wave
  | Largest tracked array allocation on task 0 so far         :           0.397 MB  when allocating gradient_basis_wave
  Note:  These values currently only include a subset of arrays which are explicitly tracked.
  The "true" memory usage will be greater.
------------------------------------------------------------

------------------------------------------------------------
          Begin self-consistency iteration #    7

  Date     :  20200815, Time     :  002318.418
------------------------------------------------------------
  Evaluating new KS density.
  Integration grid: deviation in total charge (<rho> - N_e) =  -4.973799E-14
  Pulay mixing of updated and previous charge densities.

  Evaluating partitioned Hartree potential by multipole expansion.
  | Analytical far-field extrapolation by fixed multipoles:
  | Hartree multipole sum: apparent total charge =  -0.486290E-03
  Summing up the Hartree potential.
  Time summed over all CPUs for potential: real work        0.279 s, elapsed        0.279 s
  | RMS charge density error from multipole expansion :   0.260230E-01

  Integrating Hamiltonian matrix: batch-based integration.
  Time summed over all CPUs for integration: real work        0.493 s, elapsed        0.493 s

  Updating Kohn-Sham eigenvalues and eigenvectors using ELSI and the ELPA eigensolver.
  Finished Cholesky decomposition
  | Time :     0.000 s
  Finished transformation to standard eigenproblem
  | Time :     0.000 s
  Starting LAPACK eigensolver
  Finished solving standard eigenproblem
  | Time :     0.001 s
  Finished back-transformation of eigenvectors
  | Time :     0.000 s

[...]
  |   Hirshfeld dipole moment :      0.05843550
  |   Hirshfeld second moments:      0.00306055      -0.02850926      -0.01871256
  |                                 -0.02850926      -0.02016760       0.00949282
  |                                 -0.01871256       0.00949282      -0.01461466
  ----------------------------------------------------------------------
  | Atom    12: O
  |   Hirshfeld charge        :     -0.13962530
  |   Free atom volume        :     23.61338643
  |   Hirshfeld volume        :     21.02669747
  |   Hirshfeld dipole vector :      0.01128535       0.03875375      -0.00393786
  |   Hirshfeld dipole moment :      0.04055514
  |   Hirshfeld second moments:      0.08655477      -0.01904949       0.02353268
  |                                 -0.01904949       0.03457284       0.00438151
  |                                  0.02353268       0.00438151       0.04959620
  ----------------------------------------------------------------------
  | Atom    13: H
  |   Hirshfeld charge        :      0.15503637
  |   Free atom volume        :      9.95071624
  |   Hirshfeld volume        :      6.62419215
  |   Hirshfeld dipole vector :     -0.08692117       0.04476355      -0.03750637
  |   Hirshfeld dipole moment :      0.10471768
  |   Hirshfeld second moments:      0.11522732      -0.00477791       0.00636706
  |                                 -0.00477791       0.08534892       0.02131731
  |                                  0.00636706       0.02131731       0.10212187
  ----------------------------------------------------------------------


  Total energy components:
  | Sum of eigenvalues            :        -180.94498486 Ha       -4923.76355624 eV
  | XC energy correction          :         -42.64145227 Ha       -1160.33295327 eV
  | XC potential correction       :          54.82258742 Ha        1491.79850566 eV
  | Free-atom electrostatic energy:        -146.82207276 Ha       -3995.23187495 eV
  | Hartree energy correction     :          -7.89357079 Ha        -214.79498988 eV
  | vdW energy correction         :          -0.00330353 Ha          -0.08989375 eV
  | Entropy correction            :           0.00000000 Ha           0.00000000 eV
  | ---------------------------
  | Total energy                  :        -323.48279678 Ha       -8802.41476243 eV
  | Total energy, T -> 0          :        -323.48279678 Ha       -8802.41476243 eV  <-- do not rely on this value for anything but (periodic) metals
  | Electronic free energy        :        -323.48279678 Ha       -8802.41476243 eV

  Derived energy quantities:
  | Kinetic energy                :         322.61693284 Ha        8778.85340570 eV
  | Electrostatic energy          :        -603.45497382 Ha      -16420.84532111 eV
  | Energy correction for multipole
  | error in Hartree potential    :           0.04083278 Ha           1.11111657 eV
  | Sum of eigenvalues per atom                           :        -378.75104279 eV
  | Total energy (T->0) per atom                          :        -677.10882788 eV  <-- do not rely on this value for anything but (periodic) metals
  | Electronic free energy per atom                       :        -677.10882788 eV

  atomic forces [eV/Ang]:
  -----------------------
  atom #    1
   Hellmann-Feynman              :  0.176874E+00  0.593375E+00  0.152608E+01
   Ionic forces                  :  0.000000E+00  0.000000E+00  0.000000E+00
   Multipole                     : -0.114266E+00  0.333438E+00 -0.238182E+00
   Pulay + GGA                   : -0.663883E+00 -0.267564E+00 -0.158575E+01
   Van der Waals                 :  0.281213E-02  0.117922E-02 -0.126512E-02
   ----------------------------------------------------------------
   Total forces(   1)            : -0.598464E+00  0.660428E+00 -0.299116E+00
  atom #    2
   Hellmann-Feynman              :  0.300845E+00 -0.254566E-01 -0.297482E-01
   Ionic forces                  :  0.000000E+00  0.000000E+00  0.000000E+00
   Multipole                     :  0.178711E+00  0.648520E-02 -0.294868E-01
   Pulay + GGA                   : -0.165763E+00 -0.821995E-02  0.367795E-02
   Van der Waals                 :  0.413568E-02 -0.717561E-02 -0.554945E-02
   ----------------------------------------------------------------
   Total forces(   2)            :  0.317929E+00 -0.343670E-01 -0.611066E-01
  atom #    3
   Hellmann-Feynman              :  0.791138E+01 -0.749718E+01 -0.545826E+01
   Ionic forces                  :  0.000000E+00  0.000000E+00  0.000000E+00
   Multipole                     : -0.234969E+00  0.125299E+00 -0.899131E+00
   Pulay + GGA                   : -0.694591E+01  0.673668E+01  0.685247E+01
   Van der Waals                 :  0.402346E-02 -0.487132E-02 -0.863259E-02
   ----------------------------------------------------------------
   Total forces(   3)            :  0.734528E+00 -0.640070E+00  0.486444E+00
  atom #    4
   Hellmann-Feynman              : -0.337720E+00  0.422312E+00 -0.310848E+00
   Ionic forces                  :  0.000000E+00  0.000000E+00  0.000000E+00
   Multipole                     : -0.769784E-01  0.226680E-01 -0.995117E-01
   Pulay + GGA                   :  0.267498E+00  0.997482E-01 -0.156144E+00
   Van der Waals                 : -0.659354E-03 -0.526383E-03 -0.630036E-02
   ----------------------------------------------------------------
   Total forces(   4)            : -0.147860E+00  0.544202E+00 -0.572803E+00
  atom #    5
   Hellmann-Feynman              : -0.289885E+00  0.239190E+00 -0.322949E-01
   Ionic forces                  :  0.000000E+00  0.000000E+00  0.000000E+00
   Multipole                     : -0.538192E-01  0.640352E-01 -0.797934E-01
   Pulay + GGA                   :  0.651108E-01 -0.235714E+00  0.219435E-01
   Van der Waals                 : -0.484284E-02 -0.751144E-02 -0.373864E-02
   ----------------------------------------------------------------
   Total forces(   5)            : -0.283437E+00  0.599993E-01 -0.938834E-01
  atom #    6
   Hellmann-Feynman              :  0.308178E+00 -0.946717E+00  0.597578E+00
   Ionic forces                  :  0.000000E+00  0.000000E+00  0.000000E+00
   Multipole                     : -0.134311E+00  0.612368E+00  0.208828E+00
   Pulay + GGA                   :  0.807697E-01 -0.982605E-01 -0.451515E+00
   Van der Waals                 : -0.142264E-02  0.102956E-01  0.554847E-02
   ----------------------------------------------------------------
   Total forces(   6)            :  0.253215E+00 -0.422314E+00  0.360440E+00
  atom #    7
   Hellmann-Feynman              : -0.240594E+00 -0.459803E-01 -0.330403E-01
   Ionic forces                  :  0.000000E+00  0.000000E+00  0.000000E+00
   Multipole                     : -0.117299E+00  0.506029E-01  0.297751E-01
   Pulay + GGA                   :  0.107425E+00  0.252282E-01  0.183086E-01
   Van der Waals                 : -0.282857E-02  0.132264E-02  0.547579E-02
   ----------------------------------------------------------------
   Total forces(   7)            : -0.253296E+00  0.311734E-01  0.205192E-01
  atom #    8
   Hellmann-Feynman              :  0.742034E-01  0.434964E-01  0.217686E+00
   Ionic forces                  :  0.000000E+00  0.000000E+00  0.000000E+00
   Multipole                     :  0.150939E-01  0.653830E-01  0.125522E+00
   Pulay + GGA                   : -0.466572E-01 -0.436794E-01 -0.110489E+00
   Van der Waals                 : -0.319678E-02  0.110707E-01  0.290265E-03
   ----------------------------------------------------------------
   Total forces(   8)            :  0.394433E-01  0.762707E-01  0.233009E+00
  atom #    9
   Hellmann-Feynman              :  0.106393E+00  0.618127E-01 -0.192488E+00
   Ionic forces                  :  0.000000E+00  0.000000E+00  0.000000E+00
   Multipole                     :  0.199432E-01  0.133727E+00 -0.641838E-02
   Pulay + GGA                   : -0.352114E-01 -0.656184E-01  0.890563E-01
   Van der Waals                 : -0.233561E-02  0.529877E-02  0.762584E-02
   ----------------------------------------------------------------
   Total forces(   9)            :  0.887895E-01  0.135220E+00 -0.102224E+00
  atom #   10
   Hellmann-Feynman              :  0.259986E+01  0.439440E+01  0.204110E+01
   Ionic forces                  :  0.000000E+00  0.000000E+00  0.000000E+00
   Multipole                     :  0.155912E-01 -0.943607E-01  0.244199E+00
   Pulay + GGA                   : -0.925759E+00 -0.297103E+01 -0.372712E+00
   Van der Waals                 :  0.398880E-02 -0.108280E-01 -0.114141E-02
   ----------------------------------------------------------------
   Total forces(  10)            :  0.169368E+01  0.131819E+01  0.191145E+01
  atom #   11
   Hellmann-Feynman              :  0.392858E+01 -0.235121E+01  0.140986E+02
   Ionic forces                  :  0.000000E+00  0.000000E+00  0.000000E+00
   Multipole                     : -0.174117E-01 -0.469794E+00  0.841180E+00
   Pulay + GGA                   : -0.287675E+01  0.335311E+01 -0.141616E+02
   Van der Waals                 : -0.364366E-03 -0.121510E-01  0.648762E-02
   ----------------------------------------------------------------
   Total forces(  11)            :  0.103405E+01  0.519954E+00  0.784660E+00
  atom #   12
   Hellmann-Feynman              : -0.190258E+01 -0.147902E+02 -0.150552E+01
   Ionic forces                  :  0.000000E+00  0.000000E+00  0.000000E+00
   Multipole                     : -0.980702E+00 -0.158795E+01  0.369166E-01
   Pulay + GGA                   :  0.624901E+00  0.149335E+02 -0.180544E+00
   Van der Waals                 :  0.855533E-03  0.575618E-02  0.469928E-02
   ----------------------------------------------------------------
   Total forces(  12)            : -0.225753E+01 -0.143891E+01 -0.164445E+01
  atom #   13
   Hellmann-Feynman              : -0.829915E+00 -0.523882E+00 -0.126356E+01
   Ionic forces                  :  0.000000E+00  0.000000E+00  0.000000E+00
   Multipole                     : -0.661612E-01  0.437407E-01 -0.216557E-02
   Pulay + GGA                   :  0.270711E+00 -0.335489E+00  0.241553E+00
   Van der Waals                 : -0.165445E-03  0.814071E-02 -0.349969E-02
   ----------------------------------------------------------------
   Total forces(  13)            : -0.625531E+00 -0.807490E+00 -0.102767E+01

  Timings for VdW correction (Tkatchenko-Scheffler 2009 or later):
  | CPU time:        0.089 s, Wall clock time:        0.090 s.
  Removing unitary transformations (pure translations, rotations) from forces on atoms.
  Atomic forces before filtering:
  | Net force on center of mass :  -0.447217E-02  0.227699E-02 -0.473796E-02 eV/A
  | Net torque on center of mass:   0.112895E-02  0.136782E-02 -0.992783E-02 eV
  Atomic forces after filtering:
  | Net force on center of mass :  -0.178406E-15 -0.178406E-15  0.356812E-15 eV/A
  | Net torque on center of mass:   0.188817E-14  0.755268E-15  0.566451E-15 eV

  Energy and forces in a compact form:
  | Total energy uncorrected      :         -0.880241476243204E+04 eV
  | Total energy corrected        :         -0.880241476243204E+04 eV  <-- do not rely on this value for anything but (periodic) metals
  | Electronic free energy        :         -0.880241476243204E+04 eV
  Total atomic forces (unitary forces cleaned) [eV/Ang]:
  |   1         -0.598112685381617E+00          0.660436601899789E+00         -0.298718258101915E+00
  |   2          0.318280042695407E+00         -0.339799815975105E-01         -0.606411547592546E-01
  |   3          0.734966413702940E+00         -0.640244339902981E+00          0.486811833342087E+00
  |   4         -0.147284092397611E+00          0.543701817490630E+00         -0.572489465109044E+00
  |   5         -0.283308521605523E+00          0.598184449280311E-01         -0.935272489458435E-01
  |   6          0.253083485311374E+00         -0.422469100691696E+00          0.360791972761673E+00
  |   7         -0.253437382591619E+00          0.306408536887057E-01          0.208033031282509E-01
  |   8          0.392440907349711E-01          0.762533570843397E-01          0.233383499886479E+00
  |   9          0.883785173125591E-01          0.135184975375837E+00         -0.101860301111980E+00
  |  10          0.169443585539196E+01          0.131806600553494E+01          0.191183343484206E+01
  |  11          0.103482971642020E+01          0.519949416573496E+00          0.785069845356476E+00
  |  12         -0.225644026530637E+01         -0.143928675824461E+01         -0.164409438731675E+01
  |  13         -0.624635174286666E+00         -0.808071292138977E+00         -0.102736307397224E+01

  ------------------------------------ 
  Start decomposition of the XC Energy 
  ------------------------------------ 
  X and C from original XC functional choice 
  Hartree-Fock Energy :          0.000000000 Ha              0.000000000 eV
  X Energy            :        -41.039532130 Ha          -1116.742488500 eV
  C Energy            :         -1.601920136 Ha            -43.590464769 eV
  Total XC Energy     :        -42.641452267 Ha          -1160.332953269 eV
  ------------------------------------ 
  LDA X and C from self-consistent density 
  X Energy LDA        :        -37.259860740 Ha          -1013.892397010 eV
  C Energy LDA        :         -3.139013752 Ha            -85.416910149 eV
  ------------------------------------ 
  End decomposition of the XC Energy 
  ------------------------------------ 

------------------------------------------------------------

------------------------------------------------------------------------------
  Final output of selected total energy values:

  The following output summarizes some interesting total energy values
  at the end of a run (AFTER all relaxation, molecular dynamics, etc.).

  | Total energy of the DFT / Hartree-Fock s.c.f. calculation      :          -8802.414762432 eV
  | Final zero-broadening corrected energy (caution - metals only) :          -8802.414762432 eV
  | For reference only, the value of 1 Hartree used in FHI-aims is :             27.211384500 eV

  Before relying on these values, please be sure to understand exactly which
  total energy value is referred to by a given number. Different objects may
  all carry the same name 'total energy'. Definitions:

  Total energy of the DFT / Hartree-Fock s.c.f. calculation:
  | Note that this energy does not include ANY quantities calculated after the
  | s.c.f. cycle, in particular not ANY RPA, MP2, etc. many-body perturbation terms.

  Final zero-broadening corrected energy:
  | For metallic systems only, a broadening of the occupation numbers at the Fermi
  | level can be extrapolated back to zero broadening by an electron-gas inspired
  | formula. For all systems that are not real metals, this value can be
  | meaningless and should be avoided.

------------------------------------------------------------------------------
  Methods described in the following list of references were used in this FHI-aims run.
  If you publish the results, please make sure to cite these reference if they apply.
  FHI-aims is an academic code, and for our developers (often, Ph.D. students
  and postdocs), scientific credit in the community is essential.
  Thank you for helping us!

  For any use of FHI-aims, please cite:

    Volker Blum, Ralf Gehrke, Felix Hanke, Paula Havu, Ville Havu,
    Xinguo Ren, Karsten Reuter, and Matthias Scheffler
    'Ab initio molecular simulations with numeric atom-centered orbitals'
    Computer Physics Communications 180, 2175-2196 (2009)
    http://dx.doi.org/10.1016/j.cpc.2009.06.022


  The scalable eigensolver library ELPA was used in your run.
  ELPA is essential especially for large systems on hundreds or thousands of CPUs.
  For ELPA, please cite:

    Andreas Marek, Volker Blum, Rainer Johanni, Ville Havu, Bruno Lang,
    Thomas Auckenthaler, Alexander Heinecke, Hans-Joachim Bungartz, and Hermann Lederer,
    'The ELPA Library - Scalable Parallel Eigenvalue Solutions
    for Electronic Structure Theory and Computational Science'
    The Journal of Physics: Condensed Matter 26, 213201 (2014).
    http://dx.doi.org/10.1088/0953-8984/26/21/213201


  The ELSI infrastructure was used in your run to solve the Kohn-Sham electronic structure.
  Please check out http://elsi-interchange.org to learn more.
  If scalability is important for your project, please acknowledge ELSI by citing:

    V. W-z. Yu, F. Corsetti, A. Garcia, W. P. Huhn, M. Jacquelin, W. Jia,
    B. Lange, L. Lin, J. Lu, W. Mi, A. Seifitokaldani, A. Vazquez-Mayagoitia,
    C. Yang, H. Yang, and V. Blum
    'ELSI: A unified software interface for Kohn-Sham electronic structure solvers'
    Computer Physics Communications 222, 267-285 (2018).
    http://dx.doi.org/10.1016/j.cpc.2017.09.007


  For the real-space grid partitioning and parallelization used in this calculation, please cite:

    Ville Havu, Volker Blum, Paula Havu, and Matthias Scheffler,
    'Efficient O(N) integration for all-electron electronic structure calculation'
    'using numerically tabulated basis functions'
    Journal of Computational Physics 228, 8367-8379 (2009).
    http://dx.doi.org/10.1016/j.jcp.2009.08.008

  Of course, there are many other important community references, e.g., those cited in the
  above references. Our list is limited to references that describe implementations in the
  FHI-aims code. The reason is purely practical (length of this list) - please credit others as well.

------------------------------------------------------------
          Leaving FHI-aims.
          Date     :  20200815, Time     :  002332.655

          Computational steps:
          | Number of self-consistency cycles          :           16
          | Number of SCF (re)initializations          :            1

          Detailed time accounting                     :  max(cpu_time)    wall_clock(cpu1)
          | Total time                                 :       22.581 s          22.623 s
          | Preparation time                           :        0.143 s           0.144 s
          | Boundary condition initalization           :        0.000 s           0.000 s
          | Grid partitioning                          :        0.109 s           0.115 s
          | Preloading free-atom quantities on grid    :        0.002 s           0.003 s
          | Free-atom superposition energy             :        0.084 s           0.084 s
          | Total time for integrations                :        8.590 s           8.595 s
          | Total time for solution of K.-S. equations :        0.036 s           0.036 s
          | Total time for density & force components  :        7.124 s           7.135 s
          | Total time for mixing                      :        0.210 s           0.212 s
          | Total time for Hartree multipole update    :        0.140 s           0.142 s
          | Total time for Hartree multipole sum       :        5.749 s           5.755 s
          | Total time for total energy evaluation     :        0.003 s           0.002 s
          | Total time for vdW correction              :        0.089 s           0.090 s

          Partial memory accounting:
          | Residual value for overall tracked memory usage across tasks :           0.000 MB (should be 0.000 MB)
          | Peak values for overall tracked memory usage (after allocating hessian_basis_wave):
          |   Minimum:        1.622 MB (on task 1)
          |   Maximum:        1.622 MB (on task 1)
          |   Average:        1.622 MB
          | Largest tracked array allocation (hessian_basis_wave):
          |   Minimum:        0.794 MB (on task 1)
          |   Maximum:        0.794 MB (on task 1)
          |   Average:        0.794 MB
          Note:  These values currently only include a subset of arrays which are explicitly tracked.
          The "true" memory usage will be greater.

          Have a nice day.
------------------------------------------------------------
