  MPI-parallelism will be employed.
------------------------------------------------------------
          Invoking FHI-aims ...
          Version 171221_1
          Compiled on 2019/09/09 at 14:39:39 on host puhti-login2.bullx.

          When using FHI-aims, please cite the following reference:

          Volker Blum, Ralf Gehrke, Felix Hanke, Paula Havu,
          Ville Havu, Xinguo Ren, Karsten Reuter, and Matthias Scheffler,
          'Ab Initio Molecular Simulations with Numeric Atom-Centered Orbitals',
          Computer Physics Communications 180, 2175-2196 (2009)

          For any questions about FHI-aims, please visit the aimsclub website
          with its forums and wiki. Contributions to both the forums and the
          wiki are warmly encouraged - they are for you, and everyone is welcome there.

------------------------------------------------------------



  Date     :  20200710, Time     :  143854.477
  Time zero on CPU 1             :   0.113700000000000E-01  s.
  Internal wall clock time zero  :           363623934.477  s.

  FHI-aims created a unique identifier for this run for later identification
  aims_uuid : 0AE23683-BE69-427D-AB24-9237DEC167AF

  Using        1 parallel tasks.
  Task        0 on host r18c46.bullx reporting.

  Performing system and environment tests:
  | Environment variable OMP_NUM_THREADS correctly set to 1.
  | Stacksize not measured: no C compiler
  | Checking for scalapack...
  | Testing pdtran()...
  | All pdtran() tests passed.

  Obtaining array dimensions for all initial allocations:
  
  -----------------------------------------------------------------------
  Parsing control.in (first pass over file, find array dimensions only).
  The contents of control.in will be repeated verbatim below
  unless switched off by setting 'verbatim_writeout .false.' .
  in the first line of control.in .
  -----------------------------------------------------------------------
  
  #########################################################################################
  #
  #  Volker Blum, FHI 2009 : Test run input file control.in for simple H2O
  #
  #########################################################################################
  #
  #  Physical model
  #
    xc                 pbe
    vdw_correction_hirshfeld
    spin               none
    relativistic       none
    charge             0.
  #
  #  SCF convergence
  #
    occupation_type    gaussian 0.01
    mixer              pulay
      n_max_pulay        10
      charge_mix_param   0.2
    sc_accuracy_rho    1E-5
    sc_accuracy_eev    1E-3
    sc_accuracy_etot   1E-6
    sc_accuracy_forces 1E-4
    sc_iter_limit      100
  #
  #  Relaxation
  #
  #  relax_geometry   bfgs 1.e-3
  #
  ################################################################################
  #
  #  FHI-aims code project
  #  VB, Fritz-Haber Institut, 2009
  #
  #  Suggested "light" defaults for H atom (to be pasted into control.in file)
  #  Be sure to double-check any results obtained with these settings for post-processing,
  #  e.g., with the "tight" defaults and larger basis sets.
  #
  ################################################################################
    species        H
  #     global species definitions
      nucleus             1
      mass                1.00794
  #
      l_hartree           4
  #
      cut_pot             3.5  1.5  1.0
      basis_dep_cutoff    1e-4
  #
      radial_base         24 5.0
      radial_multiplier   1
      angular_grids       specified
        division   0.2421   50
        division   0.3822  110
        division   0.4799  194
        division   0.5341  302
  #      division   0.5626  434
  #      division   0.5922  590
  #      division   0.6542  770
  #      division   0.6868 1202
  #      outer_grid  770
        outer_grid  302
  ################################################################################
  #
  #  Definition of "minimal" basis
  #
  ################################################################################
  #     valence basis states
      valence      1  s   1.
  #     ion occupancy
      ion_occ      1  s   0.5
  ################################################################################
  #
  #  Suggested additional basis functions. For production calculations,
  #  uncomment them one after another (the most important basis functions are
  #  listed first).
  #
  #  Basis constructed for dimers: 0.5 A, 0.7 A, 1.0 A, 1.5 A, 2.5 A
  #
  ################################################################################
  #  "First tier" - improvements: -1014.90 meV to -62.69 meV
       hydro 2 s 2.1
       hydro 2 p 3.5
  #  "Second tier" - improvements: -12.89 meV to -1.83 meV
  #     hydro 1 s 0.85
  #     hydro 2 p 3.7
  #     hydro 2 s 1.2
  #     hydro 3 d 7
  #  "Third tier" - improvements: -0.25 meV to -0.12 meV
  #     hydro 4 f 11.2
  #     hydro 3 p 4.8
  #     hydro 4 d 9
  #     hydro 3 s 3.2
  ################################################################################
  #
  #  FHI-aims code project
  #  VB, Fritz-Haber Institut, 2009
  #
  #  Suggested "light" defaults for C atom (to be pasted into control.in file)
  #  Be sure to double-check any results obtained with these settings for post-processing,
  #  e.g., with the "tight" defaults and larger basis sets.
  #
  ################################################################################
    species        C
  #     global species definitions
      nucleus             6
      mass                12.0107
  #
      l_hartree           4
  #
      cut_pot             3.5  1.5  1.0
      basis_dep_cutoff    1e-4
  #
      radial_base         34 5.0
      radial_multiplier   1
      angular_grids specified
        division   0.3326   50
        division   0.5710  110
        division   0.7727  194
        division   0.8772  302
  #      division   0.9334  434
  #      division   0.9625  590
  #      division   0.9924  770
  #      division   1.0230  974
  #      division   1.4589 1202
  #     outer_grid  974
       outer_grid 302
  ################################################################################
  #
  #  Definition of "minimal" basis
  #
  ################################################################################
  #     valence basis states
      valence      2  s   2.
      valence      2  p   2.
  #     ion occupancy
      ion_occ      2  s   1.
      ion_occ      2  p   1.
  ################################################################################
  #
  #  Suggested additional basis functions. For production calculations,
  #  uncomment them one after another (the most important basis functions are
  #  listed first).
  #
  #  Constructed for dimers: 1.0 A, 1.25 A, 1.5 A, 2.0 A, 3.0 A
  #
  ################################################################################
  #  "First tier" - improvements: -1214.57 meV to -155.61 meV
       hydro 2 p 1.7
       hydro 3 d 6
       hydro 2 s 4.9
  #  "Second tier" - improvements: -67.75 meV to -5.23 meV
  #     hydro 4 f 9.8
  #     hydro 3 p 5.2
  #     hydro 3 s 4.3
  #     hydro 5 g 14.4
  #     hydro 3 d 6.2
  #  "Third tier" - improvements: -2.43 meV to -0.60 meV
  #     hydro 2 p 5.6
  #     hydro 2 s 1.4
  #     hydro 3 d 4.9
  #     hydro 4 f 11.2
  #  "Fourth tier" - improvements: -0.39 meV to -0.18 meV
  #     hydro 2 p 2.1
  #     hydro 5 g 16.4
  #     hydro 4 d 13.2
  #     hydro 3 s 13.6
  #     hydro 4 f 17.6
  #  Further basis functions - improvements: -0.08 meV and below
  #     hydro 3 s 2
  #     hydro 3 p 6
  #     hydro 4 d 20
  ################################################################################
  #
  #  FHI-aims code project
  #  VB, Fritz-Haber Institut, 2009
  #
  #  Suggested "light" defaults for N atom (to be pasted into control.in file)
  #  Be sure to double-check any results obtained with these settings for post-processing,
  #  e.g., with the "tight" defaults and larger basis sets.
  #
  ################################################################################
    species        N
  #     global species definitions
      nucleus             7
      mass                14.0067
  #
      l_hartree           4
  #
      cut_pot             3.5  1.5  1.0
      basis_dep_cutoff    1e-4
  #
      radial_base         35 5.0
      radial_multiplier   1
      angular_grids       specified
        division   0.2599   50
        division   0.4601  110
        division   0.5885  194
        division   0.6503  302
  #      division   0.6939  434
  #      division   0.7396  590
  #      division   0.7632  770
  #      division   0.8122  974
  #      division   1.1604 1202
  #      outer_grid  974
        outer_grid  302
  ################################################################################
  #
  #  Definition of "minimal" basis
  #
  ################################################################################
  #     valence basis states
      valence      2  s   2.
      valence      2  p   3.
  #     ion occupancy
      ion_occ      2  s   1.
      ion_occ      2  p   2.
  ################################################################################
  #
  #  Suggested additional basis functions. For production calculations,
  #  uncomment them one after another (the most important basis functions are
  #  listed first).
  #
  #  Constructed for dimers: 1.0 A, 1.1 A, 1.5 A, 2.0 A, 3.0 A
  #
  ################################################################################
  #  "First tier" - improvements: -1193.42 meV to -220.60 meV
       hydro 2 p 1.8
       hydro 3 d 6.8
       hydro 3 s 5.8
  #  "Second tier" - improvements: -80.21 meV to -6.86 meV
  #     hydro 4 f 10.8
  #     hydro 3 p 5.8
  #     hydro 1 s 0.8
  #     hydro 5 g 16
  #     hydro 3 d 4.9
  #  "Third tier" - improvements: -4.29 meV to -0.53 meV
  #     hydro 3 s 16
  #     ionic 2 p auto
  #     hydro 3 d 6.6
  #     hydro 4 f 11.6
  #  "Fourth tier" - improvements: -0.75 meV to -0.25 meV
  #     hydro 2 p 4.5
  #     hydro 2 s 2.4
  #     hydro 5 g 14.4
  #     hydro 4 d 14.4
  #     hydro 4 f 16.8
  # Further basis functions - -0.21 meV and below
  #     hydro 3 p 14.8
  #     hydro 3 s 4.4
  #     hydro 3 d 19.6
  #     hydro 5 g 12.8
  ################################################################################
  #
  #  FHI-aims code project
  #  VB, Fritz-Haber Institut, 2009
  #
  #  Suggested "light" defaults for O atom (to be pasted into control.in file)
  #  Be sure to double-check any results obtained with these settings for post-processing,
  #  e.g., with the "tight" defaults and larger basis sets.
  #
  ################################################################################
    species        O
  #     global species definitions
      nucleus             8
      mass                15.9994
  #
      l_hartree           4
  #
      cut_pot             3.5  1.5  1.0
      basis_dep_cutoff    1e-4
  #
      radial_base         36 5.0
      radial_multiplier   1
       angular_grids specified
        division   0.2659   50
        division   0.4451  110
        division   0.6052  194
        division   0.7543  302
  #      division   0.8014  434
  #      division   0.8507  590
  #      division   0.8762  770
  #      division   0.9023  974
  #      division   1.2339 1202
  #      outer_grid 974
        outer_grid 302
  ################################################################################
  #
  #  Definition of "minimal" basis
  #
  ################################################################################
  #     valence basis states
      valence      2  s   2.
      valence      2  p   4.
  #     ion occupancy
      ion_occ      2  s   1.
      ion_occ      2  p   3.
  ################################################################################
  #
  #  Suggested additional basis functions. For production calculations,
  #  uncomment them one after another (the most important basis functions are
  #  listed first).
  #
  #  Constructed for dimers: 1.0 A, 1.208 A, 1.5 A, 2.0 A, 3.0 A
  #
  ################################################################################
  #  "First tier" - improvements: -699.05 meV to -159.38 meV
       hydro 2 p 1.8
       hydro 3 d 7.6
       hydro 3 s 6.4
  #  "Second tier" - improvements: -49.91 meV to -5.39 meV
  #     hydro 4 f 11.6
  #     hydro 3 p 6.2
  #     hydro 3 d 5.6
  #     hydro 5 g 17.6
  #     hydro 1 s 0.75
  #  "Third tier" - improvements: -2.83 meV to -0.50 meV
  #     ionic 2 p auto
  #     hydro 4 f 10.8
  #     hydro 4 d 4.7
  #     hydro 2 s 6.8
  #  "Fourth tier" - improvements: -0.40 meV to -0.12 meV
  #     hydro 3 p 5
  #     hydro 3 s 3.3
  #     hydro 5 g 15.6
  #     hydro 4 f 17.6
  #     hydro 4 d 14
  # Further basis functions - -0.08 meV and below
  #     hydro 3 s 2.1
  #     hydro 4 d 11.6
  #     hydro 3 p 16
  #     hydro 2 s 17.2
  
  -----------------------------------------------------------------------
  Completed first pass over input file control.in .
  -----------------------------------------------------------------------
  
  
  -----------------------------------------------------------------------
  Parsing geometry.in (first pass over file, find array dimensions only).
  The contents of geometry.in will be repeated verbatim below
  unless switched off by setting 'verbatim_writeout .false.' .
  in the first line of geometry.in .
  -----------------------------------------------------------------------
  
  atom  0.00000 0.00000 0.00000 C
  atom  1.09300 0.00000 0.00000 H
  atom  -0.47961 0.00000 -1.41207 N
  atom  -0.39726 -0.94637 -1.78548 H
  atom  -1.45195 0.30076 -1.42702 H
  atom  -0.49584 1.26211 0.72868 C
  atom  -1.58789 1.28919 0.74431 H
  atom  -0.13407 1.27425 1.75947 H
  atom  -0.13407 2.16087 0.22380 H
  atom  -0.39425 -1.28861 0.74398 C
  atom  -0.10189 -1.56493 1.88303 O
  atom  -1.10210 -2.13717 0.06896 O
  atom  -1.45355 -2.65317 0.81408 H
  
  -----------------------------------------------------------------------
  Completed first pass over input file geometry.in .
  -----------------------------------------------------------------------
  

  Basic array size parameters:
  | Number of species                 :        4
  | Number of atoms                   :       13
  | Max. basis fn. angular momentum   :        2
  | Max. atomic/ionic basis occupied n:        2
  | Max. number of basis fn. types    :        2
  | Max. radial fns per species/type  :        3
  | Max. logarithmic grid size        :     1301
  | Max. radial integration grid size :       36
  | Max. angular integration grid size:      302
  | Max. angular grid division number :        8
  | Radial grid for Hartree potential :     1301
  | Number of spin channels           :        1

------------------------------------------------------------
          Reading file control.in.
------------------------------------------------------------
  XC: Using PBE gradient-corrected functionals.
  Spin treatment: No spin polarisation.
  Non-relativistic treatment of kinetic energy.
  Charge =   0.000000E+00: Neutral system requested explicitly.
  Occupation type: Gaussian broadening, width =   0.100000E-01 eV.
  Using pulay charge density mixing.
  Pulay mixing - number of memorized iterations:   10
  Charge density mixing - mixing parameter:     0.2000
  Convergence accuracy of self-consistent charge density:  0.1000E-04
  Convergence accuracy of sum of eigenvalues:  0.1000E-02
  Convergence accuracy of total energy:  0.1000E-05
  Convergence accuracy of forces:  0.1000E-03
  Maximum number of s.-c. iterations  :   100
 
  Reading configuration options for species H                   .
  | Found nuclear charge :   1.0000
  | Found atomic mass :    1.00794000000000      amu
  | Found l_max for Hartree potential  :   4
  | Found cutoff potl. onset [A], width [A], scale factor :    3.50000    1.50000    1.00000
  | Threshold for basis-dependent cutoff potential is   0.100000E-03
  | Found data for basic radial integration grid :    24 points, outermost radius =    5.000 A
  | Found multiplier for basic radial grid :   1
  | Found angular grid specification: user-specified.
  | Specified grid contains     5 separate shells.
  | Check grid settings after all constraints further below.
  | Found free-atom valence shell :  1 s   1.000
  | No ionic wave fns used. Skipping ion_occ.
  | Found hydrogenic basis function :  2 s   2.100
  | Found hydrogenic basis function :  2 p   3.500
  Species H                   : Missing cutoff potential type.
  Defaulting to exp(1/x)/(1-x)^2 type cutoff potential.
  Species H : No 'logarithmic' tag. Using default grid for free atom:
  | Default logarithmic grid data [bohr] : 0.1000E-03 0.1000E+03 0.1012E+01
  Species H : On-site basis accuracy parameter (for Gram-Schmidt orthonormalisation) not specified.
  Using default value basis_acc =  0.1000000E-03.
  Species H                   : Using default innermost maximum threshold i_radial=  2 for radial functions.
  Species H                   : Default cutoff onset for free atom density etc. : 0.35000000E+01 AA.
  Species H                   : Basic radial grid will be enhanced according to radial_multiplier =   1, to contain    24 grid points.
 
  Reading configuration options for species C                   .
  | Found nuclear charge :   6.0000
  | Found atomic mass :    12.0107000000000      amu
  | Found l_max for Hartree potential  :   4
  | Found cutoff potl. onset [A], width [A], scale factor :    3.50000    1.50000    1.00000
  | Threshold for basis-dependent cutoff potential is   0.100000E-03
  | Found data for basic radial integration grid :    34 points, outermost radius =    5.000 A
  | Found multiplier for basic radial grid :   1
  | Found angular grid specification: user-specified.
  | Specified grid contains     5 separate shells.
  | Check grid settings after all constraints further below.
  | Found free-atom valence shell :  2 s   2.000
  | Found free-atom valence shell :  2 p   2.000
  | No ionic wave fns used. Skipping ion_occ.
  | No ionic wave fns used. Skipping ion_occ.
  | Found hydrogenic basis function :  2 p   1.700
  | Found hydrogenic basis function :  3 d   6.000
  | Found hydrogenic basis function :  2 s   4.900
  Species C                   : Missing cutoff potential type.
  Defaulting to exp(1/x)/(1-x)^2 type cutoff potential.
  Species C : No 'logarithmic' tag. Using default grid for free atom:
  | Default logarithmic grid data [bohr] : 0.1000E-03 0.1000E+03 0.1012E+01
  Species C : On-site basis accuracy parameter (for Gram-Schmidt orthonormalisation) not specified.
  Using default value basis_acc =  0.1000000E-03.
  Species C                   : Using default innermost maximum threshold i_radial=  2 for radial functions.
  Species C                   : Default cutoff onset for free atom density etc. : 0.35000000E+01 AA.
  Species C                   : Basic radial grid will be enhanced according to radial_multiplier =   1, to contain    34 grid points.
 
  Reading configuration options for species N                   .
  | Found nuclear charge :   7.0000
  | Found atomic mass :    14.0067000000000      amu
  | Found l_max for Hartree potential  :   4
  | Found cutoff potl. onset [A], width [A], scale factor :    3.50000    1.50000    1.00000
  | Threshold for basis-dependent cutoff potential is   0.100000E-03
  | Found data for basic radial integration grid :    35 points, outermost radius =    5.000 A
  | Found multiplier for basic radial grid :   1
  | Found angular grid specification: user-specified.
  | Specified grid contains     5 separate shells.
  | Check grid settings after all constraints further below.
  | Found free-atom valence shell :  2 s   2.000
  | Found free-atom valence shell :  2 p   3.000
  | No ionic wave fns used. Skipping ion_occ.
  | No ionic wave fns used. Skipping ion_occ.
  | Found hydrogenic basis function :  2 p   1.800
  | Found hydrogenic basis function :  3 d   6.800
  | Found hydrogenic basis function :  3 s   5.800
  Species N                   : Missing cutoff potential type.
  Defaulting to exp(1/x)/(1-x)^2 type cutoff potential.
  Species N : No 'logarithmic' tag. Using default grid for free atom:
  | Default logarithmic grid data [bohr] : 0.1000E-03 0.1000E+03 0.1012E+01
  Species N : On-site basis accuracy parameter (for Gram-Schmidt orthonormalisation) not specified.
  Using default value basis_acc =  0.1000000E-03.
  Species N                   : Using default innermost maximum threshold i_radial=  2 for radial functions.
  Species N                   : Default cutoff onset for free atom density etc. : 0.35000000E+01 AA.
  Species N                   : Basic radial grid will be enhanced according to radial_multiplier =   1, to contain    35 grid points.
 
  Reading configuration options for species O                   .
  | Found nuclear charge :   8.0000
  | Found atomic mass :    15.9994000000000      amu
  | Found l_max for Hartree potential  :   4
  | Found cutoff potl. onset [A], width [A], scale factor :    3.50000    1.50000    1.00000
  | Threshold for basis-dependent cutoff potential is   0.100000E-03
  | Found data for basic radial integration grid :    36 points, outermost radius =    5.000 A
  | Found multiplier for basic radial grid :   1
  | Found angular grid specification: user-specified.
  | Specified grid contains     5 separate shells.
  | Check grid settings after all constraints further below.
  | Found free-atom valence shell :  2 s   2.000
  | Found free-atom valence shell :  2 p   4.000
  | No ionic wave fns used. Skipping ion_occ.
  | No ionic wave fns used. Skipping ion_occ.
  | Found hydrogenic basis function :  2 p   1.800
  | Found hydrogenic basis function :  3 d   7.600
  | Found hydrogenic basis function :  3 s   6.400
  Species O                   : Missing cutoff potential type.
  Defaulting to exp(1/x)/(1-x)^2 type cutoff potential.
  Species O : No 'logarithmic' tag. Using default grid for free atom:
  | Default logarithmic grid data [bohr] : 0.1000E-03 0.1000E+03 0.1012E+01
  Species O : On-site basis accuracy parameter (for Gram-Schmidt orthonormalisation) not specified.
  Using default value basis_acc =  0.1000000E-03.
  Species O                   : Using default innermost maximum threshold i_radial=  2 for radial functions.
  Species O                   : Default cutoff onset for free atom density etc. : 0.35000000E+01 AA.
  Species O                   : Basic radial grid will be enhanced according to radial_multiplier =   1, to contain    36 grid points.
 
  Finished reading input file 'control.in'. Consistency checks are next.
 
  MPI_IN_PLACE appears to work with this MPI implementation.
  | Keeping use_mpi_in_place .true. (see manual).
  Target number of points in a grid batch is not set. Defaulting to  100
  Method for grid partitioning is not set. Defaulting to parallel hash+maxmin partitioning.
  Batch size limit is not set. Defaulting to    200
  By default, will store active basis functions for each batch.
  If in need of memory, prune_basis_once .false. can be used to disable this option.
  communication_type for Hartree potential was not specified.
  Defaulting to calc_hartree .
  Pulay mixer: Number of initial linear mixing iterations not set.
  Defaulting to    0 iterations.
  Work space size for distributed Hartree potential not set.
  Defaulting to   0.200000E+03 MB.
  Algorithm-dependent basis array size parameters:
  | n_max_pulay                         :       10
  Presetting      1001 iterations before the initial mixing cycle
  is restarted anyway using the sc_init_iter criterion / keyword.
  Presetting a factor      1.000 between actual scf density residual
  and density convergence criterion sc_accuracy_rho below which sc_init_iter
  takes no effect.
  Geometry relaxation not requested: no relaxation will be performed.
  Handling of forces: Unphysical translation and rotation will be removed from forces.
  No accuracy limit for integral partition fn. given. Defaulting to  0.1000E-14.
  No threshold value for u(r) in integrations given. Defaulting to  0.1000E-05.
  No accuracy for occupation numbers given. Defaulting to  0.1000E-12.
  No threshold value for occupation numbers given. Defaulting to  0.0000E+00.
  No accuracy for fermi level given. Defaulting to  0.1000E-19.
  Maximum # of iterations to find E_F not set. Defaulting to  200.
  Preferred method for the eigenvalue solver ('KS_method') not specified in 'control.in'.
  Defaulting to serial version, 'lapack_fast'.
  Will not use alltoall communication since running on < 1024 CPUs.
  Threshold for basis singularities not set.
  Default threshold for basis singularities:  0.1000E-04
  partition_type (choice of integration weights) for integrals was not specified.
  | Using a version of the partition function of Stratmann and coworkers ('stratmann_smoother').
  | At each grid point, the set of atoms used to build the partition table is smoothly restricted to
  | only those atoms whose free-atom density would be non-zero at that grid point.
  Partitioning for Hartree potential was not defined. Using partition_type for integrals.
  | Adjusted default value of keyword multip_moments_threshold to:       0.10000000E-11
  | This value may affect high angular momentum components of the Hartree potential in periodic systems.
  No q(lm)/r^(l+1) cutoff set for long-range Hartree potential.
  | Using default value of  0.100000E-09 .
  | Verify using the multipole_threshold keyword.
  Defaulting to new monopole extrapolation.
  Density update method: automatic selection selected.
------------------------------------------------------------


------------------------------------------------------------
          Reading geometry description geometry.in.
------------------------------------------------------------
  Input structure read successfully.
  The structure contains       13 atoms,  and a total of         48.000 electrons.

  Input geometry:
  | No unit cell requested.
  | Atomic structure:
  |       Atom                x [A]            y [A]            z [A]
  |    1: Species C             0.00000000        0.00000000        0.00000000
  |    2: Species H             1.09300000        0.00000000        0.00000000
  |    3: Species N            -0.47961000        0.00000000       -1.41207000
  |    4: Species H            -0.39726000       -0.94637000       -1.78548000
  |    5: Species H            -1.45195000        0.30076000       -1.42702000
  |    6: Species C            -0.49584000        1.26211000        0.72868000
  |    7: Species H            -1.58789000        1.28919000        0.74431000
  |    8: Species H            -0.13407000        1.27425000        1.75947000
  |    9: Species H            -0.13407000        2.16087000        0.22380000
  |   10: Species C            -0.39425000       -1.28861000        0.74398000
  |   11: Species O            -0.10189000       -1.56493000        1.88303000
  |   12: Species O            -1.10210000       -2.13717000        0.06896000
  |   13: Species H            -1.45355000       -2.65317000        0.81408000
  |

  | The smallest distance between any two atoms is         0.97209923 AA.
  |
  | The first atom of this pair is atom number                     12 .
  | The second atom of this pair is atom number                    13 .

  Number of empty states per atom not set in control.in - providing a guess from actual geometry.
  | Total number of empty states used during s.c.f. cycle:       29
  If you use a very high smearing, use empty_states (per atom!) in control.in to increase this value.

  Structure-dependent array size parameters: 
  | Maximum number of distinct radial functions  :       21
  | Maximum number of basis functions            :      119
  | Number of Kohn-Sham states (occupied + empty):       53
------------------------------------------------------------

------------------------------------------------------------
          Preparing all fixed parts of the calculation.
------------------------------------------------------------
  Determining machine precision:
    2.225073858507201E-308
  Setting up grids for atomic and cluster calculations.

  Creating wave function, potential, and density for free atoms.

  Species: H

  List of occupied orbitals and eigenvalues:
    n    l              occ      energy [Ha]    energy [eV]
    1    0           1.0000        -0.237589        -6.4651


  Species: C

  List of occupied orbitals and eigenvalues:
    n    l              occ      energy [Ha]    energy [eV]
    1    0           2.0000       -10.038835      -273.1706
    2    0           2.0000        -0.502696       -13.6791
    2    1           2.0000        -0.191971        -5.2238


  Species: N

  List of occupied orbitals and eigenvalues:
    n    l              occ      energy [Ha]    energy [eV]
    1    0           2.0000       -14.128000      -384.4424
    2    0           2.0000        -0.681077       -18.5330
    2    1           3.0000        -0.259788        -7.0692


  Species: O

  List of occupied orbitals and eigenvalues:
    n    l              occ      energy [Ha]    energy [eV]
    1    0           2.0000       -18.898188      -514.2459
    2    0           2.0000        -0.878505       -23.9053
    2    1           4.0000        -0.331779        -9.0282

  Creating fixed part of basis set: Ionic, confined, hydrogenic.
 
  H                    hydrogenic:
 
  List of hydrogenic basis orbitals: 
    n    l      effective z      eigenvalue [eV]  inner max. [A]     outer max. [A]     outer radius [A]   
    2    0         2.100000       -14.9728           0.193243           1.317208           4.583499
    2    1         3.500000       -41.6669           0.602369           0.602369           3.723403
 
 
  C                    hydrogenic:
 
  List of hydrogenic basis orbitals: 
    n    l      effective z      eigenvalue [eV]  inner max. [A]     outer max. [A]     outer radius [A]   
    2    1         1.700000        -9.7616           1.230570           1.230570           4.607917
    3    2         6.000000       -54.4224           0.792453           0.792453           3.883070
    2    0         4.900000       -81.6679           0.082559           0.562749           3.078220
 
 
  N                    hydrogenic:
 
  List of hydrogenic basis orbitals: 
    n    l      effective z      eigenvalue [eV]  inner max. [A]     outer max. [A]     outer radius [A]   
    2    1         1.800000       -10.9749           1.177451           1.177451           4.573712
    3    2         6.800000       -69.9026           0.704619           0.704619           3.538137
    3    0         5.800000       -50.8545           0.067388           1.191934           4.250239
 
 
  O                    hydrogenic:
 
  List of hydrogenic basis orbitals: 
    n    l      effective z      eigenvalue [eV]  inner max. [A]     outer max. [A]     outer radius [A]   
    2    1         1.800000       -10.9749           1.164242           1.164242           4.578029
    3    2         7.600000       -87.3180           0.624125           0.624125           3.251020
    3    0         6.400000       -61.9207           0.061167           1.081902           4.001998
 

  Adding cutoff potential to free-atom effective potential.
  Creating atomic-like basis functions for current effective potential.

  Species H                   :

  List of atomic basis orbitals and eigenvalues:
    n    l      energy [Ha]    energy [eV]    outer radius [A]
    1    0        -0.237589        -6.4651       4.527807


  Species C                   :

  List of atomic basis orbitals and eigenvalues:
    n    l      energy [Ha]    energy [eV]    outer radius [A]
    1    0       -10.038835      -273.1706       1.934409
    2    0        -0.502696       -13.6791       4.496620
    2    1        -0.191971        -5.2238       4.551928


  Species N                   :

  List of atomic basis orbitals and eigenvalues:
    n    l      energy [Ha]    energy [eV]    outer radius [A]
    1    0       -14.128000      -384.4424       1.637919
    2    0        -0.681077       -18.5330       4.463241
    2    1        -0.259788        -7.0692       4.518138


  Species O                   :

  List of atomic basis orbitals and eigenvalues:
    n    l      energy [Ha]    energy [eV]    outer radius [A]
    1    0       -18.898188      -514.2459       1.415765
    2    0        -0.878505       -23.9053       4.413171
    2    1        -0.331779        -9.0282       4.522403

  Assembling full basis from fixed parts.
  | Species H :   atomic orbital   1 s accepted.
  | Species H :    hydro orbital   2 s accepted.
  | Species H :    hydro orbital   2 p accepted.
  | Species C :   atomic orbital   1 s accepted.
  | Species C :    hydro orbital   2 s accepted.
  | Species C :   atomic orbital   2 s accepted.
  | Species C :   atomic orbital   2 p accepted.
  | Species C :    hydro orbital   2 p accepted.
  | Species C :    hydro orbital   3 d accepted.
  | Species N :   atomic orbital   1 s accepted.
  | Species N :    hydro orbital   3 s accepted.
  | Species N :   atomic orbital   2 s accepted.
  | Species N :   atomic orbital   2 p accepted.
  | Species N :    hydro orbital   2 p accepted.
  | Species N :    hydro orbital   3 d accepted.
  | Species O :   atomic orbital   1 s accepted.
  | Species O :    hydro orbital   3 s accepted.
  | Species O :   atomic orbital   2 s accepted.
  | Species O :   atomic orbital   2 p accepted.
  | Species O :    hydro orbital   2 p accepted.
  | Species O :    hydro orbital   3 d accepted.
 
  Basis size parameters after reduction:
  | Total number of radial functions:       21
  | Total number of basis functions :      119
 
  Per-task memory consumption for arrays in subroutine allocate_ext:
  |           5.250512MB.
  Testing on-site integration grid accuracy.
  |  Species  Function  <phi|h_atom|phi> (log., in eV)  <phi|h_atom|phi> (rad., in eV)
           1        1                 -6.4663192853                 -6.4651273558
           1        2                 13.7111246313                 13.7170609718
           1        3                 25.2673269279                 25.2674696378
           2        4               -273.1705927641               -273.1705631568
           2        5                -10.7109323383                -10.7107120029
           2        6                 17.4381822266                 17.4352413244
           2        7                 -5.2255326521                 -5.2270484734
           2        8                  8.6835629259                  8.6603288385
           2        9                 27.4952418996                 27.4953360207
           3       10               -384.4424306495               -384.4423701208
           3       11                 12.5842251816                 12.5842222903
           3       12                -15.7264628251                -15.7264433455
           3       13                 -7.0696854293                 -7.0701769954
           3       14                  8.8090390882                  8.7901077751
           3       15                 35.9586762123                 35.9588528632
           4       16               -514.2458688638               -514.2457643834
           4       17                 15.1795651126                 15.1795290741
           4       18                -21.5359799773                -21.5360846186
           4       19                 -9.0283069236                 -9.0284644067
           4       20                  8.3027758564                  8.2834874195
           4       21                 45.8339351984                 45.8338762259

  Preparing densities etc. for the partition functions (integrals / Hartree potential).

  Preparations completed.
  max(cpu_time)          :      0.145 s.
  Wall clock time (cpu1) :      0.146 s.
------------------------------------------------------------

------------------------------------------------------------
          Begin self-consistency loop: Initialization.

          Date     :  20200710, Time     :  143854.635
------------------------------------------------------------

  Initializing index lists of integration centers etc. from given atomic structure:
  | Number of centers in hartree potential         :        13
  | Number of centers in hartree multipole         :        13
  | Number of centers in electron density summation:        13
  | Number of centers in basis integrals           :        13
  | Number of centers in integrals                 :        13
  | Number of centers in hamiltonian               :        13
  Partitioning the integration grid into batches with parallel hashing+maxmin method.
  | Number of batches:      955
  | Maximal batch size:     139
  | Minimal batch size:      66
  | Average batch size:      72.928
  | Standard deviation of batch sizes:      17.638

  Integration load balanced across     1 MPI tasks.
  Work distribution over tasks is as follows:
  Task     0 has      69646 integration points.
  Initializing partition tables, free-atom densities, potentials, etc. across the integration grid (initialize_grid_storage).
  | initialize_grid_storage: Actual outermost partition radius vs. multipole_radius_free
  | (-- VB: in principle, multipole_radius_free should be larger, hence this output)
  | Species        1: Confinement radius =              4.999999999999999 AA, multipole_radius_free =              5.054417573612229 AA.
  | Species        1: outer_partition_radius set to              5.054417573612229 AA .
  | Species        2: Confinement radius =              4.999999999999999 AA, multipole_radius_free =              5.019602836301480 AA.
  | Species        2: outer_partition_radius set to              5.019602836301480 AA .
  | Species        3: Confinement radius =              4.999999999999999 AA, multipole_radius_free =              5.043624274424571 AA.
  | Species        3: outer_partition_radius set to              5.043624274424571 AA .
  | Species        4: Confinement radius =              4.999999999999999 AA, multipole_radius_free =              5.048384829883283 AA.
  | Species        4: outer_partition_radius set to              5.048384829883283 AA .
  | Original list of interatomic distances with          13 x         13 entries is created.
  | Net number of integration points:    69646
  | of which are non-zero points    :    59537
  Renormalizing the initial density to the exact electron count on the 3D integration grid.
  | Initial density: Formal number of electrons (from input files) :      48.0000000000
  | Integrated number of electrons on 3D grid     :      48.0000243720
  | Charge integration error                      :       0.0000243720
  | Normalization factor for density and gradient :       0.9999994923
  Obtaining max. number of non-zero basis functions in each batch (get_n_compute_maxes).
  | Maximal number of non-zero basis functions:      119 in task     0
  Selecting the method for density update.
  Loop over occupied states selected for charge density update.
  Allocating        0.050 MB for KS_eigenvector
  Integrating Hamiltonian matrix: batch-based integration.
  Time summed over all CPUs for integration: real work        0.495 s, elapsed        0.495 s
  Integrating overlap matrix.
  Time summed over all CPUs for integration: real work        0.210 s, elapsed        0.210 s

  Updating Kohn-Sham eigenvalues and eigenvectors using ELSI and the ELPA eigensolver.
  Overlap matrix is nonsingular
  | Lowest eigenvalue of overlap  :  0.57E-02
  | Highest eigenvalue of overlap :  0.61E+01
  Finished singularity check of overlap matrix
  | Time :     0.002 s
  Finished Cholesky decomposition
  | Time :     0.000 s
  Finished transformation to standard eigenproblem
  | Time :     0.000 s
  Starting LAPACK eigensolver
  Finished solving standard eigenproblem
  | Time :     0.002 s
  Finished back-transformation of eigenvectors
  | Time :     0.000 s

  Obtaining occupation numbers and chemical potential using ELSI.
  | Chemical potential (Fermi level):    -8.41553736eV
  Writing Kohn-Sham eigenvalues.

  State    Occupation    Eigenvalue [Ha]    Eigenvalue [eV]
      1       2.00000         -19.007965         -517.23304
      2       2.00000         -18.978254         -516.42458
      3       2.00000         -14.245786         -387.64756
      4       2.00000         -10.166750         -276.65133
      5       2.00000         -10.141236         -275.95707
      6       2.00000         -10.132092         -275.70824
      7       2.00000          -1.188330          -32.33610
      8       2.00000          -1.093405          -29.75307
      9       2.00000          -0.991667          -26.98463
     10       2.00000          -0.860452          -23.41408
     11       2.00000          -0.760962          -20.70683
     12       2.00000          -0.681507          -18.54476
     13       2.00000          -0.619918          -16.86881
     14       2.00000          -0.608171          -16.54918
     15       2.00000          -0.594429          -16.17523
     16       2.00000          -0.565886          -15.39854
     17       2.00000          -0.546849          -14.88052
     18       2.00000          -0.522414          -14.21562
     19       2.00000          -0.512602          -13.94860
     20       2.00000          -0.503388          -13.69788
     21       2.00000          -0.476709          -12.97191
     22       2.00000          -0.428465          -11.65912
     23       2.00000          -0.422896          -11.50759
     24       2.00000          -0.377434          -10.27049
     25       0.00000          -0.150543           -4.09649
     26       0.00000          -0.058088           -1.58067
     27       0.00000          -0.027552           -0.74974
     28       0.00000          -0.015628           -0.42526
     29       0.00000          -0.003490           -0.09497
     30       0.00000           0.008776            0.23880
     31       0.00000           0.016816            0.45758
     32       0.00000           0.030452            0.82865
     33       0.00000           0.042819            1.16517
     34       0.00000           0.061326            1.66877
     35       0.00000           0.093117            2.53385
     36       0.00000           0.133971            3.64553
     37       0.00000           0.150226            4.08786
     38       0.00000           0.200000            5.44228
     39       0.00000           0.206601            5.62191
     40       0.00000           0.238947            6.50207
     41       0.00000           0.252858            6.88062
     42       0.00000           0.273466            7.44139
     43       0.00000           0.283447            7.71299
     44       0.00000           0.310679            8.45400
     45       0.00000           0.333393            9.07209
     46       0.00000           0.360241            9.80267
     47       0.00000           0.370826           10.09069
     48       0.00000           0.391039           10.64071
     49       0.00000           0.442803           12.04927
     50       0.00000           0.469473           12.77500
     51       0.00000           0.486688           13.24345
     52       0.00000           0.528176           14.37239
     53       0.00000           0.610343           16.60827

  Highest occupied state (VBM) at    -10.27049283 eV
  | Occupation number:      2.00000000

  Lowest unoccupied state (CBM) at    -4.09648898 eV
  | Occupation number:      0.00000000

  Overall HOMO-LUMO gap:      6.17400385 eV.
  Calculating total energy contributions from superposition of free atom densities.

  Total energy components:
  | Sum of eigenvalues            :        -188.85512928 Ha       -5139.00953759 eV
  | XC energy correction          :         -41.78950966 Ha       -1137.15041556 eV
  | XC potential correction       :          53.72112267 Ha        1461.82612475 eV
  | Free-atom electrostatic energy:        -146.84858863 Ha       -3995.95340853 eV
  | Hartree energy correction     :           0.00000000 Ha           0.00000000 eV
  | vdW energy correction         :           0.00000000 Ha           0.00000000 eV
  | Entropy correction            :           0.00000000 Ha           0.00000000 eV
  | ---------------------------
  | Total energy                  :        -323.77210490 Ha       -8810.28723694 eV
  | Total energy, T -> 0          :        -323.77210490 Ha       -8810.28723694 eV  <-- do not rely on this value for anything but (periodic) metals
  | Electronic free energy        :        -323.77210490 Ha       -8810.28723694 eV

  Derived energy quantities:
  | Kinetic energy                :         320.48687824 Ha        8720.89167093 eV
  | Electrostatic energy          :        -602.46947348 Ha      -16394.02849231 eV
  | Energy correction for multipole
  | error in Hartree potential    :           0.00000000 Ha           0.00000000 eV
  | Sum of eigenvalues per atom                           :        -395.30842597 eV
  | Total energy (T->0) per atom                          :        -677.71440284 eV  <-- do not rely on this value for anything but (periodic) metals
  | Electronic free energy per atom                       :        -677.71440284 eV
  Initialize hartree_potential_storage
  Max. number of atoms included in rho_multipole:           13

  End scf initialization - timings             :  max(cpu_time)    wall_clock(cpu1)
  | Time for scf. initialization               :        1.149 s           1.150 s
  | Boundary condition initialization          :        0.000 s           0.001 s
  | Integration                                :        0.706 s           0.707 s
  | Solution of K.-S. eqns.                    :        0.004 s           0.004 s
  | Grid partitioning                          :        0.111 s           0.111 s
  | Preloading free-atom quantities on grid    :        0.002 s           0.003 s
  | Free-atom superposition energy             :        0.084 s           0.084 s
  | Total energy evaluation                    :        0.000 s           0.000 s

  Partial memory accounting:
  | Current value for overall tracked memory usage on task 0  :           0.165 MB
  | Peak value for overall tracked memory usage on task 0     :           0.678 MB after allocating wave
  | Largest tracked array allocation on task 0 so far         :           0.132 MB  when allocating H_times_psi
  Note:  These values currently only include a subset of arrays which are explicitly tracked.
  The "true" memory usage will be greater.
------------------------------------------------------------

------------------------------------------------------------
          Begin self-consistency iteration #    1

  Date     :  20200710, Time     :  143855.786
------------------------------------------------------------
  Evaluating new KS density.
  Integration grid: deviation in total charge (<rho> - N_e) =  -3.552714E-14
  Pulay mixing of updated and previous charge densities.

  Evaluating partitioned Hartree potential by multipole expansion.
  | Analytical far-field extrapolation by fixed multipoles:
  | Hartree multipole sum: apparent total charge =  -0.850254E-04
  Summing up the Hartree potential.
  Time summed over all CPUs for potential: real work        0.283 s, elapsed        0.283 s
  | RMS charge density error from multipole expansion :   0.594590E-02

  Integrating Hamiltonian matrix: batch-based integration.
  Time summed over all CPUs for integration: real work        0.493 s, elapsed        0.493 s

  Updating Kohn-Sham eigenvalues and eigenvectors using ELSI and the ELPA eigensolver.
  Finished Cholesky decomposition
  | Time :     0.000 s
  Finished transformation to standard eigenproblem
  | Time :     0.000 s
  Starting LAPACK eigensolver
  Finished solving standard eigenproblem
  | Time :     0.001 s
  Finished back-transformation of eigenvectors
  | Time :     0.000 s

  Obtaining occupation numbers and chemical potential using ELSI.
  | Chemical potential (Fermi level):    -7.23571860eV
  Writing Kohn-Sham eigenvalues.

  State    Occupation    Eigenvalue [Ha]    Eigenvalue [eV]
      1       2.00000         -18.909720         -514.55965
      2       2.00000         -18.838760         -512.62875
      3       2.00000         -14.094302         -383.52546
      4       2.00000         -10.115693         -275.26200
      5       2.00000         -10.061741         -273.79389
      6       2.00000         -10.032025         -272.98528
      7       2.00000          -1.141496          -31.06169
      8       2.00000          -1.032416          -28.09348
      9       2.00000          -0.920735          -25.05447
     10       2.00000          -0.793716          -21.59810
     11       2.00000          -0.711256          -19.35425
     12       2.00000          -0.635151          -17.28335
     13       2.00000          -0.558619          -15.20079
     14       2.00000          -0.553981          -15.07459
     15       2.00000          -0.533736          -14.52369
     16       2.00000          -0.507490          -13.80951
     17       2.00000          -0.490897          -13.35798
     18       2.00000          -0.466513          -12.69446
     19       2.00000          -0.446884          -12.16034
     20       2.00000          -0.444209          -12.08753
     21       2.00000          -0.423187          -11.51550
     22       2.00000          -0.368969          -10.04015
     23       2.00000          -0.351004           -9.55131
     24       2.00000          -0.304812           -8.29435
     25       0.00000          -0.114564           -3.11744
     26       0.00000          -0.032894           -0.89510
     27       0.00000           0.004385            0.11931
     28       0.00000           0.015720            0.42777
     29       0.00000           0.027154            0.73889
     30       0.00000           0.048570            1.32167
     31       0.00000           0.058520            1.59240
     32       0.00000           0.069302            1.88579
     33       0.00000           0.079876            2.17354
     34       0.00000           0.104107            2.83289
     35       0.00000           0.136974            3.72724
     36       0.00000           0.162025            4.40892
     37       0.00000           0.173566            4.72297
     38       0.00000           0.226139            6.15356
     39       0.00000           0.234382            6.37787
     40       0.00000           0.276445            7.52246
     41       0.00000           0.290522            7.90551
     42       0.00000           0.309971            8.43475
     43       0.00000           0.318412            8.66443
     44       0.00000           0.349494            9.51021
     45       0.00000           0.369763           10.06176
     46       0.00000           0.398244           10.83677
     47       0.00000           0.411047           11.18517
     48       0.00000           0.422163           11.48763
     49       0.00000           0.483345           13.15250
     50       0.00000           0.508903           13.84795
     51       0.00000           0.516278           14.04863
     52       0.00000           0.562757           15.31340
     53       0.00000           0.651001           17.71464

  Highest occupied state (VBM) at     -8.29434931 eV
  | Occupation number:      2.00000000

  Lowest unoccupied state (CBM) at    -3.11744436 eV
  | Occupation number:      0.00000000

  Overall HOMO-LUMO gap:      5.17690495 eV.

  Total energy components:
  | Sum of eigenvalues            :        -185.47461831 Ha       -5047.02115378 eV
  | XC energy correction          :         -42.11749338 Ha       -1146.07530659 eV
  | XC potential correction       :          54.14769038 Ha        1473.43362277 eV
  | Free-atom electrostatic energy:        -146.84858863 Ha       -3995.95340853 eV
  | Hartree energy correction     :          -3.30039137 Ha         -89.80821844 eV
  | vdW energy correction         :           0.00000000 Ha           0.00000000 eV
  | Entropy correction            :           0.00000000 Ha           0.00000000 eV
  | ---------------------------
  | Total energy                  :        -323.59340130 Ha       -8805.42446457 eV
  | Total energy, T -> 0          :        -323.59340130 Ha       -8805.42446457 eV  <-- do not rely on this value for anything but (periodic) metals
  | Electronic free energy        :        -323.59340130 Ha       -8805.42446457 eV

  Derived energy quantities:
  | Kinetic energy                :         322.27091317 Ha        8769.43773136 eV
  | Electrostatic energy          :        -603.74682109 Ha      -16428.78688935 eV
  | Energy correction for multipole
  | error in Hartree potential    :           0.01198325 Ha           0.32608087 eV
  | Sum of eigenvalues per atom                           :        -388.23239644 eV
  | Total energy (T->0) per atom                          :        -677.34034343 eV  <-- do not rely on this value for anything but (periodic) metals
  | Electronic free energy per atom                       :        -677.34034343 eV

  Self-consistency convergence accuracy:
  | Change of charge density      :  0.5805E+00
  | Change of sum of eigenvalues  :  0.9199E+02 eV
  | Change of total energy        :  0.4863E+01 eV

  End self-consistency iteration #     1       :  max(cpu_time)    wall_clock(cpu1)
  | Time for this iteration                    :        1.185 s           1.186 s
  | Charge density update                      :        0.392 s           0.391 s
  | Density mixing                             :        0.005 s           0.006 s
  | Hartree multipole update                   :        0.009 s           0.009 s
  | Hartree multipole summation                :        0.284 s           0.284 s
  | Integration                                :        0.492 s           0.493 s
  | Solution of K.-S. eqns.                    :        0.002 s           0.003 s
  | Total energy evaluation                    :        0.000 s           0.000 s

  Partial memory accounting:
  | Current value for overall tracked memory usage on task 0  :           0.165 MB
  | Peak value for overall tracked memory usage on task 0     :           0.695 MB after allocating gradient_basis_wave
  | Largest tracked array allocation on task 0 so far         :           0.397 MB  when allocating gradient_basis_wave
  Note:  These values currently only include a subset of arrays which are explicitly tracked.
  The "true" memory usage will be greater.
------------------------------------------------------------

------------------------------------------------------------
          Begin self-consistency iteration #    2

  Date     :  20200710, Time     :  143856.973
------------------------------------------------------------
  Evaluating new KS density.
  Integration grid: deviation in total charge (<rho> - N_e) =   7.105427E-14
  Pulay mixing of updated and previous charge densities.

  Evaluating partitioned Hartree potential by multipole expansion.
  | Analytical far-field extrapolation by fixed multipoles:
  | Hartree multipole sum: apparent total charge =  -0.225741E-03
  Summing up the Hartree potential.
  Time summed over all CPUs for potential: real work        0.284 s, elapsed        0.284 s
  | RMS charge density error from multipole expansion :   0.142443E-01

  Integrating Hamiltonian matrix: batch-based integration.
  Time summed over all CPUs for integration: real work        0.492 s, elapsed        0.492 s

  Updating Kohn-Sham eigenvalues and eigenvectors using ELSI and the ELPA eigensolver.
  Finished Cholesky decomposition
  | Time :     0.000 s
  Finished transformation to standard eigenproblem
  | Time :     0.000 s
  Starting LAPACK eigensolver
  Finished solving standard eigenproblem
  | Time :     0.001 s
  Finished back-transformation of eigenvectors
  | Time :     0.000 s

  Obtaining occupation numbers and chemical potential using ELSI.
  | Chemical potential (Fermi level):    -5.84696708eV
  Highest occupied state (VBM) at     -6.26939699 eV
  | Occupation number:      2.00000000

  Lowest unoccupied state (CBM) at    -1.83921036 eV
  | Occupation number:      0.00000000

  Overall HOMO-LUMO gap:      4.43018663 eV.

  Checking to see if s.c.f. parameters should be adjusted.

  Total energy components:
  | Sum of eigenvalues            :        -181.86677022 Ha       -4948.84661222 eV
  | XC energy correction          :         -42.48198811 Ha       -1155.99371267 eV
  | XC potential correction       :          54.62021747 Ha        1486.29173899 eV
  | Free-atom electrostatic energy:        -146.84858863 Ha       -3995.95340853 eV
  | Hartree energy correction     :          -6.93916751 Ha        -188.82435518 eV
  | vdW energy correction         :           0.00000000 Ha           0.00000000 eV
  | Entropy correction            :           0.00000000 Ha           0.00000000 eV
  | ---------------------------
  | Total energy                  :        -323.51629700 Ha       -8803.32634963 eV
  | Total energy, T -> 0          :        -323.51629700 Ha       -8803.32634963 eV  <-- do not rely on this value for anything but (periodic) metals
  | Electronic free energy        :        -323.51629700 Ha       -8803.32634963 eV

  Derived energy quantities:
  | Kinetic energy                :         323.61202161 Ha        8805.93114886 eV
  | Electrostatic energy          :        -604.64633050 Ha      -16453.26378581 eV
  | Energy correction for multipole
  | error in Hartree potential    :           0.02675240 Ha           0.72796981 eV
  | Sum of eigenvalues per atom                           :        -380.68050863 eV
  | Total energy (T->0) per atom                          :        -677.17894997 eV  <-- do not rely on this value for anything but (periodic) metals
  | Electronic free energy per atom                       :        -677.17894997 eV

  Self-consistency convergence accuracy:
  | Change of charge density      :  0.3628E+00
  | Change of sum of eigenvalues  :  0.9817E+02 eV
  | Change of total energy        :  0.2098E+01 eV

  End self-consistency iteration #     2       :  max(cpu_time)    wall_clock(cpu1)
  | Time for this iteration                    :        1.178 s           1.178 s
  | Charge density update                      :        0.384 s           0.384 s
  | Density mixing                             :        0.007 s           0.007 s
  | Hartree multipole update                   :        0.009 s           0.009 s
  | Hartree multipole summation                :        0.284 s           0.284 s
  | Integration                                :        0.492 s           0.492 s
  | Solution of K.-S. eqns.                    :        0.002 s           0.002 s
  | Total energy evaluation                    :        0.000 s           0.000 s

  Partial memory accounting:
  | Current value for overall tracked memory usage on task 0  :           0.166 MB
  | Peak value for overall tracked memory usage on task 0     :           0.695 MB after allocating gradient_basis_wave
  | Largest tracked array allocation on task 0 so far         :           0.397 MB  when allocating gradient_basis_wave
  Note:  These values currently only include a subset of arrays which are explicitly tracked.
  The "true" memory usage will be greater.
------------------------------------------------------------

------------------------------------------------------------
          Begin self-consistency iteration #    3

  Date     :  20200710, Time     :  143858.153
------------------------------------------------------------
  Evaluating new KS density.
  Integration grid: deviation in total charge (<rho> - N_e) =  -1.421085E-14
  Pulay mixing of updated and previous charge densities.

  Evaluating partitioned Hartree potential by multipole expansion.
  | Analytical far-field extrapolation by fixed multipoles:
  | Hartree multipole sum: apparent total charge =  -0.323233E-03
  Summing up the Hartree potential.
  Time summed over all CPUs for potential: real work        0.284 s, elapsed        0.284 s
  | RMS charge density error from multipole expansion :   0.226031E-01

  Integrating Hamiltonian matrix: batch-based integration.
  Time summed over all CPUs for integration: real work        0.492 s, elapsed        0.492 s

  Updating Kohn-Sham eigenvalues and eigenvectors using ELSI and the ELPA eigensolver.
  Finished Cholesky decomposition
  | Time :     0.000 s
  Finished transformation to standard eigenproblem
  | Time :     0.000 s
  Starting LAPACK eigensolver
  Finished solving standard eigenproblem
  | Time :     0.001 s
  Finished back-transformation of eigenvectors
  | Time :     0.000 s

  Obtaining occupation numbers and chemical potential using ELSI.
  | Chemical potential (Fermi level):    -5.13895649eV
  Highest occupied state (VBM) at     -5.61204186 eV
  | Occupation number:      2.00000000

  Lowest unoccupied state (CBM) at    -1.11461087 eV
  | Occupation number:      0.00000000

  Overall HOMO-LUMO gap:      4.49743099 eV.

  Total energy components:
  | Sum of eigenvalues            :        -180.57781372 Ha       -4913.77232130 eV
  | XC energy correction          :         -42.63204038 Ha       -1160.07684281 eV
  | XC potential correction       :          54.81147935 Ha        1491.49623947 eV
  | Free-atom electrostatic energy:        -146.84858863 Ha       -3995.95340853 eV
  | Hartree energy correction     :          -8.25748763 Ha        -224.69767102 eV
  | vdW energy correction         :           0.00000000 Ha           0.00000000 eV
  | Entropy correction            :           0.00000000 Ha           0.00000000 eV
  | ---------------------------
  | Total energy                  :        -323.50445102 Ha       -8803.00400419 eV
  | Total energy, T -> 0          :        -323.50445102 Ha       -8803.00400419 eV  <-- do not rely on this value for anything but (periodic) metals
  | Electronic free energy        :        -323.50445102 Ha       -8803.00400419 eV

  Derived energy quantities:
  | Kinetic energy                :         323.16368722 Ha        8793.73134927 eV
  | Electrostatic energy          :        -604.03609786 Ha      -16436.65851065 eV
  | Energy correction for multipole
  | error in Hartree potential    :           0.03826992 Ha           1.04137751 eV
  | Sum of eigenvalues per atom                           :        -377.98248625 eV
  | Total energy (T->0) per atom                          :        -677.15415417 eV  <-- do not rely on this value for anything but (periodic) metals
  | Electronic free energy per atom                       :        -677.15415417 eV

  Self-consistency convergence accuracy:
  | Change of charge density      :  0.2010E+00
  | Change of sum of eigenvalues  :  0.3507E+02 eV
  | Change of total energy        :  0.3223E+00 eV

  End self-consistency iteration #     3       :  max(cpu_time)    wall_clock(cpu1)
  | Time for this iteration                    :        1.179 s           1.186 s
  | Charge density update                      :        0.385 s           0.391 s
  | Density mixing                             :        0.008 s           0.008 s
  | Hartree multipole update                   :        0.009 s           0.009 s
  | Hartree multipole summation                :        0.284 s           0.284 s
  | Integration                                :        0.492 s           0.492 s
  | Solution of K.-S. eqns.                    :        0.002 s           0.002 s
  | Total energy evaluation                    :        0.000 s           0.000 s

  Partial memory accounting:
  | Current value for overall tracked memory usage on task 0  :           0.166 MB
  | Peak value for overall tracked memory usage on task 0     :           0.695 MB after allocating gradient_basis_wave
  | Largest tracked array allocation on task 0 so far         :           0.397 MB  when allocating gradient_basis_wave
  Note:  These values currently only include a subset of arrays which are explicitly tracked.
  The "true" memory usage will be greater.
------------------------------------------------------------

------------------------------------------------------------
          Begin self-consistency iteration #    4

  Date     :  20200710, Time     :  143859.340
------------------------------------------------------------
  Evaluating new KS density.
  Integration grid: deviation in total charge (<rho> - N_e) =   5.684342E-14
  Pulay mixing of updated and previous charge densities.

  Evaluating partitioned Hartree potential by multipole expansion.
  | Analytical far-field extrapolation by fixed multipoles:
  | Hartree multipole sum: apparent total charge =  -0.353614E-03
  Summing up the Hartree potential.
  Time summed over all CPUs for potential: real work        0.283 s, elapsed        0.283 s
  | RMS charge density error from multipole expansion :   0.259475E-01

  Integrating Hamiltonian matrix: batch-based integration.
  Time summed over all CPUs for integration: real work        0.492 s, elapsed        0.492 s

  Updating Kohn-Sham eigenvalues and eigenvectors using ELSI and the ELPA eigensolver.
  Finished Cholesky decomposition
  | Time :     0.000 s
  Finished transformation to standard eigenproblem
  | Time :     0.000 s
  Starting LAPACK eigensolver
  Finished solving standard eigenproblem
  | Time :     0.002 s
  Finished back-transformation of eigenvectors
  | Time :     0.000 s

  Obtaining occupation numbers and chemical potential using ELSI.
  | Chemical potential (Fermi level):    -5.05025270eV
  Highest occupied state (VBM) at     -5.42253703 eV
  | Occupation number:      2.00000000

  Lowest unoccupied state (CBM) at    -1.04920879 eV
  | Occupation number:      0.00000000

  Overall HOMO-LUMO gap:      4.37332824 eV.

  Total energy components:
  | Sum of eigenvalues            :        -180.44665300 Ha       -4910.20325640 eV
  | XC energy correction          :         -42.66774173 Ha       -1161.04832602 eV
  | XC potential correction       :          54.85642027 Ha        1492.71914416 eV
  | Free-atom electrostatic energy:        -146.84858863 Ha       -3995.95340853 eV
  | Hartree energy correction     :          -8.39709930 Ha        -228.49669770 eV
  | vdW energy correction         :           0.00000000 Ha           0.00000000 eV
  | Entropy correction            :           0.00000000 Ha           0.00000000 eV
  | ---------------------------
  | Total energy                  :        -323.50366239 Ha       -8802.98254450 eV
  | Total energy, T -> 0          :        -323.50366239 Ha       -8802.98254450 eV  <-- do not rely on this value for anything but (periodic) metals
  | Electronic free energy        :        -323.50366239 Ha       -8802.98254450 eV

  Derived energy quantities:
  | Kinetic energy                :         322.79349622 Ha        8783.65793978 eV
  | Electrostatic energy          :        -603.62941688 Ha      -16425.59215826 eV
  | Energy correction for multipole
  | error in Hartree potential    :           0.04241473 Ha           1.15416349 eV
  | Sum of eigenvalues per atom                           :        -377.70794280 eV
  | Total energy (T->0) per atom                          :        -677.15250342 eV  <-- do not rely on this value for anything but (periodic) metals
  | Electronic free energy per atom                       :        -677.15250342 eV

  Self-consistency convergence accuracy:
  | Change of charge density      :  0.6097E-01
  | Change of sum of eigenvalues  :  0.3569E+01 eV
  | Change of total energy        :  0.2146E-01 eV

  End self-consistency iteration #     4       :  max(cpu_time)    wall_clock(cpu1)
  | Time for this iteration                    :        1.181 s           1.181 s
  | Charge density update                      :        0.384 s           0.385 s
  | Density mixing                             :        0.009 s           0.009 s
  | Hartree multipole update                   :        0.009 s           0.009 s
  | Hartree multipole summation                :        0.284 s           0.284 s
  | Integration                                :        0.492 s           0.492 s
  | Solution of K.-S. eqns.                    :        0.002 s           0.002 s
  | Total energy evaluation                    :        0.000 s           0.000 s

  Partial memory accounting:
  | Current value for overall tracked memory usage on task 0  :           0.166 MB
  | Peak value for overall tracked memory usage on task 0     :           0.696 MB after allocating gradient_basis_wave
  | Largest tracked array allocation on task 0 so far         :           0.397 MB  when allocating gradient_basis_wave
  Note:  These values currently only include a subset of arrays which are explicitly tracked.
  The "true" memory usage will be greater.
------------------------------------------------------------

------------------------------------------------------------
          Begin self-consistency iteration #    5

  Date     :  20200710, Time     :  143900.522
------------------------------------------------------------
  Evaluating new KS density.
  Integration grid: deviation in total charge (<rho> - N_e) =   0.000000E+00
  Pulay mixing of updated and previous charge densities.

  Evaluating partitioned Hartree potential by multipole expansion.
  | Analytical far-field extrapolation by fixed multipoles:
  | Hartree multipole sum: apparent total charge =  -0.347761E-03
  Summing up the Hartree potential.
  Time summed over all CPUs for potential: real work        0.284 s, elapsed        0.284 s
  | RMS charge density error from multipole expansion :   0.256812E-01

  Integrating Hamiltonian matrix: batch-based integration.
  Time summed over all CPUs for integration: real work        0.492 s, elapsed        0.492 s

  Updating Kohn-Sham eigenvalues and eigenvectors using ELSI and the ELPA eigensolver.
  Finished Cholesky decomposition
  | Time :     0.000 s
  Finished transformation to standard eigenproblem
  | Time :     0.000 s
  Starting LAPACK eigensolver
  Finished solving standard eigenproblem
  | Time :     0.001 s
  Finished back-transformation of eigenvectors
  | Time :     0.000 s

  Obtaining occupation numbers and chemical potential using ELSI.
  | Chemical potential (Fermi level):    -5.10939671eV
  Highest occupied state (VBM) at     -5.50554359 eV
  | Occupation number:      2.00000000

  Lowest unoccupied state (CBM) at    -1.12387092 eV
  | Occupation number:      0.00000000

  Overall HOMO-LUMO gap:      4.38167267 eV.

  Total energy components:
  | Sum of eigenvalues            :        -180.61232994 Ha       -4914.71155531 eV
  | XC energy correction          :         -42.64700417 Ha       -1160.48402819 eV
  | XC potential correction       :          54.82953896 Ha        1491.98766664 eV
  | Free-atom electrostatic energy:        -146.84858863 Ha       -3995.95340853 eV
  | Hartree energy correction     :          -8.22498534 Ha        -223.81323860 eV
  | vdW energy correction         :           0.00000000 Ha           0.00000000 eV
  | Entropy correction            :           0.00000000 Ha           0.00000000 eV
  | ---------------------------
  | Total energy                  :        -323.50336911 Ha       -8802.97456400 eV
  | Total energy, T -> 0          :        -323.50336911 Ha       -8802.97456400 eV  <-- do not rely on this value for anything but (periodic) metals
  | Electronic free energy        :        -323.50336911 Ha       -8802.97456400 eV

  Derived energy quantities:
  | Kinetic energy                :         322.70676472 Ha        8781.29785547 eV
  | Electrostatic energy          :        -603.56312966 Ha      -16423.78839129 eV
  | Energy correction for multipole
  | error in Hartree potential    :           0.04182173 Ha           1.13802708 eV
  | Sum of eigenvalues per atom                           :        -378.05473502 eV
  | Total energy (T->0) per atom                          :        -677.15188954 eV  <-- do not rely on this value for anything but (periodic) metals
  | Electronic free energy per atom                       :        -677.15188954 eV

  Self-consistency convergence accuracy:
  | Change of charge density      :  0.2085E-01
  | Change of sum of eigenvalues  : -0.4508E+01 eV
  | Change of total energy        :  0.7981E-02 eV

  End self-consistency iteration #     5       :  max(cpu_time)    wall_clock(cpu1)
  | Time for this iteration                    :        1.182 s           1.183 s
  | Charge density update                      :        0.385 s           0.385 s
  | Density mixing                             :        0.011 s           0.011 s
  | Hartree multipole update                   :        0.009 s           0.008 s
  | Hartree multipole summation                :        0.284 s           0.284 s
  | Integration                                :        0.492 s           0.492 s
  | Solution of K.-S. eqns.                    :        0.002 s           0.002 s
  | Total energy evaluation                    :        0.000 s           0.000 s

  Partial memory accounting:
  | Current value for overall tracked memory usage on task 0  :           0.166 MB
  | Peak value for overall tracked memory usage on task 0     :           0.696 MB after allocating gradient_basis_wave
  | Largest tracked array allocation on task 0 so far         :           0.397 MB  when allocating gradient_basis_wave
  Note:  These values currently only include a subset of arrays which are explicitly tracked.
  The "true" memory usage will be greater.
------------------------------------------------------------

------------------------------------------------------------
          Begin self-consistency iteration #    6

  Date     :  20200710, Time     :  143901.705
------------------------------------------------------------
  Evaluating new KS density.
  Integration grid: deviation in total charge (<rho> - N_e) =   4.263256E-14
  Pulay mixing of updated and previous charge densities.

  Evaluating partitioned Hartree potential by multipole expansion.
  | Analytical far-field extrapolation by fixed multipoles:
  | Hartree multipole sum: apparent total charge =  -0.349320E-03
  Summing up the Hartree potential.
  Time summed over all CPUs for potential: real work        0.283 s, elapsed        0.283 s
  | RMS charge density error from multipole expansion :   0.260182E-01

  Integrating Hamiltonian matrix: batch-based integration.
  Time summed over all CPUs for integration: real work        0.492 s, elapsed        0.492 s

  Updating Kohn-Sham eigenvalues and eigenvectors using ELSI and the ELPA eigensolver.
  Finished Cholesky decomposition
  | Time :     0.000 s
  Finished transformation to standard eigenproblem
  | Time :     0.000 s
  Starting LAPACK eigensolver
  Finished solving standard eigenproblem
  | Time :     0.001 s
  Finished back-transformation of eigenvectors
  | Time :     0.000 s

  Obtaining occupation numbers and chemical potential using ELSI.
  | Chemical potential (Fermi level):    -5.12529950eV
  Highest occupied state (VBM) at     -5.49822246 eV
  | Occupation number:      2.00000000

  Lowest unoccupied state (CBM) at    -1.15722033 eV
  | Occupation number:      0.00000000

  Overall HOMO-LUMO gap:      4.34100213 eV.

  Total energy components:
  | Sum of eigenvalues            :        -180.65562139 Ha       -4915.88957577 eV
  | XC energy correction          :         -42.64085586 Ha       -1160.31672421 eV
  | XC potential correction       :          54.82154969 Ha        1491.77026757 eV
  | Free-atom electrostatic energy:        -146.84858863 Ha       -3995.95340853 eV
  | Hartree energy correction     :          -8.17978870 Ha        -222.58337542 eV
  | vdW energy correction         :           0.00000000 Ha           0.00000000 eV
  | Entropy correction            :           0.00000000 Ha           0.00000000 eV
  | ---------------------------
  | Total energy                  :        -323.50330489 Ha       -8802.97281637 eV
  | Total energy, T -> 0          :        -323.50330489 Ha       -8802.97281637 eV  <-- do not rely on this value for anything but (periodic) metals
  | Electronic free energy        :        -323.50330489 Ha       -8802.97281637 eV

  Derived energy quantities:
  | Kinetic energy                :         322.61181164 Ha        8778.71405084 eV
  | Electrostatic energy          :        -603.47426067 Ha      -16421.37014299 eV
  | Energy correction for multipole
  | error in Hartree potential    :           0.04203170 Ha           1.14374082 eV
  | Sum of eigenvalues per atom                           :        -378.14535198 eV
  | Total energy (T->0) per atom                          :        -677.15175511 eV  <-- do not rely on this value for anything but (periodic) metals
  | Electronic free energy per atom                       :        -677.15175511 eV

  Self-consistency convergence accuracy:
  | Change of charge density      :  0.1056E-01
  | Change of sum of eigenvalues  : -0.1178E+01 eV
  | Change of total energy        :  0.1748E-02 eV

  End self-consistency iteration #     6       :  max(cpu_time)    wall_clock(cpu1)
  | Time for this iteration                    :        1.183 s           1.184 s
  | Charge density update                      :        0.384 s           0.385 s
  | Density mixing                             :        0.012 s           0.012 s
  | Hartree multipole update                   :        0.009 s           0.009 s
  | Hartree multipole summation                :        0.284 s           0.284 s
  | Integration                                :        0.492 s           0.492 s
  | Solution of K.-S. eqns.                    :        0.002 s           0.002 s
  | Total energy evaluation                    :        0.000 s           0.000 s

  Partial memory accounting:
  | Current value for overall tracked memory usage on task 0  :           0.166 MB
  | Peak value for overall tracked memory usage on task 0     :           0.696 MB after allocating gradient_basis_wave
  | Largest tracked array allocation on task 0 so far         :           0.397 MB  when allocating gradient_basis_wave
  Note:  These values currently only include a subset of arrays which are explicitly tracked.
  The "true" memory usage will be greater.
------------------------------------------------------------

------------------------------------------------------------
          Begin self-consistency iteration #    7

  Date     :  20200710, Time     :  143902.890
------------------------------------------------------------
  Evaluating new KS density.
  Integration grid: deviation in total charge (<rho> - N_e) =   1.421085E-14
  Pulay mixing of updated and previous charge densities.

  Evaluating partitioned Hartree potential by multipole expansion.
  | Analytical far-field extrapolation by fixed multipoles:
  | Hartree multipole sum: apparent total charge =  -0.350623E-03
  Summing up the Hartree potential.
  Time summed over all CPUs for potential: real work        0.284 s, elapsed        0.284 s
  | RMS charge density error from multipole expansion :   0.261815E-01

  Integrating Hamiltonian matrix: batch-based integration.
  Time summed over all CPUs for integration: real work        0.495 s, elapsed        0.495 s

  Updating Kohn-Sham eigenvalues and eigenvectors using ELSI and the ELPA eigensolver.
  Finished Cholesky decomposition
  | Time :     0.000 s
  Finished transformation to standard eigenproblem
  | Time :     0.000 s
  Starting LAPACK eigensolver
  Finished solving standard eigenproblem
  | Time :     0.001 s
  Finished back-transformation of eigenvectors
  | Time :     0.000 s

[...]
  |   Hirshfeld dipole moment :      0.06516508
  |   Hirshfeld second moments:      0.01103516      -0.01512069      -0.01412552
  |                                 -0.01512069      -0.01363407       0.00672346
  |                                 -0.01412552       0.00672346      -0.02327569
  ----------------------------------------------------------------------
  | Atom    12: O
  |   Hirshfeld charge        :     -0.14114254
  |   Free atom volume        :     23.61338643
  |   Hirshfeld volume        :     20.62343113
  |   Hirshfeld dipole vector :      0.01294933       0.00494888       0.03559371
  |   Hirshfeld dipole moment :      0.03819802
  |   Hirshfeld second moments:      0.07177639       0.01847655      -0.02491252
  |                                  0.01847655       0.07819443      -0.01451346
  |                                 -0.02491252      -0.01451346       0.04559675
  ----------------------------------------------------------------------
  | Atom    13: H
  |   Hirshfeld charge        :      0.17260798
  |   Free atom volume        :      9.95071624
  |   Hirshfeld volume        :      6.37076905
  |   Hirshfeld dipole vector :     -0.06409302      -0.07063273       0.06342913
  |   Hirshfeld dipole moment :      0.11454323
  |   Hirshfeld second moments:      0.11587252       0.00141879      -0.01437221
  |                                  0.00141879       0.12262556      -0.00021724
  |                                 -0.01437221      -0.00021724       0.08428437
  ----------------------------------------------------------------------


  Total energy components:
  | Sum of eigenvalues            :        -180.64392206 Ha       -4915.57122085 eV
  | XC energy correction          :         -42.63880920 Ha       -1160.26103184 eV
  | XC potential correction       :          54.81897885 Ha        1491.70031127 eV
  | Free-atom electrostatic energy:        -146.84858863 Ha       -3995.95340853 eV
  | Hartree energy correction     :          -8.19094344 Ha        -222.88691144 eV
  | vdW energy correction         :          -0.00318633 Ha          -0.08670441 eV
  | Entropy correction            :           0.00000000 Ha           0.00000000 eV
  | ---------------------------
  | Total energy                  :        -323.50647082 Ha       -8803.05896582 eV
  | Total energy, T -> 0          :        -323.50647082 Ha       -8803.05896582 eV  <-- do not rely on this value for anything but (periodic) metals
  | Electronic free energy        :        -323.50647082 Ha       -8803.05896582 eV

  Derived energy quantities:
  | Kinetic energy                :         322.57282163 Ha        8777.65307849 eV
  | Electrostatic energy          :        -603.43729692 Ha      -16420.36430806 eV
  | Energy correction for multipole
  | error in Hartree potential    :           0.04214827 Ha           1.14691271 eV
  | Sum of eigenvalues per atom                           :        -378.12086314 eV
  | Total energy (T->0) per atom                          :        -677.15838199 eV  <-- do not rely on this value for anything but (periodic) metals
  | Electronic free energy per atom                       :        -677.15838199 eV

  atomic forces [eV/Ang]:
  -----------------------
  atom #    1
   Hellmann-Feynman              :  0.348422E+00 -0.600315E+00  0.522309E+00
   Ionic forces                  :  0.000000E+00  0.000000E+00  0.000000E+00
   Multipole                     : -0.220234E-01  0.356399E+00 -0.268139E+00
   Pulay + GGA                   : -0.100732E+01  0.101668E-01 -0.110370E+01
   Van der Waals                 :  0.216607E-02  0.120706E-02 -0.165328E-02
   ----------------------------------------------------------------
   Total forces(   1)            : -0.678754E+00 -0.232542E+00 -0.851188E+00
  atom #    2
   Hellmann-Feynman              :  0.322106E+00 -0.100192E-01 -0.400602E-03
   Ionic forces                  :  0.000000E+00  0.000000E+00  0.000000E+00
   Multipole                     :  0.176501E+00  0.411249E-01 -0.354546E-01
   Pulay + GGA                   : -0.152246E+00  0.322713E-01 -0.180228E-02
   Van der Waals                 :  0.541986E-02 -0.224961E-02 -0.502442E-02
   ----------------------------------------------------------------
   Total forces(   2)            :  0.351782E+00  0.611273E-01 -0.426819E-01
  atom #    3
   Hellmann-Feynman              :  0.700541E+01  0.754159E+01 -0.491356E+01
   Ionic forces                  :  0.000000E+00  0.000000E+00  0.000000E+00
   Multipole                     : -0.142691E+00  0.152875E+00 -0.103847E+01
   Pulay + GGA                   : -0.597630E+01 -0.727649E+01  0.658566E+01
   Van der Waals                 :  0.268946E-02 -0.762900E-02 -0.625951E-02
   ----------------------------------------------------------------
   Total forces(   3)            :  0.889114E+00  0.410355E+00  0.627369E+00
  atom #    4
   Hellmann-Feynman              : -0.217673E+00 -0.358824E-01 -0.137617E+00
   Ionic forces                  :  0.000000E+00  0.000000E+00  0.000000E+00
   Multipole                     : -0.401421E-01 -0.781732E-01 -0.706032E-01
   Pulay + GGA                   : -0.454118E-02  0.234271E+00  0.597653E-01
   Van der Waals                 : -0.338645E-02  0.238852E-02  0.105055E-03
   ----------------------------------------------------------------
   Total forces(   4)            : -0.265742E+00  0.122604E+00 -0.148350E+00
  atom #    5
   Hellmann-Feynman              : -0.349219E+00 -0.229845E+00 -0.180035E-01
   Ionic forces                  :  0.000000E+00  0.000000E+00  0.000000E+00
   Multipole                     : -0.980076E-01  0.378627E-02 -0.467921E-01
   Pulay + GGA                   :  0.240888E+00 -0.105539E-01 -0.476266E-01
   Van der Waals                 : -0.139840E-02  0.345680E-02 -0.102396E-01
   ----------------------------------------------------------------
   Total forces(   5)            : -0.207738E+00 -0.233156E+00 -0.122662E+00
  atom #    6
   Hellmann-Feynman              :  0.155719E+00 -0.362082E+00  0.234058E+00
   Ionic forces                  :  0.000000E+00  0.000000E+00  0.000000E+00
   Multipole                     : -0.152389E+00  0.643486E+00  0.272119E+00
   Pulay + GGA                   :  0.230610E+00 -0.738628E+00 -0.468903E+00
   Van der Waals                 : -0.178776E-02  0.443204E-02 -0.267755E-02
   ----------------------------------------------------------------
   Total forces(   6)            :  0.232152E+00 -0.452792E+00  0.345965E-01
  atom #    7
   Hellmann-Feynman              : -0.252677E+00 -0.526142E-01 -0.414515E-01
   Ionic forces                  :  0.000000E+00  0.000000E+00  0.000000E+00
   Multipole                     : -0.119367E+00  0.482300E-01  0.383958E-01
   Pulay + GGA                   :  0.108400E+00  0.175614E-01  0.257997E-01
   Van der Waals                 : -0.234502E-02  0.390796E-02  0.837764E-02
   ----------------------------------------------------------------
   Total forces(   7)            : -0.265989E+00  0.170852E-01  0.311217E-01
  atom #    8
   Hellmann-Feynman              :  0.470072E-01 -0.558489E-01  0.127510E+00
   Ionic forces                  :  0.000000E+00  0.000000E+00  0.000000E+00
   Multipole                     :  0.144059E-01  0.666302E-01  0.129210E+00
   Pulay + GGA                   : -0.434150E-01 -0.404053E-01 -0.104469E+00
   Van der Waals                 : -0.305338E-02  0.112566E-01  0.117834E-02
   ----------------------------------------------------------------
   Total forces(   8)            :  0.149448E-01 -0.183675E-01  0.153430E+00
  atom #    9
   Hellmann-Feynman              :  0.102838E+00  0.284691E-01 -0.193120E+00
   Ionic forces                  :  0.000000E+00  0.000000E+00  0.000000E+00
   Multipole                     :  0.198677E-01  0.130449E+00 -0.693631E-02
   Pulay + GGA                   : -0.399947E-01 -0.111539E+00  0.262704E-01
   Van der Waals                 : -0.240118E-02  0.372215E-02  0.437320E-02
   ----------------------------------------------------------------
   Total forces(   9)            :  0.803100E-01  0.511012E-01 -0.169413E+00
  atom #   10
   Hellmann-Feynman              :  0.295583E+01  0.577268E+01  0.832374E+00
   Ionic forces                  :  0.000000E+00  0.000000E+00  0.000000E+00
   Multipole                     :  0.178307E-01 -0.156190E+00  0.178100E+00
   Pulay + GGA                   : -0.152041E+01 -0.343457E+01 -0.284314E+00
   Van der Waals                 :  0.539900E-02 -0.170463E-01  0.774393E-02
   ----------------------------------------------------------------
   Total forces(  10)            :  0.145865E+01  0.216487E+01  0.733904E+00
  atom #   11
   Hellmann-Feynman              :  0.409519E+01 -0.242689E+01  0.143232E+02
   Ionic forces                  :  0.000000E+00  0.000000E+00  0.000000E+00
   Multipole                     :  0.111953E+00 -0.509141E+00  0.812891E+00
   Pulay + GGA                   : -0.353525E+01  0.336295E+01 -0.133791E+02
   Van der Waals                 : -0.347500E-02 -0.117122E-01  0.736414E-03
   ----------------------------------------------------------------
   Total forces(  11)            :  0.668425E+00  0.415213E+00  0.175772E+01
  atom #   12
   Hellmann-Feynman              : -0.374511E+01 -0.546849E+00 -0.159331E+02
   Ionic forces                  :  0.000000E+00  0.000000E+00  0.000000E+00
   Multipole                     : -0.769731E+00 -0.108556E+01 -0.819730E+00
   Pulay + GGA                   :  0.241677E+01  0.395649E+00  0.147826E+02
   Van der Waals                 :  0.136092E-03  0.139978E-02  0.794718E-02
   ----------------------------------------------------------------
   Total forces(  12)            : -0.209794E+01 -0.123536E+01 -0.196232E+01
  atom #   13
   Hellmann-Feynman              : -0.325038E+00 -0.125422E+01  0.129273E+00
   Ionic forces                  :  0.000000E+00  0.000000E+00  0.000000E+00
   Multipole                     : -0.148573E-01 -0.310160E-01  0.809827E-01
   Pulay + GGA                   :  0.155543E+00  0.204556E+00 -0.246551E+00
   Van der Waals                 :  0.203670E-02  0.686625E-02 -0.460737E-02
   ----------------------------------------------------------------
   Total forces(  13)            : -0.182315E+00 -0.107381E+01 -0.409028E-01

  Timings for VdW correction (Tkatchenko-Scheffler 2009 or later):
  | CPU time:        0.089 s, Wall clock time:        0.090 s.
  Removing unitary transformations (pure translations, rotations) from forces on atoms.
  Atomic forces before filtering:
  | Net force on center of mass :  -0.309830E-02 -0.367078E-02  0.623397E-03 eV/A
  | Net torque on center of mass:  -0.729978E-02  0.315589E-02  0.463759E-02 eV
  Atomic forces after filtering:
  | Net force on center of mass :   0.892031E-16  0.178406E-15  0.306636E-15 eV/A
  | Net torque on center of mass:  -0.472042E-15  0.236021E-15  0.566451E-15 eV

  Energy and forces in a compact form:
  | Total energy uncorrected      :         -0.880305896581909E+04 eV
  | Total energy corrected        :         -0.880305896581909E+04 eV  <-- do not rely on this value for anything but (periodic) metals
  | Electronic free energy        :         -0.880305896581909E+04 eV
  Total atomic forces (unitary forces cleaned) [eV/Ang]:
  |   1         -0.678469187960974E+00         -0.232299854188143E+00         -0.851143671500386E+00
  |   2          0.352066447385588E+00          0.612185441694005E-01         -0.425035743677689E-01
  |   3          0.889572957953008E+00          0.410894157064890E+00          0.627354314208348E+00
  |   4         -0.265368062499231E+00          0.123193599693274E+00         -0.148510064193307E+00
  |   5         -0.207235898932483E+00         -0.232479920069276E+00         -0.122746942598299E+00
  |   6          0.232521421783619E+00         -0.452601612251270E+00          0.347868315626290E-01
  |   7         -0.265617881898620E+00          0.174231152882533E-01          0.311821556762105E-01
  |   8          0.151887225885264E-01         -0.183963723223423E-01          0.153666734960351E+00
  |   9          0.808648029874745E-01          0.513245197933534E-01         -0.169030099219895E+00
  |  10          0.145866477152754E+01          0.216504630997647E+01          0.733687579241148E+00
  |  11          0.668263044332558E+00          0.415159126756048E+00          0.175748964279379E+01
  |  12         -0.209795554524469E+01         -0.123497512257343E+01         -0.196275951711671E+01
  |  13         -0.182495592022322E+00         -0.107350649133723E+01         -0.414733894461194E-01

  ------------------------------------ 
  Start decomposition of the XC Energy 
  ------------------------------------ 
  X and C from original XC functional choice 
  Hartree-Fock Energy :          0.000000000 Ha              0.000000000 eV
  X Energy            :        -41.038274352 Ha          -1116.708262603 eV
  C Energy            :         -1.600534851 Ha            -43.552769241 eV
  Total XC Energy     :        -42.638809203 Ha          -1160.261031845 eV
  ------------------------------------ 
  LDA X and C from self-consistent density 
  X Energy LDA        :        -37.257452940 Ha          -1013.826877446 eV
  C Energy LDA        :         -3.138611016 Ha            -85.405951142 eV
  ------------------------------------ 
  End decomposition of the XC Energy 
  ------------------------------------ 

------------------------------------------------------------

------------------------------------------------------------------------------
  Final output of selected total energy values:

  The following output summarizes some interesting total energy values
  at the end of a run (AFTER all relaxation, molecular dynamics, etc.).

  | Total energy of the DFT / Hartree-Fock s.c.f. calculation      :          -8803.058965819 eV
  | Final zero-broadening corrected energy (caution - metals only) :          -8803.058965819 eV
  | For reference only, the value of 1 Hartree used in FHI-aims is :             27.211384500 eV

  Before relying on these values, please be sure to understand exactly which
  total energy value is referred to by a given number. Different objects may
  all carry the same name 'total energy'. Definitions:

  Total energy of the DFT / Hartree-Fock s.c.f. calculation:
  | Note that this energy does not include ANY quantities calculated after the
  | s.c.f. cycle, in particular not ANY RPA, MP2, etc. many-body perturbation terms.

  Final zero-broadening corrected energy:
  | For metallic systems only, a broadening of the occupation numbers at the Fermi
  | level can be extrapolated back to zero broadening by an electron-gas inspired
  | formula. For all systems that are not real metals, this value can be
  | meaningless and should be avoided.

------------------------------------------------------------------------------
  Methods described in the following list of references were used in this FHI-aims run.
  If you publish the results, please make sure to cite these reference if they apply.
  FHI-aims is an academic code, and for our developers (often, Ph.D. students
  and postdocs), scientific credit in the community is essential.
  Thank you for helping us!

  For any use of FHI-aims, please cite:

    Volker Blum, Ralf Gehrke, Felix Hanke, Paula Havu, Ville Havu,
    Xinguo Ren, Karsten Reuter, and Matthias Scheffler
    'Ab initio molecular simulations with numeric atom-centered orbitals'
    Computer Physics Communications 180, 2175-2196 (2009)
    http://dx.doi.org/10.1016/j.cpc.2009.06.022


  The scalable eigensolver library ELPA was used in your run.
  ELPA is essential especially for large systems on hundreds or thousands of CPUs.
  For ELPA, please cite:

    Andreas Marek, Volker Blum, Rainer Johanni, Ville Havu, Bruno Lang,
    Thomas Auckenthaler, Alexander Heinecke, Hans-Joachim Bungartz, and Hermann Lederer,
    'The ELPA Library - Scalable Parallel Eigenvalue Solutions
    for Electronic Structure Theory and Computational Science'
    The Journal of Physics: Condensed Matter 26, 213201 (2014).
    http://dx.doi.org/10.1088/0953-8984/26/21/213201


  The ELSI infrastructure was used in your run to solve the Kohn-Sham electronic structure.
  Please check out http://elsi-interchange.org to learn more.
  If scalability is important for your project, please acknowledge ELSI by citing:

    V. W-z. Yu, F. Corsetti, A. Garcia, W. P. Huhn, M. Jacquelin, W. Jia,
    B. Lange, L. Lin, J. Lu, W. Mi, A. Seifitokaldani, A. Vazquez-Mayagoitia,
    C. Yang, H. Yang, and V. Blum
    'ELSI: A unified software interface for Kohn-Sham electronic structure solvers'
    Computer Physics Communications 222, 267-285 (2018).
    http://dx.doi.org/10.1016/j.cpc.2017.09.007


  For the real-space grid partitioning and parallelization used in this calculation, please cite:

    Ville Havu, Volker Blum, Paula Havu, and Matthias Scheffler,
    'Efficient O(N) integration for all-electron electronic structure calculation'
    'using numerically tabulated basis functions'
    Journal of Computational Physics 228, 8367-8379 (2009).
    http://dx.doi.org/10.1016/j.jcp.2009.08.008

  Of course, there are many other important community references, e.g., those cited in the
  above references. Our list is limited to references that describe implementations in the
  FHI-aims code. The reason is purely practical (length of this list) - please credit others as well.

------------------------------------------------------------
          Leaving FHI-aims.
          Date     :  20200710, Time     :  143917.120

          Computational steps:
          | Number of self-consistency cycles          :           16
          | Number of SCF (re)initializations          :            1

          Detailed time accounting                     :  max(cpu_time)    wall_clock(cpu1)
          | Total time                                 :       22.596 s          22.643 s
          | Preparation time                           :        0.145 s           0.146 s
          | Boundary condition initalization           :        0.000 s           0.001 s
          | Grid partitioning                          :        0.111 s           0.111 s
          | Preloading free-atom quantities on grid    :        0.002 s           0.003 s
          | Free-atom superposition energy             :        0.084 s           0.084 s
          | Total time for integrations                :        8.583 s           8.594 s
          | Total time for solution of K.-S. equations :        0.036 s           0.038 s
          | Total time for density & force components  :        7.102 s           7.114 s
          | Total time for mixing                      :        0.214 s           0.217 s
          | Total time for Hartree multipole update    :        0.140 s           0.142 s
          | Total time for Hartree multipole sum       :        5.782 s           5.783 s
          | Total time for total energy evaluation     :        0.003 s           0.002 s
          | Total time for vdW correction              :        0.089 s           0.090 s

          Partial memory accounting:
          | Residual value for overall tracked memory usage across tasks :           0.000 MB (should be 0.000 MB)
          | Peak values for overall tracked memory usage (after allocating hessian_basis_wave):
          |   Minimum:        1.622 MB (on task 1)
          |   Maximum:        1.622 MB (on task 1)
          |   Average:        1.622 MB
          | Largest tracked array allocation (hessian_basis_wave):
          |   Minimum:        0.794 MB (on task 1)
          |   Maximum:        0.794 MB (on task 1)
          |   Average:        0.794 MB
          Note:  These values currently only include a subset of arrays which are explicitly tracked.
          The "true" memory usage will be greater.

          Have a nice day.
------------------------------------------------------------
