  MPI-parallelism will be employed.
------------------------------------------------------------
          Invoking FHI-aims ...
          Version 171221_1
          Compiled on 2019/09/09 at 14:39:39 on host puhti-login2.bullx.

          When using FHI-aims, please cite the following reference:

          Volker Blum, Ralf Gehrke, Felix Hanke, Paula Havu,
          Ville Havu, Xinguo Ren, Karsten Reuter, and Matthias Scheffler,
          'Ab Initio Molecular Simulations with Numeric Atom-Centered Orbitals',
          Computer Physics Communications 180, 2175-2196 (2009)

          For any questions about FHI-aims, please visit the aimsclub website
          with its forums and wiki. Contributions to both the forums and the
          wiki are warmly encouraged - they are for you, and everyone is welcome there.

------------------------------------------------------------



  Date     :  20200710, Time     :  144636.054
  Time zero on CPU 1             :   0.117320000000000E-01  s.
  Internal wall clock time zero  :           363624396.054  s.

  FHI-aims created a unique identifier for this run for later identification
  aims_uuid : F2D080D9-0403-4E47-A8A2-E2ED8EBA08EE

  Using        1 parallel tasks.
  Task        0 on host r18c44.bullx reporting.

  Performing system and environment tests:
  | Environment variable OMP_NUM_THREADS correctly set to 1.
  | Stacksize not measured: no C compiler
  | Checking for scalapack...
  | Testing pdtran()...
  | All pdtran() tests passed.

  Obtaining array dimensions for all initial allocations:
  
  -----------------------------------------------------------------------
  Parsing control.in (first pass over file, find array dimensions only).
  The contents of control.in will be repeated verbatim below
  unless switched off by setting 'verbatim_writeout .false.' .
  in the first line of control.in .
  -----------------------------------------------------------------------
  
  #########################################################################################
  #
  #  Volker Blum, FHI 2009 : Test run input file control.in for simple H2O
  #
  #########################################################################################
  #
  #  Physical model
  #
    xc                 pbe
    vdw_correction_hirshfeld
    spin               none
    relativistic       none
    charge             0.
  #
  #  SCF convergence
  #
    occupation_type    gaussian 0.01
    mixer              pulay
      n_max_pulay        10
      charge_mix_param   0.2
    sc_accuracy_rho    1E-5
    sc_accuracy_eev    1E-3
    sc_accuracy_etot   1E-6
    sc_accuracy_forces 1E-4
    sc_iter_limit      100
  #
  #  Relaxation
  #
  #  relax_geometry   bfgs 1.e-3
  #
  ################################################################################
  #
  #  FHI-aims code project
  #  VB, Fritz-Haber Institut, 2009
  #
  #  Suggested "light" defaults for H atom (to be pasted into control.in file)
  #  Be sure to double-check any results obtained with these settings for post-processing,
  #  e.g., with the "tight" defaults and larger basis sets.
  #
  ################################################################################
    species        H
  #     global species definitions
      nucleus             1
      mass                1.00794
  #
      l_hartree           4
  #
      cut_pot             3.5  1.5  1.0
      basis_dep_cutoff    1e-4
  #
      radial_base         24 5.0
      radial_multiplier   1
      angular_grids       specified
        division   0.2421   50
        division   0.3822  110
        division   0.4799  194
        division   0.5341  302
  #      division   0.5626  434
  #      division   0.5922  590
  #      division   0.6542  770
  #      division   0.6868 1202
  #      outer_grid  770
        outer_grid  302
  ################################################################################
  #
  #  Definition of "minimal" basis
  #
  ################################################################################
  #     valence basis states
      valence      1  s   1.
  #     ion occupancy
      ion_occ      1  s   0.5
  ################################################################################
  #
  #  Suggested additional basis functions. For production calculations,
  #  uncomment them one after another (the most important basis functions are
  #  listed first).
  #
  #  Basis constructed for dimers: 0.5 A, 0.7 A, 1.0 A, 1.5 A, 2.5 A
  #
  ################################################################################
  #  "First tier" - improvements: -1014.90 meV to -62.69 meV
       hydro 2 s 2.1
       hydro 2 p 3.5
  #  "Second tier" - improvements: -12.89 meV to -1.83 meV
  #     hydro 1 s 0.85
  #     hydro 2 p 3.7
  #     hydro 2 s 1.2
  #     hydro 3 d 7
  #  "Third tier" - improvements: -0.25 meV to -0.12 meV
  #     hydro 4 f 11.2
  #     hydro 3 p 4.8
  #     hydro 4 d 9
  #     hydro 3 s 3.2
  ################################################################################
  #
  #  FHI-aims code project
  #  VB, Fritz-Haber Institut, 2009
  #
  #  Suggested "light" defaults for C atom (to be pasted into control.in file)
  #  Be sure to double-check any results obtained with these settings for post-processing,
  #  e.g., with the "tight" defaults and larger basis sets.
  #
  ################################################################################
    species        C
  #     global species definitions
      nucleus             6
      mass                12.0107
  #
      l_hartree           4
  #
      cut_pot             3.5  1.5  1.0
      basis_dep_cutoff    1e-4
  #
      radial_base         34 5.0
      radial_multiplier   1
      angular_grids specified
        division   0.3326   50
        division   0.5710  110
        division   0.7727  194
        division   0.8772  302
  #      division   0.9334  434
  #      division   0.9625  590
  #      division   0.9924  770
  #      division   1.0230  974
  #      division   1.4589 1202
  #     outer_grid  974
       outer_grid 302
  ################################################################################
  #
  #  Definition of "minimal" basis
  #
  ################################################################################
  #     valence basis states
      valence      2  s   2.
      valence      2  p   2.
  #     ion occupancy
      ion_occ      2  s   1.
      ion_occ      2  p   1.
  ################################################################################
  #
  #  Suggested additional basis functions. For production calculations,
  #  uncomment them one after another (the most important basis functions are
  #  listed first).
  #
  #  Constructed for dimers: 1.0 A, 1.25 A, 1.5 A, 2.0 A, 3.0 A
  #
  ################################################################################
  #  "First tier" - improvements: -1214.57 meV to -155.61 meV
       hydro 2 p 1.7
       hydro 3 d 6
       hydro 2 s 4.9
  #  "Second tier" - improvements: -67.75 meV to -5.23 meV
  #     hydro 4 f 9.8
  #     hydro 3 p 5.2
  #     hydro 3 s 4.3
  #     hydro 5 g 14.4
  #     hydro 3 d 6.2
  #  "Third tier" - improvements: -2.43 meV to -0.60 meV
  #     hydro 2 p 5.6
  #     hydro 2 s 1.4
  #     hydro 3 d 4.9
  #     hydro 4 f 11.2
  #  "Fourth tier" - improvements: -0.39 meV to -0.18 meV
  #     hydro 2 p 2.1
  #     hydro 5 g 16.4
  #     hydro 4 d 13.2
  #     hydro 3 s 13.6
  #     hydro 4 f 17.6
  #  Further basis functions - improvements: -0.08 meV and below
  #     hydro 3 s 2
  #     hydro 3 p 6
  #     hydro 4 d 20
  ################################################################################
  #
  #  FHI-aims code project
  #  VB, Fritz-Haber Institut, 2009
  #
  #  Suggested "light" defaults for N atom (to be pasted into control.in file)
  #  Be sure to double-check any results obtained with these settings for post-processing,
  #  e.g., with the "tight" defaults and larger basis sets.
  #
  ################################################################################
    species        N
  #     global species definitions
      nucleus             7
      mass                14.0067
  #
      l_hartree           4
  #
      cut_pot             3.5  1.5  1.0
      basis_dep_cutoff    1e-4
  #
      radial_base         35 5.0
      radial_multiplier   1
      angular_grids       specified
        division   0.2599   50
        division   0.4601  110
        division   0.5885  194
        division   0.6503  302
  #      division   0.6939  434
  #      division   0.7396  590
  #      division   0.7632  770
  #      division   0.8122  974
  #      division   1.1604 1202
  #      outer_grid  974
        outer_grid  302
  ################################################################################
  #
  #  Definition of "minimal" basis
  #
  ################################################################################
  #     valence basis states
      valence      2  s   2.
      valence      2  p   3.
  #     ion occupancy
      ion_occ      2  s   1.
      ion_occ      2  p   2.
  ################################################################################
  #
  #  Suggested additional basis functions. For production calculations,
  #  uncomment them one after another (the most important basis functions are
  #  listed first).
  #
  #  Constructed for dimers: 1.0 A, 1.1 A, 1.5 A, 2.0 A, 3.0 A
  #
  ################################################################################
  #  "First tier" - improvements: -1193.42 meV to -220.60 meV
       hydro 2 p 1.8
       hydro 3 d 6.8
       hydro 3 s 5.8
  #  "Second tier" - improvements: -80.21 meV to -6.86 meV
  #     hydro 4 f 10.8
  #     hydro 3 p 5.8
  #     hydro 1 s 0.8
  #     hydro 5 g 16
  #     hydro 3 d 4.9
  #  "Third tier" - improvements: -4.29 meV to -0.53 meV
  #     hydro 3 s 16
  #     ionic 2 p auto
  #     hydro 3 d 6.6
  #     hydro 4 f 11.6
  #  "Fourth tier" - improvements: -0.75 meV to -0.25 meV
  #     hydro 2 p 4.5
  #     hydro 2 s 2.4
  #     hydro 5 g 14.4
  #     hydro 4 d 14.4
  #     hydro 4 f 16.8
  # Further basis functions - -0.21 meV and below
  #     hydro 3 p 14.8
  #     hydro 3 s 4.4
  #     hydro 3 d 19.6
  #     hydro 5 g 12.8
  ################################################################################
  #
  #  FHI-aims code project
  #  VB, Fritz-Haber Institut, 2009
  #
  #  Suggested "light" defaults for O atom (to be pasted into control.in file)
  #  Be sure to double-check any results obtained with these settings for post-processing,
  #  e.g., with the "tight" defaults and larger basis sets.
  #
  ################################################################################
    species        O
  #     global species definitions
      nucleus             8
      mass                15.9994
  #
      l_hartree           4
  #
      cut_pot             3.5  1.5  1.0
      basis_dep_cutoff    1e-4
  #
      radial_base         36 5.0
      radial_multiplier   1
       angular_grids specified
        division   0.2659   50
        division   0.4451  110
        division   0.6052  194
        division   0.7543  302
  #      division   0.8014  434
  #      division   0.8507  590
  #      division   0.8762  770
  #      division   0.9023  974
  #      division   1.2339 1202
  #      outer_grid 974
        outer_grid 302
  ################################################################################
  #
  #  Definition of "minimal" basis
  #
  ################################################################################
  #     valence basis states
      valence      2  s   2.
      valence      2  p   4.
  #     ion occupancy
      ion_occ      2  s   1.
      ion_occ      2  p   3.
  ################################################################################
  #
  #  Suggested additional basis functions. For production calculations,
  #  uncomment them one after another (the most important basis functions are
  #  listed first).
  #
  #  Constructed for dimers: 1.0 A, 1.208 A, 1.5 A, 2.0 A, 3.0 A
  #
  ################################################################################
  #  "First tier" - improvements: -699.05 meV to -159.38 meV
       hydro 2 p 1.8
       hydro 3 d 7.6
       hydro 3 s 6.4
  #  "Second tier" - improvements: -49.91 meV to -5.39 meV
  #     hydro 4 f 11.6
  #     hydro 3 p 6.2
  #     hydro 3 d 5.6
  #     hydro 5 g 17.6
  #     hydro 1 s 0.75
  #  "Third tier" - improvements: -2.83 meV to -0.50 meV
  #     ionic 2 p auto
  #     hydro 4 f 10.8
  #     hydro 4 d 4.7
  #     hydro 2 s 6.8
  #  "Fourth tier" - improvements: -0.40 meV to -0.12 meV
  #     hydro 3 p 5
  #     hydro 3 s 3.3
  #     hydro 5 g 15.6
  #     hydro 4 f 17.6
  #     hydro 4 d 14
  # Further basis functions - -0.08 meV and below
  #     hydro 3 s 2.1
  #     hydro 4 d 11.6
  #     hydro 3 p 16
  #     hydro 2 s 17.2
  
  -----------------------------------------------------------------------
  Completed first pass over input file control.in .
  -----------------------------------------------------------------------
  
  
  -----------------------------------------------------------------------
  Parsing geometry.in (first pass over file, find array dimensions only).
  The contents of geometry.in will be repeated verbatim below
  unless switched off by setting 'verbatim_writeout .false.' .
  in the first line of geometry.in .
  -----------------------------------------------------------------------
  
  atom  0.00000 0.00000 0.00000 C
  atom  1.09300 0.00000 0.00000 H
  atom  -0.47961 0.00000 -1.41207 N
  atom  -1.37400 0.49006 -1.45373 H
  atom  0.20936 0.47537 -1.99128 H
  atom  -0.49584 1.26211 0.72868 C
  atom  -1.58789 1.28919 0.74431 H
  atom  -0.13407 1.27425 1.75947 H
  atom  -0.13407 2.16087 0.22380 H
  atom  -0.39425 -1.28861 0.74398 C
  atom  -0.10189 -1.56493 1.88303 O
  atom  -1.10210 -2.13717 0.06896 O
  atom  -1.30567 -1.57442 -0.69710 H
  
  -----------------------------------------------------------------------
  Completed first pass over input file geometry.in .
  -----------------------------------------------------------------------
  

  Basic array size parameters:
  | Number of species                 :        4
  | Number of atoms                   :       13
  | Max. basis fn. angular momentum   :        2
  | Max. atomic/ionic basis occupied n:        2
  | Max. number of basis fn. types    :        2
  | Max. radial fns per species/type  :        3
  | Max. logarithmic grid size        :     1301
  | Max. radial integration grid size :       36
  | Max. angular integration grid size:      302
  | Max. angular grid division number :        8
  | Radial grid for Hartree potential :     1301
  | Number of spin channels           :        1

------------------------------------------------------------
          Reading file control.in.
------------------------------------------------------------
  XC: Using PBE gradient-corrected functionals.
  Spin treatment: No spin polarisation.
  Non-relativistic treatment of kinetic energy.
  Charge =   0.000000E+00: Neutral system requested explicitly.
  Occupation type: Gaussian broadening, width =   0.100000E-01 eV.
  Using pulay charge density mixing.
  Pulay mixing - number of memorized iterations:   10
  Charge density mixing - mixing parameter:     0.2000
  Convergence accuracy of self-consistent charge density:  0.1000E-04
  Convergence accuracy of sum of eigenvalues:  0.1000E-02
  Convergence accuracy of total energy:  0.1000E-05
  Convergence accuracy of forces:  0.1000E-03
  Maximum number of s.-c. iterations  :   100
 
  Reading configuration options for species H                   .
  | Found nuclear charge :   1.0000
  | Found atomic mass :    1.00794000000000      amu
  | Found l_max for Hartree potential  :   4
  | Found cutoff potl. onset [A], width [A], scale factor :    3.50000    1.50000    1.00000
  | Threshold for basis-dependent cutoff potential is   0.100000E-03
  | Found data for basic radial integration grid :    24 points, outermost radius =    5.000 A
  | Found multiplier for basic radial grid :   1
  | Found angular grid specification: user-specified.
  | Specified grid contains     5 separate shells.
  | Check grid settings after all constraints further below.
  | Found free-atom valence shell :  1 s   1.000
  | No ionic wave fns used. Skipping ion_occ.
  | Found hydrogenic basis function :  2 s   2.100
  | Found hydrogenic basis function :  2 p   3.500
  Species H                   : Missing cutoff potential type.
  Defaulting to exp(1/x)/(1-x)^2 type cutoff potential.
  Species H : No 'logarithmic' tag. Using default grid for free atom:
  | Default logarithmic grid data [bohr] : 0.1000E-03 0.1000E+03 0.1012E+01
  Species H : On-site basis accuracy parameter (for Gram-Schmidt orthonormalisation) not specified.
  Using default value basis_acc =  0.1000000E-03.
  Species H                   : Using default innermost maximum threshold i_radial=  2 for radial functions.
  Species H                   : Default cutoff onset for free atom density etc. : 0.35000000E+01 AA.
  Species H                   : Basic radial grid will be enhanced according to radial_multiplier =   1, to contain    24 grid points.
 
  Reading configuration options for species C                   .
  | Found nuclear charge :   6.0000
  | Found atomic mass :    12.0107000000000      amu
  | Found l_max for Hartree potential  :   4
  | Found cutoff potl. onset [A], width [A], scale factor :    3.50000    1.50000    1.00000
  | Threshold for basis-dependent cutoff potential is   0.100000E-03
  | Found data for basic radial integration grid :    34 points, outermost radius =    5.000 A
  | Found multiplier for basic radial grid :   1
  | Found angular grid specification: user-specified.
  | Specified grid contains     5 separate shells.
  | Check grid settings after all constraints further below.
  | Found free-atom valence shell :  2 s   2.000
  | Found free-atom valence shell :  2 p   2.000
  | No ionic wave fns used. Skipping ion_occ.
  | No ionic wave fns used. Skipping ion_occ.
  | Found hydrogenic basis function :  2 p   1.700
  | Found hydrogenic basis function :  3 d   6.000
  | Found hydrogenic basis function :  2 s   4.900
  Species C                   : Missing cutoff potential type.
  Defaulting to exp(1/x)/(1-x)^2 type cutoff potential.
  Species C : No 'logarithmic' tag. Using default grid for free atom:
  | Default logarithmic grid data [bohr] : 0.1000E-03 0.1000E+03 0.1012E+01
  Species C : On-site basis accuracy parameter (for Gram-Schmidt orthonormalisation) not specified.
  Using default value basis_acc =  0.1000000E-03.
  Species C                   : Using default innermost maximum threshold i_radial=  2 for radial functions.
  Species C                   : Default cutoff onset for free atom density etc. : 0.35000000E+01 AA.
  Species C                   : Basic radial grid will be enhanced according to radial_multiplier =   1, to contain    34 grid points.
 
  Reading configuration options for species N                   .
  | Found nuclear charge :   7.0000
  | Found atomic mass :    14.0067000000000      amu
  | Found l_max for Hartree potential  :   4
  | Found cutoff potl. onset [A], width [A], scale factor :    3.50000    1.50000    1.00000
  | Threshold for basis-dependent cutoff potential is   0.100000E-03
  | Found data for basic radial integration grid :    35 points, outermost radius =    5.000 A
  | Found multiplier for basic radial grid :   1
  | Found angular grid specification: user-specified.
  | Specified grid contains     5 separate shells.
  | Check grid settings after all constraints further below.
  | Found free-atom valence shell :  2 s   2.000
  | Found free-atom valence shell :  2 p   3.000
  | No ionic wave fns used. Skipping ion_occ.
  | No ionic wave fns used. Skipping ion_occ.
  | Found hydrogenic basis function :  2 p   1.800
  | Found hydrogenic basis function :  3 d   6.800
  | Found hydrogenic basis function :  3 s   5.800
  Species N                   : Missing cutoff potential type.
  Defaulting to exp(1/x)/(1-x)^2 type cutoff potential.
  Species N : No 'logarithmic' tag. Using default grid for free atom:
  | Default logarithmic grid data [bohr] : 0.1000E-03 0.1000E+03 0.1012E+01
  Species N : On-site basis accuracy parameter (for Gram-Schmidt orthonormalisation) not specified.
  Using default value basis_acc =  0.1000000E-03.
  Species N                   : Using default innermost maximum threshold i_radial=  2 for radial functions.
  Species N                   : Default cutoff onset for free atom density etc. : 0.35000000E+01 AA.
  Species N                   : Basic radial grid will be enhanced according to radial_multiplier =   1, to contain    35 grid points.
 
  Reading configuration options for species O                   .
  | Found nuclear charge :   8.0000
  | Found atomic mass :    15.9994000000000      amu
  | Found l_max for Hartree potential  :   4
  | Found cutoff potl. onset [A], width [A], scale factor :    3.50000    1.50000    1.00000
  | Threshold for basis-dependent cutoff potential is   0.100000E-03
  | Found data for basic radial integration grid :    36 points, outermost radius =    5.000 A
  | Found multiplier for basic radial grid :   1
  | Found angular grid specification: user-specified.
  | Specified grid contains     5 separate shells.
  | Check grid settings after all constraints further below.
  | Found free-atom valence shell :  2 s   2.000
  | Found free-atom valence shell :  2 p   4.000
  | No ionic wave fns used. Skipping ion_occ.
  | No ionic wave fns used. Skipping ion_occ.
  | Found hydrogenic basis function :  2 p   1.800
  | Found hydrogenic basis function :  3 d   7.600
  | Found hydrogenic basis function :  3 s   6.400
  Species O                   : Missing cutoff potential type.
  Defaulting to exp(1/x)/(1-x)^2 type cutoff potential.
  Species O : No 'logarithmic' tag. Using default grid for free atom:
  | Default logarithmic grid data [bohr] : 0.1000E-03 0.1000E+03 0.1012E+01
  Species O : On-site basis accuracy parameter (for Gram-Schmidt orthonormalisation) not specified.
  Using default value basis_acc =  0.1000000E-03.
  Species O                   : Using default innermost maximum threshold i_radial=  2 for radial functions.
  Species O                   : Default cutoff onset for free atom density etc. : 0.35000000E+01 AA.
  Species O                   : Basic radial grid will be enhanced according to radial_multiplier =   1, to contain    36 grid points.
 
  Finished reading input file 'control.in'. Consistency checks are next.
 
  MPI_IN_PLACE appears to work with this MPI implementation.
  | Keeping use_mpi_in_place .true. (see manual).
  Target number of points in a grid batch is not set. Defaulting to  100
  Method for grid partitioning is not set. Defaulting to parallel hash+maxmin partitioning.
  Batch size limit is not set. Defaulting to    200
  By default, will store active basis functions for each batch.
  If in need of memory, prune_basis_once .false. can be used to disable this option.
  communication_type for Hartree potential was not specified.
  Defaulting to calc_hartree .
  Pulay mixer: Number of initial linear mixing iterations not set.
  Defaulting to    0 iterations.
  Work space size for distributed Hartree potential not set.
  Defaulting to   0.200000E+03 MB.
  Algorithm-dependent basis array size parameters:
  | n_max_pulay                         :       10
  Presetting      1001 iterations before the initial mixing cycle
  is restarted anyway using the sc_init_iter criterion / keyword.
  Presetting a factor      1.000 between actual scf density residual
  and density convergence criterion sc_accuracy_rho below which sc_init_iter
  takes no effect.
  Geometry relaxation not requested: no relaxation will be performed.
  Handling of forces: Unphysical translation and rotation will be removed from forces.
  No accuracy limit for integral partition fn. given. Defaulting to  0.1000E-14.
  No threshold value for u(r) in integrations given. Defaulting to  0.1000E-05.
  No accuracy for occupation numbers given. Defaulting to  0.1000E-12.
  No threshold value for occupation numbers given. Defaulting to  0.0000E+00.
  No accuracy for fermi level given. Defaulting to  0.1000E-19.
  Maximum # of iterations to find E_F not set. Defaulting to  200.
  Preferred method for the eigenvalue solver ('KS_method') not specified in 'control.in'.
  Defaulting to serial version, 'lapack_fast'.
  Will not use alltoall communication since running on < 1024 CPUs.
  Threshold for basis singularities not set.
  Default threshold for basis singularities:  0.1000E-04
  partition_type (choice of integration weights) for integrals was not specified.
  | Using a version of the partition function of Stratmann and coworkers ('stratmann_smoother').
  | At each grid point, the set of atoms used to build the partition table is smoothly restricted to
  | only those atoms whose free-atom density would be non-zero at that grid point.
  Partitioning for Hartree potential was not defined. Using partition_type for integrals.
  | Adjusted default value of keyword multip_moments_threshold to:       0.10000000E-11
  | This value may affect high angular momentum components of the Hartree potential in periodic systems.
  No q(lm)/r^(l+1) cutoff set for long-range Hartree potential.
  | Using default value of  0.100000E-09 .
  | Verify using the multipole_threshold keyword.
  Defaulting to new monopole extrapolation.
  Density update method: automatic selection selected.
------------------------------------------------------------


------------------------------------------------------------
          Reading geometry description geometry.in.
------------------------------------------------------------
  Input structure read successfully.
  The structure contains       13 atoms,  and a total of         48.000 electrons.

  Input geometry:
  | No unit cell requested.
  | Atomic structure:
  |       Atom                x [A]            y [A]            z [A]
  |    1: Species C             0.00000000        0.00000000        0.00000000
  |    2: Species H             1.09300000        0.00000000        0.00000000
  |    3: Species N            -0.47961000        0.00000000       -1.41207000
  |    4: Species H            -1.37400000        0.49006000       -1.45373000
  |    5: Species H             0.20936000        0.47537000       -1.99128000
  |    6: Species C            -0.49584000        1.26211000        0.72868000
  |    7: Species H            -1.58789000        1.28919000        0.74431000
  |    8: Species H            -0.13407000        1.27425000        1.75947000
  |    9: Species H            -0.13407000        2.16087000        0.22380000
  |   10: Species C            -0.39425000       -1.28861000        0.74398000
  |   11: Species O            -0.10189000       -1.56493000        1.88303000
  |   12: Species O            -1.10210000       -2.13717000        0.06896000
  |   13: Species H            -1.30567000       -1.57442000       -0.69710000
  |

  | The smallest distance between any two atoms is         0.97209888 AA.
  |
  | The first atom of this pair is atom number                     12 .
  | The second atom of this pair is atom number                    13 .

  Number of empty states per atom not set in control.in - providing a guess from actual geometry.
  | Total number of empty states used during s.c.f. cycle:       29
  If you use a very high smearing, use empty_states (per atom!) in control.in to increase this value.

  Structure-dependent array size parameters: 
  | Maximum number of distinct radial functions  :       21
  | Maximum number of basis functions            :      119
  | Number of Kohn-Sham states (occupied + empty):       53
------------------------------------------------------------

------------------------------------------------------------
          Preparing all fixed parts of the calculation.
------------------------------------------------------------
  Determining machine precision:
    2.225073858507201E-308
  Setting up grids for atomic and cluster calculations.

  Creating wave function, potential, and density for free atoms.

  Species: H

  List of occupied orbitals and eigenvalues:
    n    l              occ      energy [Ha]    energy [eV]
    1    0           1.0000        -0.237589        -6.4651


  Species: C

  List of occupied orbitals and eigenvalues:
    n    l              occ      energy [Ha]    energy [eV]
    1    0           2.0000       -10.038835      -273.1706
    2    0           2.0000        -0.502696       -13.6791
    2    1           2.0000        -0.191971        -5.2238


  Species: N

  List of occupied orbitals and eigenvalues:
    n    l              occ      energy [Ha]    energy [eV]
    1    0           2.0000       -14.128000      -384.4424
    2    0           2.0000        -0.681077       -18.5330
    2    1           3.0000        -0.259788        -7.0692


  Species: O

  List of occupied orbitals and eigenvalues:
    n    l              occ      energy [Ha]    energy [eV]
    1    0           2.0000       -18.898188      -514.2459
    2    0           2.0000        -0.878505       -23.9053
    2    1           4.0000        -0.331779        -9.0282

  Creating fixed part of basis set: Ionic, confined, hydrogenic.
 
  H                    hydrogenic:
 
  List of hydrogenic basis orbitals: 
    n    l      effective z      eigenvalue [eV]  inner max. [A]     outer max. [A]     outer radius [A]   
    2    0         2.100000       -14.9728           0.193243           1.317208           4.583499
    2    1         3.500000       -41.6669           0.602369           0.602369           3.723403
 
 
  C                    hydrogenic:
 
  List of hydrogenic basis orbitals: 
    n    l      effective z      eigenvalue [eV]  inner max. [A]     outer max. [A]     outer radius [A]   
    2    1         1.700000        -9.7616           1.230570           1.230570           4.607917
    3    2         6.000000       -54.4224           0.792453           0.792453           3.883070
    2    0         4.900000       -81.6679           0.082559           0.562749           3.078220
 
 
  N                    hydrogenic:
 
  List of hydrogenic basis orbitals: 
    n    l      effective z      eigenvalue [eV]  inner max. [A]     outer max. [A]     outer radius [A]   
    2    1         1.800000       -10.9749           1.177451           1.177451           4.573712
    3    2         6.800000       -69.9026           0.704619           0.704619           3.538137
    3    0         5.800000       -50.8545           0.067388           1.191934           4.250239
 
 
  O                    hydrogenic:
 
  List of hydrogenic basis orbitals: 
    n    l      effective z      eigenvalue [eV]  inner max. [A]     outer max. [A]     outer radius [A]   
    2    1         1.800000       -10.9749           1.164242           1.164242           4.578029
    3    2         7.600000       -87.3180           0.624125           0.624125           3.251020
    3    0         6.400000       -61.9207           0.061167           1.081902           4.001998
 

  Adding cutoff potential to free-atom effective potential.
  Creating atomic-like basis functions for current effective potential.

  Species H                   :

  List of atomic basis orbitals and eigenvalues:
    n    l      energy [Ha]    energy [eV]    outer radius [A]
    1    0        -0.237589        -6.4651       4.527807


  Species C                   :

  List of atomic basis orbitals and eigenvalues:
    n    l      energy [Ha]    energy [eV]    outer radius [A]
    1    0       -10.038835      -273.1706       1.934409
    2    0        -0.502696       -13.6791       4.496620
    2    1        -0.191971        -5.2238       4.551928


  Species N                   :

  List of atomic basis orbitals and eigenvalues:
    n    l      energy [Ha]    energy [eV]    outer radius [A]
    1    0       -14.128000      -384.4424       1.637919
    2    0        -0.681077       -18.5330       4.463241
    2    1        -0.259788        -7.0692       4.518138


  Species O                   :

  List of atomic basis orbitals and eigenvalues:
    n    l      energy [Ha]    energy [eV]    outer radius [A]
    1    0       -18.898188      -514.2459       1.415765
    2    0        -0.878505       -23.9053       4.413171
    2    1        -0.331779        -9.0282       4.522403

  Assembling full basis from fixed parts.
  | Species H :   atomic orbital   1 s accepted.
  | Species H :    hydro orbital   2 s accepted.
  | Species H :    hydro orbital   2 p accepted.
  | Species C :   atomic orbital   1 s accepted.
  | Species C :    hydro orbital   2 s accepted.
  | Species C :   atomic orbital   2 s accepted.
  | Species C :   atomic orbital   2 p accepted.
  | Species C :    hydro orbital   2 p accepted.
  | Species C :    hydro orbital   3 d accepted.
  | Species N :   atomic orbital   1 s accepted.
  | Species N :    hydro orbital   3 s accepted.
  | Species N :   atomic orbital   2 s accepted.
  | Species N :   atomic orbital   2 p accepted.
  | Species N :    hydro orbital   2 p accepted.
  | Species N :    hydro orbital   3 d accepted.
  | Species O :   atomic orbital   1 s accepted.
  | Species O :    hydro orbital   3 s accepted.
  | Species O :   atomic orbital   2 s accepted.
  | Species O :   atomic orbital   2 p accepted.
  | Species O :    hydro orbital   2 p accepted.
  | Species O :    hydro orbital   3 d accepted.
 
  Basis size parameters after reduction:
  | Total number of radial functions:       21
  | Total number of basis functions :      119
 
  Per-task memory consumption for arrays in subroutine allocate_ext:
  |           5.250512MB.
  Testing on-site integration grid accuracy.
  |  Species  Function  <phi|h_atom|phi> (log., in eV)  <phi|h_atom|phi> (rad., in eV)
           1        1                 -6.4663192853                 -6.4651273558
           1        2                 13.7111246313                 13.7170609718
           1        3                 25.2673269279                 25.2674696378
           2        4               -273.1705927641               -273.1705631568
           2        5                -10.7109323383                -10.7107120029
           2        6                 17.4381822266                 17.4352413244
           2        7                 -5.2255326521                 -5.2270484734
           2        8                  8.6835629259                  8.6603288385
           2        9                 27.4952418996                 27.4953360207
           3       10               -384.4424306495               -384.4423701208
           3       11                 12.5842251816                 12.5842222903
           3       12                -15.7264628251                -15.7264433455
           3       13                 -7.0696854293                 -7.0701769954
           3       14                  8.8090390882                  8.7901077751
           3       15                 35.9586762123                 35.9588528632
           4       16               -514.2458688638               -514.2457643834
           4       17                 15.1795651126                 15.1795290741
           4       18                -21.5359799773                -21.5360846186
           4       19                 -9.0283069236                 -9.0284644067
           4       20                  8.3027758564                  8.2834874195
           4       21                 45.8339351984                 45.8338762259

  Preparing densities etc. for the partition functions (integrals / Hartree potential).

  Preparations completed.
  max(cpu_time)          :      0.148 s.
  Wall clock time (cpu1) :      0.148 s.
------------------------------------------------------------

------------------------------------------------------------
          Begin self-consistency loop: Initialization.

          Date     :  20200710, Time     :  144636.216
------------------------------------------------------------

  Initializing index lists of integration centers etc. from given atomic structure:
  | Number of centers in hartree potential         :        13
  | Number of centers in hartree multipole         :        13
  | Number of centers in electron density summation:        13
  | Number of centers in basis integrals           :        13
  | Number of centers in integrals                 :        13
  | Number of centers in hamiltonian               :        13
  Partitioning the integration grid into batches with parallel hashing+maxmin method.
  | Number of batches:      960
  | Maximal batch size:     138
  | Minimal batch size:      66
  | Average batch size:      72.548
  | Standard deviation of batch sizes:      16.947

  Integration load balanced across     1 MPI tasks.
  Work distribution over tasks is as follows:
  Task     0 has      69646 integration points.
  Initializing partition tables, free-atom densities, potentials, etc. across the integration grid (initialize_grid_storage).
  | initialize_grid_storage: Actual outermost partition radius vs. multipole_radius_free
  | (-- VB: in principle, multipole_radius_free should be larger, hence this output)
  | Species        1: Confinement radius =              4.999999999999999 AA, multipole_radius_free =              5.054417573612229 AA.
  | Species        1: outer_partition_radius set to              5.054417573612229 AA .
  | Species        2: Confinement radius =              4.999999999999999 AA, multipole_radius_free =              5.019602836301480 AA.
  | Species        2: outer_partition_radius set to              5.019602836301480 AA .
  | Species        3: Confinement radius =              4.999999999999999 AA, multipole_radius_free =              5.043624274424571 AA.
  | Species        3: outer_partition_radius set to              5.043624274424571 AA .
  | Species        4: Confinement radius =              4.999999999999999 AA, multipole_radius_free =              5.048384829883283 AA.
  | Species        4: outer_partition_radius set to              5.048384829883283 AA .
  | Original list of interatomic distances with          13 x         13 entries is created.
  | Net number of integration points:    69646
  | of which are non-zero points    :    59412
  Renormalizing the initial density to the exact electron count on the 3D integration grid.
  | Initial density: Formal number of electrons (from input files) :      48.0000000000
  | Integrated number of electrons on 3D grid     :      47.9999298352
  | Charge integration error                      :      -0.0000701648
  | Normalization factor for density and gradient :       1.0000014618
  Obtaining max. number of non-zero basis functions in each batch (get_n_compute_maxes).
  | Maximal number of non-zero basis functions:      119 in task     0
  Selecting the method for density update.
  Loop over occupied states selected for charge density update.
  Allocating        0.050 MB for KS_eigenvector
  Integrating Hamiltonian matrix: batch-based integration.
  Time summed over all CPUs for integration: real work        0.495 s, elapsed        0.495 s
  Integrating overlap matrix.
  Time summed over all CPUs for integration: real work        0.212 s, elapsed        0.212 s

  Updating Kohn-Sham eigenvalues and eigenvectors using ELSI and the ELPA eigensolver.
  Overlap matrix is nonsingular
  | Lowest eigenvalue of overlap  :  0.43E-02
  | Highest eigenvalue of overlap :  0.64E+01
  Finished singularity check of overlap matrix
  | Time :     0.002 s
  Finished Cholesky decomposition
  | Time :     0.000 s
  Finished transformation to standard eigenproblem
  | Time :     0.000 s
  Starting LAPACK eigensolver
  Finished solving standard eigenproblem
  | Time :     0.002 s
  Finished back-transformation of eigenvectors
  | Time :     0.000 s

  Obtaining occupation numbers and chemical potential using ELSI.
  | Chemical potential (Fermi level):    -9.19031787eV
  Writing Kohn-Sham eigenvalues.

  State    Occupation    Eigenvalue [Ha]    Eigenvalue [eV]
      1       2.00000         -19.007500         -517.22040
      2       2.00000         -18.977118         -516.39366
      3       2.00000         -14.247638         -387.69795
      4       2.00000         -10.166855         -276.65419
      5       2.00000         -10.142017         -275.97833
      6       2.00000         -10.131893         -275.70283
      7       2.00000          -1.181388          -32.14719
      8       2.00000          -1.101411          -29.97092
      9       2.00000          -0.994221          -27.05412
     10       2.00000          -0.859036          -23.37556
     11       2.00000          -0.756384          -20.58225
     12       2.00000          -0.680266          -18.51097
     13       2.00000          -0.640401          -17.42620
     14       2.00000          -0.606557          -16.50524
     15       2.00000          -0.584318          -15.90009
     16       2.00000          -0.557115          -15.15987
     17       2.00000          -0.551198          -14.99887
     18       2.00000          -0.533335          -14.51278
     19       2.00000          -0.524294          -14.26677
     20       2.00000          -0.490372          -13.34369
     21       2.00000          -0.473782          -12.89228
     22       2.00000          -0.428193          -11.65173
     23       2.00000          -0.418610          -11.39096
     24       2.00000          -0.387421          -10.54225
     25       0.00000          -0.148235           -4.03369
     26       0.00000          -0.065425           -1.78030
     27       0.00000          -0.029107           -0.79205
     28       0.00000          -0.010781           -0.29335
     29       0.00000           0.005375            0.14627
     30       0.00000           0.013231            0.36003
     31       0.00000           0.018743            0.51002
     32       0.00000           0.035432            0.96416
     33       0.00000           0.040155            1.09267
     34       0.00000           0.068172            1.85506
     35       0.00000           0.085347            2.32241
     36       0.00000           0.132662            3.60992
     37       0.00000           0.173435            4.71941
     38       0.00000           0.197239            5.36715
     39       0.00000           0.204446            5.56327
     40       0.00000           0.224742            6.11553
     41       0.00000           0.238740            6.49644
     42       0.00000           0.266329            7.24719
     43       0.00000           0.287230            7.81592
     44       0.00000           0.310118            8.43873
     45       0.00000           0.336094            9.14558
     46       0.00000           0.356088            9.68964
     47       0.00000           0.366379            9.96968
     48       0.00000           0.384003           10.44924
     49       0.00000           0.415234           11.29908
     50       0.00000           0.497851           13.54720
     51       0.00000           0.533308           14.51206
     52       0.00000           0.559846           15.23417
     53       0.00000           0.580447           15.79477

  Highest occupied state (VBM) at    -10.54224850 eV
  | Occupation number:      2.00000000

  Lowest unoccupied state (CBM) at    -4.03368834 eV
  | Occupation number:      0.00000000

  Overall HOMO-LUMO gap:      6.50856016 eV.
  Calculating total energy contributions from superposition of free atom densities.

  Total energy components:
  | Sum of eigenvalues            :        -188.88264231 Ha       -5139.75820525 eV
  | XC energy correction          :         -41.80264302 Ha       -1137.50779225 eV
  | XC potential correction       :          53.73928796 Ha        1462.32042733 eV
  | Free-atom electrostatic energy:        -146.82524800 Ha       -3995.31827773 eV
  | Hartree energy correction     :           0.00000000 Ha           0.00000000 eV
  | vdW energy correction         :           0.00000000 Ha           0.00000000 eV
  | Entropy correction            :           0.00000000 Ha           0.00000000 eV
  | ---------------------------
  | Total energy                  :        -323.77124537 Ha       -8810.26384791 eV
  | Total energy, T -> 0          :        -323.77124537 Ha       -8810.26384791 eV  <-- do not rely on this value for anything but (periodic) metals
  | Electronic free energy        :        -323.77124537 Ha       -8810.26384791 eV

  Derived energy quantities:
  | Kinetic energy                :         320.51413322 Ha        8721.63331660 eV
  | Electrostatic energy          :        -602.48273557 Ha      -16394.38937226 eV
  | Energy correction for multipole
  | error in Hartree potential    :           0.00000000 Ha           0.00000000 eV
  | Sum of eigenvalues per atom                           :        -395.36601579 eV
  | Total energy (T->0) per atom                          :        -677.71260369 eV  <-- do not rely on this value for anything but (periodic) metals
  | Electronic free energy per atom                       :        -677.71260369 eV
  Initialize hartree_potential_storage
  Max. number of atoms included in rho_multipole:           13

  End scf initialization - timings             :  max(cpu_time)    wall_clock(cpu1)
  | Time for scf. initialization               :        1.153 s           1.156 s
  | Boundary condition initialization          :        0.000 s           0.000 s
  | Integration                                :        0.708 s           0.708 s
  | Solution of K.-S. eqns.                    :        0.004 s           0.004 s
  | Grid partitioning                          :        0.112 s           0.112 s
  | Preloading free-atom quantities on grid    :        0.002 s           0.002 s
  | Free-atom superposition energy             :        0.085 s           0.086 s
  | Total energy evaluation                    :        0.000 s           0.000 s

  Partial memory accounting:
  | Current value for overall tracked memory usage on task 0  :           0.165 MB
  | Peak value for overall tracked memory usage on task 0     :           0.676 MB after allocating wave
  | Largest tracked array allocation on task 0 so far         :           0.131 MB  when allocating H_times_psi
  Note:  These values currently only include a subset of arrays which are explicitly tracked.
  The "true" memory usage will be greater.
------------------------------------------------------------

------------------------------------------------------------
          Begin self-consistency iteration #    1

  Date     :  20200710, Time     :  144637.372
------------------------------------------------------------
  Evaluating new KS density.
  Integration grid: deviation in total charge (<rho> - N_e) =  -4.973799E-14
  Pulay mixing of updated and previous charge densities.

  Evaluating partitioned Hartree potential by multipole expansion.
  | Analytical far-field extrapolation by fixed multipoles:
  | Hartree multipole sum: apparent total charge =  -0.175262E-03
  Summing up the Hartree potential.
  Time summed over all CPUs for potential: real work        0.283 s, elapsed        0.283 s
  | RMS charge density error from multipole expansion :   0.589197E-02

  Integrating Hamiltonian matrix: batch-based integration.
  Time summed over all CPUs for integration: real work        0.494 s, elapsed        0.494 s

  Updating Kohn-Sham eigenvalues and eigenvectors using ELSI and the ELPA eigensolver.
  Finished Cholesky decomposition
  | Time :     0.000 s
  Finished transformation to standard eigenproblem
  | Time :     0.000 s
  Starting LAPACK eigensolver
  Finished solving standard eigenproblem
  | Time :     0.001 s
  Finished back-transformation of eigenvectors
  | Time :     0.000 s

  Obtaining occupation numbers and chemical potential using ELSI.
  | Chemical potential (Fermi level):    -8.14485335eV
  Writing Kohn-Sham eigenvalues.

  State    Occupation    Eigenvalue [Ha]    Eigenvalue [eV]
      1       2.00000         -18.901420         -514.33382
      2       2.00000         -18.827278         -512.31629
      3       2.00000         -14.114164         -384.06595
      4       2.00000         -10.110205         -275.11268
      5       2.00000         -10.069192         -273.99666
      6       2.00000         -10.035272         -273.07365
      7       2.00000          -1.127859          -30.69062
      8       2.00000          -1.032230          -28.08841
      9       2.00000          -0.933814          -25.41038
     10       2.00000          -0.797911          -21.71226
     11       2.00000          -0.705964          -19.21027
     12       2.00000          -0.631079          -17.17252
     13       2.00000          -0.593145          -16.14029
     14       2.00000          -0.549531          -14.95349
     15       2.00000          -0.525671          -14.30423
     16       2.00000          -0.500504          -13.61942
     17       2.00000          -0.486595          -13.24093
     18       2.00000          -0.477379          -12.99015
     19       2.00000          -0.464762          -12.64681
     20       2.00000          -0.435276          -11.84447
     21       2.00000          -0.420762          -11.44952
     22       2.00000          -0.360870           -9.81977
     23       2.00000          -0.349489           -9.51008
     24       2.00000          -0.316001           -8.59882
     25       0.00000          -0.107371           -2.92171
     26       0.00000          -0.043065           -1.17186
     27       0.00000           0.011316            0.30793
     28       0.00000           0.013312            0.36223
     29       0.00000           0.038003            1.03411
     30       0.00000           0.044931            1.22262
     31       0.00000           0.051630            1.40493
     32       0.00000           0.065926            1.79393
     33       0.00000           0.076473            2.08095
     34       0.00000           0.104388            2.84053
     35       0.00000           0.125413            3.41267
     36       0.00000           0.163391            4.44610
     37       0.00000           0.202052            5.49810
     38       0.00000           0.226195            6.15507
     39       0.00000           0.233505            6.35399
     40       0.00000           0.256921            6.99117
     41       0.00000           0.270621            7.36398
     42       0.00000           0.298309            8.11739
     43       0.00000           0.319875            8.70425
     44       0.00000           0.349083            9.49902
     45       0.00000           0.374796           10.19871
     46       0.00000           0.395057           10.75006
     47       0.00000           0.402111           10.94201
     48       0.00000           0.424597           11.55387
     49       0.00000           0.453657           12.34462
     50       0.00000           0.531406           14.46028
     51       0.00000           0.565339           15.38365
     52       0.00000           0.590813           16.07685
     53       0.00000           0.615540           16.74969

  Highest occupied state (VBM) at     -8.59882355 eV
  | Occupation number:      2.00000000

  Lowest unoccupied state (CBM) at    -2.92171128 eV
  | Occupation number:      0.00000000

  Overall HOMO-LUMO gap:      5.67711227 eV.

  Total energy components:
  | Sum of eigenvalues            :        -185.53274838 Ha       -5048.60295341 eV
  | XC energy correction          :         -42.12724554 Ha       -1146.34067629 eV
  | XC potential correction       :          54.16141828 Ha        1473.80717782 eV
  | Free-atom electrostatic energy:        -146.82524800 Ha       -3995.31827773 eV
  | Hartree energy correction     :          -3.27206004 Ha         -89.03728389 eV
  | vdW energy correction         :           0.00000000 Ha           0.00000000 eV
  | Entropy correction            :           0.00000000 Ha           0.00000000 eV
  | ---------------------------
  | Total energy                  :        -323.59588368 Ha       -8805.49201350 eV
  | Total energy, T -> 0          :        -323.59588368 Ha       -8805.49201350 eV  <-- do not rely on this value for anything but (periodic) metals
  | Electronic free energy        :        -323.59588368 Ha       -8805.49201350 eV

  Derived energy quantities:
  | Kinetic energy                :         322.28159825 Ha        8769.72848725 eV
  | Electrostatic energy          :        -603.75023639 Ha      -16428.87982447 eV
  | Energy correction for multipole
  | error in Hartree potential    :           0.01156646 Ha           0.31473943 eV
  | Sum of eigenvalues per atom                           :        -388.35407334 eV
  | Total energy (T->0) per atom                          :        -677.34553950 eV  <-- do not rely on this value for anything but (periodic) metals
  | Electronic free energy per atom                       :        -677.34553950 eV

  Self-consistency convergence accuracy:
  | Change of charge density      :  0.5755E+00
  | Change of sum of eigenvalues  :  0.9116E+02 eV
  | Change of total energy        :  0.4772E+01 eV

  End self-consistency iteration #     1       :  max(cpu_time)    wall_clock(cpu1)
  | Time for this iteration                    :        1.190 s           1.194 s
  | Charge density update                      :        0.395 s           0.398 s
  | Density mixing                             :        0.005 s           0.006 s
  | Hartree multipole update                   :        0.009 s           0.009 s
  | Hartree multipole summation                :        0.284 s           0.284 s
  | Integration                                :        0.494 s           0.494 s
  | Solution of K.-S. eqns.                    :        0.002 s           0.002 s
  | Total energy evaluation                    :        0.000 s           0.000 s

  Partial memory accounting:
  | Current value for overall tracked memory usage on task 0  :           0.165 MB
  | Peak value for overall tracked memory usage on task 0     :           0.691 MB after allocating gradient_basis_wave
  | Largest tracked array allocation on task 0 so far         :           0.394 MB  when allocating gradient_basis_wave
  Note:  These values currently only include a subset of arrays which are explicitly tracked.
  The "true" memory usage will be greater.
------------------------------------------------------------

------------------------------------------------------------
          Begin self-consistency iteration #    2

  Date     :  20200710, Time     :  144638.568
------------------------------------------------------------
  Evaluating new KS density.
  Integration grid: deviation in total charge (<rho> - N_e) =   1.421085E-14
  Pulay mixing of updated and previous charge densities.

  Evaluating partitioned Hartree potential by multipole expansion.
  | Analytical far-field extrapolation by fixed multipoles:
  | Hartree multipole sum: apparent total charge =  -0.310729E-03
  Summing up the Hartree potential.
  Time summed over all CPUs for potential: real work        0.283 s, elapsed        0.283 s
  | RMS charge density error from multipole expansion :   0.140804E-01

  Integrating Hamiltonian matrix: batch-based integration.
  Time summed over all CPUs for integration: real work        0.494 s, elapsed        0.494 s

  Updating Kohn-Sham eigenvalues and eigenvectors using ELSI and the ELPA eigensolver.
  Finished Cholesky decomposition
  | Time :     0.000 s
  Finished transformation to standard eigenproblem
  | Time :     0.000 s
  Starting LAPACK eigensolver
  Finished solving standard eigenproblem
  | Time :     0.001 s
  Finished back-transformation of eigenvectors
  | Time :     0.000 s

  Obtaining occupation numbers and chemical potential using ELSI.
  | Chemical potential (Fermi level):    -2.85569975eV
  Highest occupied state (VBM) at     -6.64468199 eV
  | Occupation number:      2.00000000

  Lowest unoccupied state (CBM) at    -1.52603902 eV
  | Occupation number:      0.00000000

  Overall HOMO-LUMO gap:      5.11864297 eV.

  Checking to see if s.c.f. parameters should be adjusted.

  Total energy components:
  | Sum of eigenvalues            :        -181.96791528 Ha       -4951.59890944 eV
  | XC energy correction          :         -42.48544219 Ha       -1156.08770320 eV
  | XC potential correction       :          54.62568075 Ha        1486.44040249 eV
  | Free-atom electrostatic energy:        -146.82524800 Ha       -3995.31827773 eV
  | Hartree energy correction     :          -6.86616333 Ha        -186.83781049 eV
  | vdW energy correction         :           0.00000000 Ha           0.00000000 eV
  | Entropy correction            :           0.00000000 Ha           0.00000000 eV
  | ---------------------------
  | Total energy                  :        -323.51908806 Ha       -8803.40229838 eV
  | Total energy, T -> 0          :        -323.51908806 Ha       -8803.40229838 eV  <-- do not rely on this value for anything but (periodic) metals
  | Electronic free energy        :        -323.51908806 Ha       -8803.40229838 eV

  Derived energy quantities:
  | Kinetic energy                :         323.60208973 Ha        8805.66088877 eV
  | Electrostatic energy          :        -604.63573560 Ha      -16452.97548395 eV
  | Energy correction for multipole
  | error in Hartree potential    :           0.02545918 Ha           0.69277964 eV
  | Sum of eigenvalues per atom                           :        -380.89222380 eV
  | Total energy (T->0) per atom                          :        -677.18479218 eV  <-- do not rely on this value for anything but (periodic) metals
  | Electronic free energy per atom                       :        -677.18479218 eV

  Self-consistency convergence accuracy:
  | Change of charge density      :  0.3593E+00
  | Change of sum of eigenvalues  :  0.9700E+02 eV
  | Change of total energy        :  0.2090E+01 eV

  End self-consistency iteration #     2       :  max(cpu_time)    wall_clock(cpu1)
  | Time for this iteration                    :        1.183 s           1.189 s
  | Charge density update                      :        0.388 s           0.393 s
  | Density mixing                             :        0.007 s           0.006 s
  | Hartree multipole update                   :        0.009 s           0.009 s
  | Hartree multipole summation                :        0.283 s           0.284 s
  | Integration                                :        0.494 s           0.494 s
  | Solution of K.-S. eqns.                    :        0.002 s           0.002 s
  | Total energy evaluation                    :        0.000 s           0.001 s

  Partial memory accounting:
  | Current value for overall tracked memory usage on task 0  :           0.166 MB
  | Peak value for overall tracked memory usage on task 0     :           0.691 MB after allocating gradient_basis_wave
  | Largest tracked array allocation on task 0 so far         :           0.394 MB  when allocating gradient_basis_wave
  Note:  These values currently only include a subset of arrays which are explicitly tracked.
  The "true" memory usage will be greater.
------------------------------------------------------------

------------------------------------------------------------
          Begin self-consistency iteration #    3

  Date     :  20200710, Time     :  144639.759
------------------------------------------------------------
  Evaluating new KS density.
  Integration grid: deviation in total charge (<rho> - N_e) =  -2.842171E-14
  Pulay mixing of updated and previous charge densities.

  Evaluating partitioned Hartree potential by multipole expansion.
  | Analytical far-field extrapolation by fixed multipoles:
  | Hartree multipole sum: apparent total charge =  -0.408620E-03
  Summing up the Hartree potential.
  Time summed over all CPUs for potential: real work        0.283 s, elapsed        0.283 s
  | RMS charge density error from multipole expansion :   0.223127E-01

  Integrating Hamiltonian matrix: batch-based integration.
  Time summed over all CPUs for integration: real work        0.495 s, elapsed        0.495 s

  Updating Kohn-Sham eigenvalues and eigenvectors using ELSI and the ELPA eigensolver.
  Finished Cholesky decomposition
  | Time :     0.000 s
  Finished transformation to standard eigenproblem
  | Time :     0.000 s
  Starting LAPACK eigensolver
  Finished solving standard eigenproblem
  | Time :     0.002 s
  Finished back-transformation of eigenvectors
  | Time :     0.000 s

  Obtaining occupation numbers and chemical potential using ELSI.
  | Chemical potential (Fermi level):    -2.30343980eV
  Highest occupied state (VBM) at     -6.00098484 eV
  | Occupation number:      2.00000000

  Lowest unoccupied state (CBM) at    -0.79169879 eV
  | Occupation number:      0.00000000

  Overall HOMO-LUMO gap:      5.20928605 eV.

  Total energy components:
  | Sum of eigenvalues            :        -180.62336164 Ha       -4915.01174326 eV
  | XC energy correction          :         -42.63864029 Ha       -1160.25643555 eV
  | XC potential correction       :          54.82102958 Ha        1491.75611470 eV
  | Free-atom electrostatic energy:        -146.82524800 Ha       -3995.31827773 eV
  | Hartree energy correction     :          -8.24071368 Ha        -224.24122846 eV
  | vdW energy correction         :           0.00000000 Ha           0.00000000 eV
  | Entropy correction            :           0.00000000 Ha           0.00000000 eV
  | ---------------------------
  | Total energy                  :        -323.50693403 Ha       -8803.07157031 eV
  | Total energy, T -> 0          :        -323.50693403 Ha       -8803.07157031 eV  <-- do not rely on this value for anything but (periodic) metals
  | Electronic free energy        :        -323.50693403 Ha       -8803.07157031 eV

  Derived energy quantities:
  | Kinetic energy                :         323.20076783 Ha        8794.74036406 eV
  | Electrostatic energy          :        -604.06906157 Ha      -16437.55549882 eV
  | Energy correction for multipole
  | error in Hartree potential    :           0.03582982 Ha           0.97497892 eV
  | Sum of eigenvalues per atom                           :        -378.07782640 eV
  | Total energy (T->0) per atom                          :        -677.15935156 eV  <-- do not rely on this value for anything but (periodic) metals
  | Electronic free energy per atom                       :        -677.15935156 eV

  Self-consistency convergence accuracy:
  | Change of charge density      :  0.1997E+00
  | Change of sum of eigenvalues  :  0.3659E+02 eV
  | Change of total energy        :  0.3307E+00 eV

  End self-consistency iteration #     3       :  max(cpu_time)    wall_clock(cpu1)
  | Time for this iteration                    :        1.183 s           1.185 s
  | Charge density update                      :        0.387 s           0.388 s
  | Density mixing                             :        0.008 s           0.008 s
  | Hartree multipole update                   :        0.009 s           0.009 s
  | Hartree multipole summation                :        0.283 s           0.283 s
  | Integration                                :        0.495 s           0.495 s
  | Solution of K.-S. eqns.                    :        0.002 s           0.002 s
  | Total energy evaluation                    :        0.000 s           0.000 s

  Partial memory accounting:
  | Current value for overall tracked memory usage on task 0  :           0.166 MB
  | Peak value for overall tracked memory usage on task 0     :           0.692 MB after allocating gradient_basis_wave
  | Largest tracked array allocation on task 0 so far         :           0.394 MB  when allocating gradient_basis_wave
  Note:  These values currently only include a subset of arrays which are explicitly tracked.
  The "true" memory usage will be greater.
------------------------------------------------------------

------------------------------------------------------------
          Begin self-consistency iteration #    4

  Date     :  20200710, Time     :  144640.945
------------------------------------------------------------
  Evaluating new KS density.
  Integration grid: deviation in total charge (<rho> - N_e) =  -1.421085E-14
  Pulay mixing of updated and previous charge densities.

  Evaluating partitioned Hartree potential by multipole expansion.
  | Analytical far-field extrapolation by fixed multipoles:
  | Hartree multipole sum: apparent total charge =  -0.440633E-03
  Summing up the Hartree potential.
  Time summed over all CPUs for potential: real work        0.289 s, elapsed        0.289 s
  | RMS charge density error from multipole expansion :   0.258232E-01

  Integrating Hamiltonian matrix: batch-based integration.
  Time summed over all CPUs for integration: real work        0.495 s, elapsed        0.495 s

  Updating Kohn-Sham eigenvalues and eigenvectors using ELSI and the ELPA eigensolver.
  Finished Cholesky decomposition
  | Time :     0.000 s
  Finished transformation to standard eigenproblem
  | Time :     0.000 s
  Starting LAPACK eigensolver
  Finished solving standard eigenproblem
  | Time :     0.002 s
  Finished back-transformation of eigenvectors
  | Time :     0.000 s

  Obtaining occupation numbers and chemical potential using ELSI.
  | Chemical potential (Fermi level):    -2.20384534eV
  Highest occupied state (VBM) at     -5.71425526 eV
  | Occupation number:      2.00000000

  Lowest unoccupied state (CBM) at    -0.72266452 eV
  | Occupation number:      0.00000000

  Overall HOMO-LUMO gap:      4.99159075 eV.

  Total energy components:
  | Sum of eigenvalues            :        -180.53729889 Ha       -4912.66985680 eV
  | XC energy correction          :         -42.67236569 Ha       -1161.17415031 eV
  | XC potential correction       :          54.86319505 Ha        1492.90349549 eV
  | Free-atom electrostatic energy:        -146.82524800 Ha       -3995.31827773 eV
  | Hartree energy correction     :          -8.33425157 Ha        -226.78652397 eV
  | vdW energy correction         :           0.00000000 Ha           0.00000000 eV
  | Entropy correction            :           0.00000000 Ha           0.00000000 eV
  | ---------------------------
  | Total energy                  :        -323.50596910 Ha       -8803.04531332 eV
  | Total energy, T -> 0          :        -323.50596910 Ha       -8803.04531332 eV  <-- do not rely on this value for anything but (periodic) metals
  | Electronic free energy        :        -323.50596910 Ha       -8803.04531332 eV

  Derived energy quantities:
  | Kinetic energy                :         322.78657809 Ha        8783.46968784 eV
  | Electrostatic energy          :        -603.62018150 Ha      -16425.34085085 eV
  | Energy correction for multipole
  | error in Hartree potential    :           0.03966049 Ha           1.07921675 eV
  | Sum of eigenvalues per atom                           :        -377.89768129 eV
  | Total energy (T->0) per atom                          :        -677.15733179 eV  <-- do not rely on this value for anything but (periodic) metals
  | Electronic free energy per atom                       :        -677.15733179 eV

  Self-consistency convergence accuracy:
  | Change of charge density      :  0.6472E-01
  | Change of sum of eigenvalues  :  0.2342E+01 eV
  | Change of total energy        :  0.2626E-01 eV

  End self-consistency iteration #     4       :  max(cpu_time)    wall_clock(cpu1)
  | Time for this iteration                    :        1.187 s           1.198 s
  | Charge density update                      :        0.388 s           0.392 s
  | Density mixing                             :        0.009 s           0.009 s
  | Hartree multipole update                   :        0.009 s           0.009 s
  | Hartree multipole summation                :        0.284 s           0.290 s
  | Integration                                :        0.495 s           0.495 s
  | Solution of K.-S. eqns.                    :        0.002 s           0.002 s
  | Total energy evaluation                    :        0.000 s           0.000 s

  Partial memory accounting:
  | Current value for overall tracked memory usage on task 0  :           0.166 MB
  | Peak value for overall tracked memory usage on task 0     :           0.692 MB after allocating gradient_basis_wave
  | Largest tracked array allocation on task 0 so far         :           0.394 MB  when allocating gradient_basis_wave
  Note:  These values currently only include a subset of arrays which are explicitly tracked.
  The "true" memory usage will be greater.
------------------------------------------------------------

------------------------------------------------------------
          Begin self-consistency iteration #    5

  Date     :  20200710, Time     :  144642.144
------------------------------------------------------------
  Evaluating new KS density.
  Integration grid: deviation in total charge (<rho> - N_e) =   5.684342E-14
  Pulay mixing of updated and previous charge densities.

  Evaluating partitioned Hartree potential by multipole expansion.
  | Analytical far-field extrapolation by fixed multipoles:
  | Hartree multipole sum: apparent total charge =  -0.435999E-03
  Summing up the Hartree potential.
  Time summed over all CPUs for potential: real work        0.283 s, elapsed        0.283 s
  | RMS charge density error from multipole expansion :   0.255591E-01

  Integrating Hamiltonian matrix: batch-based integration.
  Time summed over all CPUs for integration: real work        0.496 s, elapsed        0.496 s

  Updating Kohn-Sham eigenvalues and eigenvectors using ELSI and the ELPA eigensolver.
  Finished Cholesky decomposition
  | Time :     0.000 s
  Finished transformation to standard eigenproblem
  | Time :     0.000 s
  Starting LAPACK eigensolver
  Finished solving standard eigenproblem
  | Time :     0.001 s
  Finished back-transformation of eigenvectors
  | Time :     0.000 s

  Obtaining occupation numbers and chemical potential using ELSI.
  | Chemical potential (Fermi level):    -2.24041717eV
  Highest occupied state (VBM) at     -5.83329519 eV
  | Occupation number:      2.00000000

  Lowest unoccupied state (CBM) at    -0.77870860 eV
  | Occupation number:      0.00000000

  Overall HOMO-LUMO gap:      5.05458659 eV.

  Total energy components:
  | Sum of eigenvalues            :        -180.66439200 Ha       -4916.12823621 eV
  | XC energy correction          :         -42.65547531 Ha       -1160.71453980 eV
  | XC potential correction       :          54.84131978 Ha        1492.30823912 eV
  | Free-atom electrostatic energy:        -146.82524800 Ha       -3995.31827773 eV
  | Hartree energy correction     :          -8.20187062 Ha        -223.18425519 eV
  | vdW energy correction         :           0.00000000 Ha           0.00000000 eV
  | Entropy correction            :           0.00000000 Ha           0.00000000 eV
  | ---------------------------
  | Total energy                  :        -323.50566616 Ha       -8803.03706981 eV
  | Total energy, T -> 0          :        -323.50566616 Ha       -8803.03706981 eV  <-- do not rely on this value for anything but (periodic) metals
  | Electronic free energy        :        -323.50566616 Ha       -8803.03706981 eV

  Derived energy quantities:
  | Kinetic energy                :         322.72367748 Ha        8781.75807517 eV
  | Electrostatic energy          :        -603.57386833 Ha      -16424.08060518 eV
  | Energy correction for multipole
  | error in Hartree potential    :           0.03911833 Ha           1.06446392 eV
  | Sum of eigenvalues per atom                           :        -378.16371048 eV
  | Total energy (T->0) per atom                          :        -677.15669768 eV  <-- do not rely on this value for anything but (periodic) metals
  | Electronic free energy per atom                       :        -677.15669768 eV

  Self-consistency convergence accuracy:
  | Change of charge density      :  0.2281E-01
  | Change of sum of eigenvalues  : -0.3458E+01 eV
  | Change of total energy        :  0.8244E-02 eV

  End self-consistency iteration #     5       :  max(cpu_time)    wall_clock(cpu1)
  | Time for this iteration                    :        1.188 s           1.190 s
  | Charge density update                      :        0.387 s           0.388 s
  | Density mixing                             :        0.011 s           0.011 s
  | Hartree multipole update                   :        0.009 s           0.009 s
  | Hartree multipole summation                :        0.283 s           0.283 s
  | Integration                                :        0.495 s           0.496 s
  | Solution of K.-S. eqns.                    :        0.002 s           0.003 s
  | Total energy evaluation                    :        0.000 s           0.000 s

  Partial memory accounting:
  | Current value for overall tracked memory usage on task 0  :           0.166 MB
  | Peak value for overall tracked memory usage on task 0     :           0.692 MB after allocating gradient_basis_wave
  | Largest tracked array allocation on task 0 so far         :           0.394 MB  when allocating gradient_basis_wave
  Note:  These values currently only include a subset of arrays which are explicitly tracked.
  The "true" memory usage will be greater.
------------------------------------------------------------

------------------------------------------------------------
          Begin self-consistency iteration #    6

  Date     :  20200710, Time     :  144643.335
------------------------------------------------------------
  Evaluating new KS density.
  Integration grid: deviation in total charge (<rho> - N_e) =   7.105427E-15
  Pulay mixing of updated and previous charge densities.

  Evaluating partitioned Hartree potential by multipole expansion.
  | Analytical far-field extrapolation by fixed multipoles:
  | Hartree multipole sum: apparent total charge =  -0.436998E-03
  Summing up the Hartree potential.
  Time summed over all CPUs for potential: real work        0.283 s, elapsed        0.283 s
  | RMS charge density error from multipole expansion :   0.258059E-01

  Integrating Hamiltonian matrix: batch-based integration.
  Time summed over all CPUs for integration: real work        0.494 s, elapsed        0.494 s

  Updating Kohn-Sham eigenvalues and eigenvectors using ELSI and the ELPA eigensolver.
  Finished Cholesky decomposition
  | Time :     0.000 s
  Finished transformation to standard eigenproblem
  | Time :     0.000 s
  Starting LAPACK eigensolver
  Finished solving standard eigenproblem
  | Time :     0.001 s
  Finished back-transformation of eigenvectors
  | Time :     0.000 s

  Obtaining occupation numbers and chemical potential using ELSI.
  | Chemical potential (Fermi level):    -2.24958469eV
  Highest occupied state (VBM) at     -5.87239275 eV
  | Occupation number:      2.00000000

  Lowest unoccupied state (CBM) at    -0.81857250 eV
  | Occupation number:      0.00000000

  Overall HOMO-LUMO gap:      5.05382025 eV.

  Total energy components:
  | Sum of eigenvalues            :        -180.73155153 Ha       -4917.95574006 eV
  | XC energy correction          :         -42.64644552 Ha       -1160.46882674 eV
  | XC potential correction       :          54.82960036 Ha        1491.98933727 eV
  | Free-atom electrostatic energy:        -146.82524800 Ha       -3995.31827773 eV
  | Hartree energy correction     :          -8.13193713 Ha        -221.28126788 eV
  | vdW energy correction         :           0.00000000 Ha           0.00000000 eV
  | Entropy correction            :           0.00000000 Ha           0.00000000 eV
  | ---------------------------
  | Total energy                  :        -323.50558183 Ha       -8803.03477514 eV
  | Total energy, T -> 0          :        -323.50558183 Ha       -8803.03477514 eV  <-- do not rely on this value for anything but (periodic) metals
  | Electronic free energy        :        -323.50558183 Ha       -8803.03477514 eV

  Derived energy quantities:
  | Kinetic energy                :         322.62565758 Ha        8779.09081785 eV
  | Electrostatic energy          :        -603.48479388 Ha      -16421.65676625 eV
  | Energy correction for multipole
  | error in Hartree potential    :           0.03910613 Ha           1.06413190 eV
  | Sum of eigenvalues per atom                           :        -378.30428770 eV
  | Total energy (T->0) per atom                          :        -677.15652116 eV  <-- do not rely on this value for anything but (periodic) metals
  | Electronic free energy per atom                       :        -677.15652116 eV

  Self-consistency convergence accuracy:
  | Change of charge density      :  0.1114E-01
  | Change of sum of eigenvalues  : -0.1828E+01 eV
  | Change of total energy        :  0.2295E-02 eV

  End self-consistency iteration #     6       :  max(cpu_time)    wall_clock(cpu1)
  | Time for this iteration                    :        1.189 s           1.191 s
  | Charge density update                      :        0.387 s           0.389 s
  | Density mixing                             :        0.012 s           0.012 s
  | Hartree multipole update                   :        0.009 s           0.009 s
  | Hartree multipole summation                :        0.283 s           0.284 s
  | Integration                                :        0.494 s           0.494 s
  | Solution of K.-S. eqns.                    :        0.002 s           0.003 s
  | Total energy evaluation                    :        0.000 s           0.000 s

  Partial memory accounting:
  | Current value for overall tracked memory usage on task 0  :           0.166 MB
  | Peak value for overall tracked memory usage on task 0     :           0.692 MB after allocating gradient_basis_wave
  | Largest tracked array allocation on task 0 so far         :           0.394 MB  when allocating gradient_basis_wave
  Note:  These values currently only include a subset of arrays which are explicitly tracked.
  The "true" memory usage will be greater.
------------------------------------------------------------

------------------------------------------------------------
          Begin self-consistency iteration #    7

  Date     :  20200710, Time     :  144644.526
------------------------------------------------------------
  Evaluating new KS density.
  Integration grid: deviation in total charge (<rho> - N_e) =   4.263256E-14
  Pulay mixing of updated and previous charge densities.

  Evaluating partitioned Hartree potential by multipole expansion.
  | Analytical far-field extrapolation by fixed multipoles:
  | Hartree multipole sum: apparent total charge =  -0.438609E-03
  Summing up the Hartree potential.
  Time summed over all CPUs for potential: real work        0.283 s, elapsed        0.283 s
  | RMS charge density error from multipole expansion :   0.259644E-01

  Integrating Hamiltonian matrix: batch-based integration.
  Time summed over all CPUs for integration: real work        0.495 s, elapsed        0.495 s

  Updating Kohn-Sham eigenvalues and eigenvectors using ELSI and the ELPA eigensolver.
  Finished Cholesky decomposition
  | Time :     0.000 s
  Finished transformation to standard eigenproblem
  | Time :     0.000 s
  Starting LAPACK eigensolver
  Finished solving standard eigenproblem
  | Time :     0.002 s
  Finished back-transformation of eigenvectors
  | Time :     0.000 s

[...]
  |   Hirshfeld dipole moment :      0.06450824
  |   Hirshfeld second moments:     -0.00503766      -0.02497409      -0.01594853
  |                                 -0.02497409      -0.02810055       0.00683757
  |                                 -0.01594853       0.00683757      -0.02368558
  ----------------------------------------------------------------------
  | Atom    12: O
  |   Hirshfeld charge        :     -0.15005106
  |   Free atom volume        :     23.61338643
  |   Hirshfeld volume        :     21.26824155
  |   Hirshfeld dipole vector :      0.01456584       0.03794186      -0.00932248
  |   Hirshfeld dipole moment :      0.04169721
  |   Hirshfeld second moments:      0.05779510      -0.01481280       0.02021323
  |                                 -0.01481280       0.02746159       0.00688016
  |                                  0.02021323       0.00688016       0.06376170
  ----------------------------------------------------------------------
  | Atom    13: H
  |   Hirshfeld charge        :      0.12255832
  |   Free atom volume        :      9.95071624
  |   Hirshfeld volume        :      7.21960800
  |   Hirshfeld dipole vector :     -0.05191827       0.02129995      -0.05127364
  |   Hirshfeld dipole moment :      0.07601434
  |   Hirshfeld second moments:      0.10154121      -0.01343160       0.01503398
  |                                 -0.01343160       0.07198491       0.02926427
  |                                  0.01503398       0.02926427       0.06921415
  ----------------------------------------------------------------------


  Total energy components:
  | Sum of eigenvalues            :        -180.71873040 Ha       -4917.60685938 eV
  | XC energy correction          :         -42.64490793 Ha       -1160.42698653 eV
  | XC potential correction       :          54.82768211 Ha        1491.93713902 eV
  | Free-atom electrostatic energy:        -146.82524800 Ha       -3995.31827773 eV
  | Hartree energy correction     :          -8.14435868 Ha        -221.61927542 eV
  | vdW energy correction         :          -0.00350003 Ha          -0.09524068 eV
  | Entropy correction            :           0.00000000 Ha           0.00000000 eV
  | ---------------------------
  | Total energy                  :        -323.50906293 Ha       -8803.12950073 eV
  | Total energy, T -> 0          :        -323.50906293 Ha       -8803.12950073 eV  <-- do not rely on this value for anything but (periodic) metals
  | Electronic free energy        :        -323.50906293 Ha       -8803.12950073 eV

  Derived energy quantities:
  | Kinetic energy                :         322.58960570 Ha        8778.10979631 eV
  | Electrostatic energy          :        -603.45026067 Ha      -16420.71706983 eV
  | Energy correction for multipole
  | error in Hartree potential    :           0.03917153 Ha           1.06591144 eV
  | Sum of eigenvalues per atom                           :        -378.27745072 eV
  | Total energy (T->0) per atom                          :        -677.16380775 eV  <-- do not rely on this value for anything but (periodic) metals
  | Electronic free energy per atom                       :        -677.16380775 eV

  atomic forces [eV/Ang]:
  -----------------------
  atom #    1
   Hellmann-Feynman              :  0.450481E+00  0.442037E+00  0.171979E+01
   Ionic forces                  :  0.000000E+00  0.000000E+00  0.000000E+00
   Multipole                     : -0.557685E-01  0.411087E+00 -0.281006E+00
   Pulay + GGA                   : -0.739149E+00 -0.459179E-01 -0.158744E+01
   Van der Waals                 :  0.217152E-02  0.690485E-03 -0.114058E-02
   ----------------------------------------------------------------
   Total forces(   1)            : -0.342265E+00  0.807897E+00 -0.149796E+00
  atom #    2
   Hellmann-Feynman              :  0.195936E+00 -0.505104E-01 -0.154789E+00
   Ionic forces                  :  0.000000E+00  0.000000E+00  0.000000E+00
   Multipole                     :  0.193383E+00  0.337789E-01  0.131579E-01
   Pulay + GGA                   : -0.143889E+00 -0.581285E-02  0.603758E-01
   Van der Waals                 :  0.236923E-02 -0.516801E-02 -0.710319E-02
   ----------------------------------------------------------------
   Total forces(   2)            :  0.247800E+00 -0.277123E-01 -0.883581E-01
  atom #    3
   Hellmann-Feynman              : -0.172836E+01 -0.106030E+02 -0.128998E+01
   Ionic forces                  :  0.000000E+00  0.000000E+00  0.000000E+00
   Multipole                     : -0.103058E+00  0.463707E-01 -0.853666E+00
   Pulay + GGA                   :  0.187120E+01  0.988632E+01  0.285569E+01
   Van der Waals                 :  0.361081E-02 -0.525649E-02 -0.893172E-02
   ----------------------------------------------------------------
   Total forces(   3)            :  0.433946E-01 -0.675525E+00  0.703111E+00
  atom #    4
   Hellmann-Feynman              :  0.149708E-01  0.430485E+00 -0.151803E+00
   Ionic forces                  :  0.000000E+00  0.000000E+00  0.000000E+00
   Multipole                     : -0.808359E-01  0.469259E-01 -0.598699E-01
   Pulay + GGA                   :  0.177565E+00 -0.139541E+00 -0.401093E-02
   Van der Waals                 : -0.877325E-03 -0.115165E-02 -0.834916E-02
   ----------------------------------------------------------------
   Total forces(   4)            :  0.110823E+00  0.336718E+00 -0.224033E+00
  atom #    5
   Hellmann-Feynman              : -0.750927E-01  0.171478E+00 -0.266722E+00
   Ionic forces                  :  0.000000E+00  0.000000E+00  0.000000E+00
   Multipole                     :  0.245645E-01  0.310427E-01 -0.102421E+00
   Pulay + GGA                   : -0.134618E+00 -0.190613E+00  0.106126E+00
   Van der Waals                 : -0.297363E-02 -0.432644E-02  0.104449E-02
   ----------------------------------------------------------------
   Total forces(   5)            : -0.188120E+00  0.758094E-02 -0.261972E+00
  atom #    6
   Hellmann-Feynman              :  0.410257E+00 -0.609219E+00  0.407176E+00
   Ionic forces                  :  0.000000E+00  0.000000E+00  0.000000E+00
   Multipole                     : -0.102295E+00  0.608342E+00  0.229435E+00
   Pulay + GGA                   :  0.462242E-01 -0.391246E+00 -0.374622E+00
   Van der Waals                 : -0.388176E-02  0.784974E-02  0.440972E-02
   ----------------------------------------------------------------
   Total forces(   6)            :  0.350304E+00 -0.384274E+00  0.266399E+00
  atom #    7
   Hellmann-Feynman              : -0.253037E+00 -0.701083E-01 -0.513206E-01
   Ionic forces                  :  0.000000E+00  0.000000E+00  0.000000E+00
   Multipole                     : -0.120476E+00  0.502478E-01  0.316045E-01
   Pulay + GGA                   :  0.112367E+00  0.215414E-01  0.577589E-01
   Van der Waals                 : -0.183568E-02  0.219646E-02  0.684078E-02
   ----------------------------------------------------------------
   Total forces(   7)            : -0.262981E+00  0.387741E-02  0.448836E-01
  atom #    8
   Hellmann-Feynman              :  0.132443E-01  0.106857E-01  0.204980E+00
   Ionic forces                  :  0.000000E+00  0.000000E+00  0.000000E+00
   Multipole                     :  0.167247E-01  0.647210E-01  0.125600E+00
   Pulay + GGA                   : -0.519693E-01 -0.532123E-01 -0.113332E+00
   Van der Waals                 : -0.311529E-02  0.112354E-01  0.501786E-03
   ----------------------------------------------------------------
   Total forces(   8)            : -0.251156E-01  0.334297E-01  0.217750E+00
  atom #    9
   Hellmann-Feynman              :  0.108246E+00  0.641389E-01 -0.168245E+00
   Ionic forces                  :  0.000000E+00  0.000000E+00  0.000000E+00
   Multipole                     :  0.173337E-01  0.129047E+00 -0.904175E-02
   Pulay + GGA                   : -0.392965E-01 -0.735290E-01  0.575433E-01
   Van der Waals                 : -0.914345E-03  0.504858E-02  0.517537E-02
   ----------------------------------------------------------------
   Total forces(   9)            :  0.853688E-01  0.124706E+00 -0.114568E+00
  atom #   10
   Hellmann-Feynman              :  0.194134E+01  0.320542E+01  0.163398E+01
   Ionic forces                  :  0.000000E+00  0.000000E+00  0.000000E+00
   Multipole                     :  0.536315E-01 -0.104374E+00  0.243675E+00
   Pulay + GGA                   : -0.113929E+01 -0.253824E+01 -0.221393E+00
   Van der Waals                 :  0.511845E-02 -0.134076E-01 -0.302221E-03
   ----------------------------------------------------------------
   Total forces(  10)            :  0.860801E+00  0.549399E+00  0.165596E+01
  atom #   11
   Hellmann-Feynman              :  0.415786E+01 -0.230738E+01  0.142935E+02
   Ionic forces                  :  0.000000E+00  0.000000E+00  0.000000E+00
   Multipole                     :  0.658427E-01 -0.557665E+00  0.982169E+00
   Pulay + GGA                   : -0.328186E+01  0.352527E+01 -0.141492E+02
   Van der Waals                 : -0.910039E-03 -0.122657E-01  0.784630E-02
   ----------------------------------------------------------------
   Total forces(  11)            :  0.940933E+00  0.647952E+00  0.113427E+01
  atom #   12
   Hellmann-Feynman              : -0.501823E+01 -0.131281E+02  0.830487E+00
   Ionic forces                  :  0.000000E+00  0.000000E+00  0.000000E+00
   Multipole                     : -0.930686E+00 -0.151045E+01  0.540515E-01
   Pulay + GGA                   :  0.441411E+01  0.136494E+02 -0.236044E+01
   Van der Waals                 :  0.936871E-03  0.874426E-02  0.224630E-02
   ----------------------------------------------------------------
   Total forces(  12)            : -0.153387E+01 -0.980421E+00 -0.147366E+01
  atom #   13
   Hellmann-Feynman              : -0.451669E+00 -0.305833E+00 -0.192745E+01
   Ionic forces                  :  0.000000E+00  0.000000E+00  0.000000E+00
   Multipole                     : -0.115066E-01  0.926333E-01 -0.776879E-01
   Pulay + GGA                   :  0.175086E+00 -0.232803E+00  0.290348E+00
   Van der Waals                 :  0.301185E-03  0.581098E-02 -0.223787E-02
   ----------------------------------------------------------------
   Total forces(  13)            : -0.287789E+00 -0.440192E+00 -0.171703E+01

  Timings for VdW correction (Tkatchenko-Scheffler 2009 or later):
  | CPU time:        0.091 s, Wall clock time:        0.091 s.
  Removing unitary transformations (pure translations, rotations) from forces on atoms.
  Atomic forces before filtering:
  | Net force on center of mass :  -0.718805E-03  0.343479E-02 -0.704357E-02 eV/A
  | Net torque on center of mass:   0.688033E-02 -0.265169E-02  0.229659E-04 eV
  Atomic forces after filtering:
  | Net force on center of mass :   0.446015E-16 -0.892031E-16  0.000000E+00 eV/A
  | Net torque on center of mass:  -0.141613E-15  0.188817E-15 -0.141613E-14 eV

  Energy and forces in a compact form:
  | Total energy uncorrected      :         -0.880312950073067E+04 eV
  | Total energy corrected        :         -0.880312950073067E+04 eV  <-- do not rely on this value for anything but (periodic) metals
  | Electronic free energy        :         -0.880312950073067E+04 eV
  Total atomic forces (unitary forces cleaned) [eV/Ang]:
  |   1         -0.342215044780551E+00          0.807621335790773E+00         -0.149293875209695E+00
  |   2          0.247849987831478E+00         -0.279965642933403E-01         -0.879667742492258E-01
  |   3          0.433022329053715E-01         -0.676047429106887E+00          0.703661327737253E+00
  |   4          0.110729834753607E+00          0.336195450144984E+00         -0.223478945277042E+00
  |   5         -0.188267435195200E+00          0.695095949424130E-02         -0.261575137486995E+00
  |   6          0.350438118535256E+00         -0.384416852874704E+00          0.266727325891731E+00
  |   7         -0.262845620152670E+00          0.374562843544407E-02          0.453178677999446E-01
  |   8         -0.248774114941390E-01          0.334664946524278E-01          0.218039714001669E+00
  |   9          0.854584679575158E-01          0.124470776984868E+00         -0.114435448458371E+00
  |  10          0.860917127206648E+00          0.549257866743579E+00          0.165672933676153E+01
  |  11          0.941161810883138E+00          0.648010375126541E+00          0.113506179415726E+01
  |  12         -0.153383054188246E+01         -0.980676548081803E+00         -0.147266753595726E+01
  |  13         -0.287821526567996E+00         -0.440581493016124E+00         -0.171611964971080E+01

  ------------------------------------ 
  Start decomposition of the XC Energy 
  ------------------------------------ 
  X and C from original XC functional choice 
  Hartree-Fock Energy :          0.000000000 Ha              0.000000000 eV
  X Energy            :        -41.041973758 Ha          -1116.808928556 eV
  C Energy            :         -1.602934168 Ha            -43.618057970 eV
  Total XC Energy     :        -42.644907925 Ha          -1160.426986527 eV
  ------------------------------------ 
  LDA X and C from self-consistent density 
  X Energy LDA        :        -37.263991016 Ha          -1014.004787548 eV
  C Energy LDA        :         -3.139313562 Ha            -85.425068411 eV
  ------------------------------------ 
  End decomposition of the XC Energy 
  ------------------------------------ 

------------------------------------------------------------

------------------------------------------------------------------------------
  Final output of selected total energy values:

  The following output summarizes some interesting total energy values
  at the end of a run (AFTER all relaxation, molecular dynamics, etc.).

  | Total energy of the DFT / Hartree-Fock s.c.f. calculation      :          -8803.129500731 eV
  | Final zero-broadening corrected energy (caution - metals only) :          -8803.129500731 eV
  | For reference only, the value of 1 Hartree used in FHI-aims is :             27.211384500 eV

  Before relying on these values, please be sure to understand exactly which
  total energy value is referred to by a given number. Different objects may
  all carry the same name 'total energy'. Definitions:

  Total energy of the DFT / Hartree-Fock s.c.f. calculation:
  | Note that this energy does not include ANY quantities calculated after the
  | s.c.f. cycle, in particular not ANY RPA, MP2, etc. many-body perturbation terms.

  Final zero-broadening corrected energy:
  | For metallic systems only, a broadening of the occupation numbers at the Fermi
  | level can be extrapolated back to zero broadening by an electron-gas inspired
  | formula. For all systems that are not real metals, this value can be
  | meaningless and should be avoided.

------------------------------------------------------------------------------
  Methods described in the following list of references were used in this FHI-aims run.
  If you publish the results, please make sure to cite these reference if they apply.
  FHI-aims is an academic code, and for our developers (often, Ph.D. students
  and postdocs), scientific credit in the community is essential.
  Thank you for helping us!

  For any use of FHI-aims, please cite:

    Volker Blum, Ralf Gehrke, Felix Hanke, Paula Havu, Ville Havu,
    Xinguo Ren, Karsten Reuter, and Matthias Scheffler
    'Ab initio molecular simulations with numeric atom-centered orbitals'
    Computer Physics Communications 180, 2175-2196 (2009)
    http://dx.doi.org/10.1016/j.cpc.2009.06.022


  The scalable eigensolver library ELPA was used in your run.
  ELPA is essential especially for large systems on hundreds or thousands of CPUs.
  For ELPA, please cite:

    Andreas Marek, Volker Blum, Rainer Johanni, Ville Havu, Bruno Lang,
    Thomas Auckenthaler, Alexander Heinecke, Hans-Joachim Bungartz, and Hermann Lederer,
    'The ELPA Library - Scalable Parallel Eigenvalue Solutions
    for Electronic Structure Theory and Computational Science'
    The Journal of Physics: Condensed Matter 26, 213201 (2014).
    http://dx.doi.org/10.1088/0953-8984/26/21/213201


  The ELSI infrastructure was used in your run to solve the Kohn-Sham electronic structure.
  Please check out http://elsi-interchange.org to learn more.
  If scalability is important for your project, please acknowledge ELSI by citing:

    V. W-z. Yu, F. Corsetti, A. Garcia, W. P. Huhn, M. Jacquelin, W. Jia,
    B. Lange, L. Lin, J. Lu, W. Mi, A. Seifitokaldani, A. Vazquez-Mayagoitia,
    C. Yang, H. Yang, and V. Blum
    'ELSI: A unified software interface for Kohn-Sham electronic structure solvers'
    Computer Physics Communications 222, 267-285 (2018).
    http://dx.doi.org/10.1016/j.cpc.2017.09.007


  For the real-space grid partitioning and parallelization used in this calculation, please cite:

    Ville Havu, Volker Blum, Paula Havu, and Matthias Scheffler,
    'Efficient O(N) integration for all-electron electronic structure calculation'
    'using numerically tabulated basis functions'
    Journal of Computational Physics 228, 8367-8379 (2009).
    http://dx.doi.org/10.1016/j.jcp.2009.08.008

  Of course, there are many other important community references, e.g., those cited in the
  above references. Our list is limited to references that describe implementations in the
  FHI-aims code. The reason is purely practical (length of this list) - please credit others as well.

------------------------------------------------------------
          Leaving FHI-aims.
          Date     :  20200710, Time     :  144658.849

          Computational steps:
          | Number of self-consistency cycles          :           16
          | Number of SCF (re)initializations          :            1

          Detailed time accounting                     :  max(cpu_time)    wall_clock(cpu1)
          | Total time                                 :       22.713 s          22.795 s
          | Preparation time                           :        0.148 s           0.148 s
          | Boundary condition initalization           :        0.000 s           0.000 s
          | Grid partitioning                          :        0.112 s           0.112 s
          | Preloading free-atom quantities on grid    :        0.002 s           0.002 s
          | Free-atom superposition energy             :        0.085 s           0.086 s
          | Total time for integrations                :        8.624 s           8.631 s
          | Total time for solution of K.-S. equations :        0.037 s           0.043 s
          | Total time for density & force components  :        7.172 s           7.203 s
          | Total time for mixing                      :        0.215 s           0.214 s
          | Total time for Hartree multipole update    :        0.141 s           0.144 s
          | Total time for Hartree multipole sum       :        5.776 s           5.786 s
          | Total time for total energy evaluation     :        0.003 s           0.001 s
          | Total time for vdW correction              :        0.091 s           0.091 s

          Partial memory accounting:
          | Residual value for overall tracked memory usage across tasks :           0.000 MB (should be 0.000 MB)
          | Peak values for overall tracked memory usage (after allocating hessian_basis_wave):
          |   Minimum:        1.612 MB (on task 1)
          |   Maximum:        1.612 MB (on task 1)
          |   Average:        1.612 MB
          | Largest tracked array allocation (hessian_basis_wave):
          |   Minimum:        0.788 MB (on task 1)
          |   Maximum:        0.788 MB (on task 1)
          |   Average:        0.788 MB
          Note:  These values currently only include a subset of arrays which are explicitly tracked.
          The "true" memory usage will be greater.

          Have a nice day.
------------------------------------------------------------
