  MPI-parallelism will be employed.
------------------------------------------------------------
          Invoking FHI-aims ...
          Version 171221_1
          Compiled on 2019/09/09 at 14:39:39 on host puhti-login2.bullx.

          When using FHI-aims, please cite the following reference:

          Volker Blum, Ralf Gehrke, Felix Hanke, Paula Havu,
          Ville Havu, Xinguo Ren, Karsten Reuter, and Matthias Scheffler,
          'Ab Initio Molecular Simulations with Numeric Atom-Centered Orbitals',
          Computer Physics Communications 180, 2175-2196 (2009)

          For any questions about FHI-aims, please visit the aimsclub website
          with its forums and wiki. Contributions to both the forums and the
          wiki are warmly encouraged - they are for you, and everyone is welcome there.

------------------------------------------------------------



  Date     :  20200815, Time     :  005313.347
  Time zero on CPU 1             :   0.149470000000000E-01  s.
  Internal wall clock time zero  :           366684793.347  s.

  FHI-aims created a unique identifier for this run for later identification
  aims_uuid : 3134EC8D-7D70-4AE9-AB03-7050B369FEA6

  Using        1 parallel tasks.
  Task        0 on host r18c47.bullx reporting.

  Performing system and environment tests:
  | Environment variable OMP_NUM_THREADS correctly set to 1.
  | Stacksize not measured: no C compiler
  | Checking for scalapack...
  | Testing pdtran()...
  | All pdtran() tests passed.

  Obtaining array dimensions for all initial allocations:
  
  -----------------------------------------------------------------------
  Parsing control.in (first pass over file, find array dimensions only).
  The contents of control.in will be repeated verbatim below
  unless switched off by setting 'verbatim_writeout .false.' .
  in the first line of control.in .
  -----------------------------------------------------------------------
  
  #########################################################################################
  #
  #  Volker Blum, FHI 2009 : Test run input file control.in for simple H2O
  #
  #########################################################################################
  #
  #  Physical model
  #
    xc                 pbe
    vdw_correction_hirshfeld
    spin               none
    relativistic       none
    charge             0.
  #
  #  SCF convergence
  #
    occupation_type    gaussian 0.01
    mixer              pulay
      n_max_pulay        10
      charge_mix_param   0.2
    sc_accuracy_rho    1E-5
    sc_accuracy_eev    1E-3
    sc_accuracy_etot   1E-6
    sc_accuracy_forces 1E-4
    sc_iter_limit      100
  #
  #  Relaxation
  #
  #  relax_geometry   bfgs 1.e-3
  #
  ################################################################################
  #
  #  FHI-aims code project
  #  VB, Fritz-Haber Institut, 2009
  #
  #  Suggested "light" defaults for H atom (to be pasted into control.in file)
  #  Be sure to double-check any results obtained with these settings for post-processing,
  #  e.g., with the "tight" defaults and larger basis sets.
  #
  ################################################################################
    species        H
  #     global species definitions
      nucleus             1
      mass                1.00794
  #
      l_hartree           4
  #
      cut_pot             3.5  1.5  1.0
      basis_dep_cutoff    1e-4
  #
      radial_base         24 5.0
      radial_multiplier   1
      angular_grids       specified
        division   0.2421   50
        division   0.3822  110
        division   0.4799  194
        division   0.5341  302
  #      division   0.5626  434
  #      division   0.5922  590
  #      division   0.6542  770
  #      division   0.6868 1202
  #      outer_grid  770
        outer_grid  302
  ################################################################################
  #
  #  Definition of "minimal" basis
  #
  ################################################################################
  #     valence basis states
      valence      1  s   1.
  #     ion occupancy
      ion_occ      1  s   0.5
  ################################################################################
  #
  #  Suggested additional basis functions. For production calculations,
  #  uncomment them one after another (the most important basis functions are
  #  listed first).
  #
  #  Basis constructed for dimers: 0.5 A, 0.7 A, 1.0 A, 1.5 A, 2.5 A
  #
  ################################################################################
  #  "First tier" - improvements: -1014.90 meV to -62.69 meV
       hydro 2 s 2.1
       hydro 2 p 3.5
  #  "Second tier" - improvements: -12.89 meV to -1.83 meV
  #     hydro 1 s 0.85
  #     hydro 2 p 3.7
  #     hydro 2 s 1.2
  #     hydro 3 d 7
  #  "Third tier" - improvements: -0.25 meV to -0.12 meV
  #     hydro 4 f 11.2
  #     hydro 3 p 4.8
  #     hydro 4 d 9
  #     hydro 3 s 3.2
  ################################################################################
  #
  #  FHI-aims code project
  #  VB, Fritz-Haber Institut, 2009
  #
  #  Suggested "light" defaults for C atom (to be pasted into control.in file)
  #  Be sure to double-check any results obtained with these settings for post-processing,
  #  e.g., with the "tight" defaults and larger basis sets.
  #
  ################################################################################
    species        C
  #     global species definitions
      nucleus             6
      mass                12.0107
  #
      l_hartree           4
  #
      cut_pot             3.5  1.5  1.0
      basis_dep_cutoff    1e-4
  #
      radial_base         34 5.0
      radial_multiplier   1
      angular_grids specified
        division   0.3326   50
        division   0.5710  110
        division   0.7727  194
        division   0.8772  302
  #      division   0.9334  434
  #      division   0.9625  590
  #      division   0.9924  770
  #      division   1.0230  974
  #      division   1.4589 1202
  #     outer_grid  974
       outer_grid 302
  ################################################################################
  #
  #  Definition of "minimal" basis
  #
  ################################################################################
  #     valence basis states
      valence      2  s   2.
      valence      2  p   2.
  #     ion occupancy
      ion_occ      2  s   1.
      ion_occ      2  p   1.
  ################################################################################
  #
  #  Suggested additional basis functions. For production calculations,
  #  uncomment them one after another (the most important basis functions are
  #  listed first).
  #
  #  Constructed for dimers: 1.0 A, 1.25 A, 1.5 A, 2.0 A, 3.0 A
  #
  ################################################################################
  #  "First tier" - improvements: -1214.57 meV to -155.61 meV
       hydro 2 p 1.7
       hydro 3 d 6
       hydro 2 s 4.9
  #  "Second tier" - improvements: -67.75 meV to -5.23 meV
  #     hydro 4 f 9.8
  #     hydro 3 p 5.2
  #     hydro 3 s 4.3
  #     hydro 5 g 14.4
  #     hydro 3 d 6.2
  #  "Third tier" - improvements: -2.43 meV to -0.60 meV
  #     hydro 2 p 5.6
  #     hydro 2 s 1.4
  #     hydro 3 d 4.9
  #     hydro 4 f 11.2
  #  "Fourth tier" - improvements: -0.39 meV to -0.18 meV
  #     hydro 2 p 2.1
  #     hydro 5 g 16.4
  #     hydro 4 d 13.2
  #     hydro 3 s 13.6
  #     hydro 4 f 17.6
  #  Further basis functions - improvements: -0.08 meV and below
  #     hydro 3 s 2
  #     hydro 3 p 6
  #     hydro 4 d 20
  ################################################################################
  #
  #  FHI-aims code project
  #  VB, Fritz-Haber Institut, 2009
  #
  #  Suggested "light" defaults for N atom (to be pasted into control.in file)
  #  Be sure to double-check any results obtained with these settings for post-processing,
  #  e.g., with the "tight" defaults and larger basis sets.
  #
  ################################################################################
    species        N
  #     global species definitions
      nucleus             7
      mass                14.0067
  #
      l_hartree           4
  #
      cut_pot             3.5  1.5  1.0
      basis_dep_cutoff    1e-4
  #
      radial_base         35 5.0
      radial_multiplier   1
      angular_grids       specified
        division   0.2599   50
        division   0.4601  110
        division   0.5885  194
        division   0.6503  302
  #      division   0.6939  434
  #      division   0.7396  590
  #      division   0.7632  770
  #      division   0.8122  974
  #      division   1.1604 1202
  #      outer_grid  974
        outer_grid  302
  ################################################################################
  #
  #  Definition of "minimal" basis
  #
  ################################################################################
  #     valence basis states
      valence      2  s   2.
      valence      2  p   3.
  #     ion occupancy
      ion_occ      2  s   1.
      ion_occ      2  p   2.
  ################################################################################
  #
  #  Suggested additional basis functions. For production calculations,
  #  uncomment them one after another (the most important basis functions are
  #  listed first).
  #
  #  Constructed for dimers: 1.0 A, 1.1 A, 1.5 A, 2.0 A, 3.0 A
  #
  ################################################################################
  #  "First tier" - improvements: -1193.42 meV to -220.60 meV
       hydro 2 p 1.8
       hydro 3 d 6.8
       hydro 3 s 5.8
  #  "Second tier" - improvements: -80.21 meV to -6.86 meV
  #     hydro 4 f 10.8
  #     hydro 3 p 5.8
  #     hydro 1 s 0.8
  #     hydro 5 g 16
  #     hydro 3 d 4.9
  #  "Third tier" - improvements: -4.29 meV to -0.53 meV
  #     hydro 3 s 16
  #     ionic 2 p auto
  #     hydro 3 d 6.6
  #     hydro 4 f 11.6
  #  "Fourth tier" - improvements: -0.75 meV to -0.25 meV
  #     hydro 2 p 4.5
  #     hydro 2 s 2.4
  #     hydro 5 g 14.4
  #     hydro 4 d 14.4
  #     hydro 4 f 16.8
  # Further basis functions - -0.21 meV and below
  #     hydro 3 p 14.8
  #     hydro 3 s 4.4
  #     hydro 3 d 19.6
  #     hydro 5 g 12.8
  ################################################################################
  #
  #  FHI-aims code project
  #  VB, Fritz-Haber Institut, 2009
  #
  #  Suggested "light" defaults for O atom (to be pasted into control.in file)
  #  Be sure to double-check any results obtained with these settings for post-processing,
  #  e.g., with the "tight" defaults and larger basis sets.
  #
  ################################################################################
    species        O
  #     global species definitions
      nucleus             8
      mass                15.9994
  #
      l_hartree           4
  #
      cut_pot             3.5  1.5  1.0
      basis_dep_cutoff    1e-4
  #
      radial_base         36 5.0
      radial_multiplier   1
       angular_grids specified
        division   0.2659   50
        division   0.4451  110
        division   0.6052  194
        division   0.7543  302
  #      division   0.8014  434
  #      division   0.8507  590
  #      division   0.8762  770
  #      division   0.9023  974
  #      division   1.2339 1202
  #      outer_grid 974
        outer_grid 302
  ################################################################################
  #
  #  Definition of "minimal" basis
  #
  ################################################################################
  #     valence basis states
      valence      2  s   2.
      valence      2  p   4.
  #     ion occupancy
      ion_occ      2  s   1.
      ion_occ      2  p   3.
  ################################################################################
  #
  #  Suggested additional basis functions. For production calculations,
  #  uncomment them one after another (the most important basis functions are
  #  listed first).
  #
  #  Constructed for dimers: 1.0 A, 1.208 A, 1.5 A, 2.0 A, 3.0 A
  #
  ################################################################################
  #  "First tier" - improvements: -699.05 meV to -159.38 meV
       hydro 2 p 1.8
       hydro 3 d 7.6
       hydro 3 s 6.4
  #  "Second tier" - improvements: -49.91 meV to -5.39 meV
  #     hydro 4 f 11.6
  #     hydro 3 p 6.2
  #     hydro 3 d 5.6
  #     hydro 5 g 17.6
  #     hydro 1 s 0.75
  #  "Third tier" - improvements: -2.83 meV to -0.50 meV
  #     ionic 2 p auto
  #     hydro 4 f 10.8
  #     hydro 4 d 4.7
  #     hydro 2 s 6.8
  #  "Fourth tier" - improvements: -0.40 meV to -0.12 meV
  #     hydro 3 p 5
  #     hydro 3 s 3.3
  #     hydro 5 g 15.6
  #     hydro 4 f 17.6
  #     hydro 4 d 14
  # Further basis functions - -0.08 meV and below
  #     hydro 3 s 2.1
  #     hydro 4 d 11.6
  #     hydro 3 p 16
  #     hydro 2 s 17.2
  
  -----------------------------------------------------------------------
  Completed first pass over input file control.in .
  -----------------------------------------------------------------------
  
  
  -----------------------------------------------------------------------
  Parsing geometry.in (first pass over file, find array dimensions only).
  The contents of geometry.in will be repeated verbatim below
  unless switched off by setting 'verbatim_writeout .false.' .
  in the first line of geometry.in .
  -----------------------------------------------------------------------
  
  atom  0.00000 0.00000 0.00000 C
  atom  1.09300 0.00000 0.00000 H
  atom  -0.47961 0.00000 -1.41207 N
  atom  -0.48179 0.96073 -1.75676 H
  atom  0.14939 -0.57287 -1.97091 H
  atom  -0.49584 1.26211 0.72868 C
  atom  -1.58789 1.28919 0.74431 H
  atom  -0.13407 1.27425 1.75947 H
  atom  -0.13407 2.16087 0.22380 H
  atom  -0.39425 -1.28861 0.74398 C
  atom  -0.10189 -1.56493 1.88303 O
  atom  -1.10210 -2.13717 0.06896 O
  atom  -1.24623 -1.59946 -0.72795 H
  
  -----------------------------------------------------------------------
  Completed first pass over input file geometry.in .
  -----------------------------------------------------------------------
  

  Basic array size parameters:
  | Number of species                 :        4
  | Number of atoms                   :       13
  | Max. basis fn. angular momentum   :        2
  | Max. atomic/ionic basis occupied n:        2
  | Max. number of basis fn. types    :        2
  | Max. radial fns per species/type  :        3
  | Max. logarithmic grid size        :     1301
  | Max. radial integration grid size :       36
  | Max. angular integration grid size:      302
  | Max. angular grid division number :        8
  | Radial grid for Hartree potential :     1301
  | Number of spin channels           :        1

------------------------------------------------------------
          Reading file control.in.
------------------------------------------------------------
  XC: Using PBE gradient-corrected functionals.
  Spin treatment: No spin polarisation.
  Non-relativistic treatment of kinetic energy.
  Charge =   0.000000E+00: Neutral system requested explicitly.
  Occupation type: Gaussian broadening, width =   0.100000E-01 eV.
  Using pulay charge density mixing.
  Pulay mixing - number of memorized iterations:   10
  Charge density mixing - mixing parameter:     0.2000
  Convergence accuracy of self-consistent charge density:  0.1000E-04
  Convergence accuracy of sum of eigenvalues:  0.1000E-02
  Convergence accuracy of total energy:  0.1000E-05
  Convergence accuracy of forces:  0.1000E-03
  Maximum number of s.-c. iterations  :   100
 
  Reading configuration options for species H                   .
  | Found nuclear charge :   1.0000
  | Found atomic mass :    1.00794000000000      amu
  | Found l_max for Hartree potential  :   4
  | Found cutoff potl. onset [A], width [A], scale factor :    3.50000    1.50000    1.00000
  | Threshold for basis-dependent cutoff potential is   0.100000E-03
  | Found data for basic radial integration grid :    24 points, outermost radius =    5.000 A
  | Found multiplier for basic radial grid :   1
  | Found angular grid specification: user-specified.
  | Specified grid contains     5 separate shells.
  | Check grid settings after all constraints further below.
  | Found free-atom valence shell :  1 s   1.000
  | No ionic wave fns used. Skipping ion_occ.
  | Found hydrogenic basis function :  2 s   2.100
  | Found hydrogenic basis function :  2 p   3.500
  Species H                   : Missing cutoff potential type.
  Defaulting to exp(1/x)/(1-x)^2 type cutoff potential.
  Species H : No 'logarithmic' tag. Using default grid for free atom:
  | Default logarithmic grid data [bohr] : 0.1000E-03 0.1000E+03 0.1012E+01
  Species H : On-site basis accuracy parameter (for Gram-Schmidt orthonormalisation) not specified.
  Using default value basis_acc =  0.1000000E-03.
  Species H                   : Using default innermost maximum threshold i_radial=  2 for radial functions.
  Species H                   : Default cutoff onset for free atom density etc. : 0.35000000E+01 AA.
  Species H                   : Basic radial grid will be enhanced according to radial_multiplier =   1, to contain    24 grid points.
 
  Reading configuration options for species C                   .
  | Found nuclear charge :   6.0000
  | Found atomic mass :    12.0107000000000      amu
  | Found l_max for Hartree potential  :   4
  | Found cutoff potl. onset [A], width [A], scale factor :    3.50000    1.50000    1.00000
  | Threshold for basis-dependent cutoff potential is   0.100000E-03
  | Found data for basic radial integration grid :    34 points, outermost radius =    5.000 A
  | Found multiplier for basic radial grid :   1
  | Found angular grid specification: user-specified.
  | Specified grid contains     5 separate shells.
  | Check grid settings after all constraints further below.
  | Found free-atom valence shell :  2 s   2.000
  | Found free-atom valence shell :  2 p   2.000
  | No ionic wave fns used. Skipping ion_occ.
  | No ionic wave fns used. Skipping ion_occ.
  | Found hydrogenic basis function :  2 p   1.700
  | Found hydrogenic basis function :  3 d   6.000
  | Found hydrogenic basis function :  2 s   4.900
  Species C                   : Missing cutoff potential type.
  Defaulting to exp(1/x)/(1-x)^2 type cutoff potential.
  Species C : No 'logarithmic' tag. Using default grid for free atom:
  | Default logarithmic grid data [bohr] : 0.1000E-03 0.1000E+03 0.1012E+01
  Species C : On-site basis accuracy parameter (for Gram-Schmidt orthonormalisation) not specified.
  Using default value basis_acc =  0.1000000E-03.
  Species C                   : Using default innermost maximum threshold i_radial=  2 for radial functions.
  Species C                   : Default cutoff onset for free atom density etc. : 0.35000000E+01 AA.
  Species C                   : Basic radial grid will be enhanced according to radial_multiplier =   1, to contain    34 grid points.
 
  Reading configuration options for species N                   .
  | Found nuclear charge :   7.0000
  | Found atomic mass :    14.0067000000000      amu
  | Found l_max for Hartree potential  :   4
  | Found cutoff potl. onset [A], width [A], scale factor :    3.50000    1.50000    1.00000
  | Threshold for basis-dependent cutoff potential is   0.100000E-03
  | Found data for basic radial integration grid :    35 points, outermost radius =    5.000 A
  | Found multiplier for basic radial grid :   1
  | Found angular grid specification: user-specified.
  | Specified grid contains     5 separate shells.
  | Check grid settings after all constraints further below.
  | Found free-atom valence shell :  2 s   2.000
  | Found free-atom valence shell :  2 p   3.000
  | No ionic wave fns used. Skipping ion_occ.
  | No ionic wave fns used. Skipping ion_occ.
  | Found hydrogenic basis function :  2 p   1.800
  | Found hydrogenic basis function :  3 d   6.800
  | Found hydrogenic basis function :  3 s   5.800
  Species N                   : Missing cutoff potential type.
  Defaulting to exp(1/x)/(1-x)^2 type cutoff potential.
  Species N : No 'logarithmic' tag. Using default grid for free atom:
  | Default logarithmic grid data [bohr] : 0.1000E-03 0.1000E+03 0.1012E+01
  Species N : On-site basis accuracy parameter (for Gram-Schmidt orthonormalisation) not specified.
  Using default value basis_acc =  0.1000000E-03.
  Species N                   : Using default innermost maximum threshold i_radial=  2 for radial functions.
  Species N                   : Default cutoff onset for free atom density etc. : 0.35000000E+01 AA.
  Species N                   : Basic radial grid will be enhanced according to radial_multiplier =   1, to contain    35 grid points.
 
  Reading configuration options for species O                   .
  | Found nuclear charge :   8.0000
  | Found atomic mass :    15.9994000000000      amu
  | Found l_max for Hartree potential  :   4
  | Found cutoff potl. onset [A], width [A], scale factor :    3.50000    1.50000    1.00000
  | Threshold for basis-dependent cutoff potential is   0.100000E-03
  | Found data for basic radial integration grid :    36 points, outermost radius =    5.000 A
  | Found multiplier for basic radial grid :   1
  | Found angular grid specification: user-specified.
  | Specified grid contains     5 separate shells.
  | Check grid settings after all constraints further below.
  | Found free-atom valence shell :  2 s   2.000
  | Found free-atom valence shell :  2 p   4.000
  | No ionic wave fns used. Skipping ion_occ.
  | No ionic wave fns used. Skipping ion_occ.
  | Found hydrogenic basis function :  2 p   1.800
  | Found hydrogenic basis function :  3 d   7.600
  | Found hydrogenic basis function :  3 s   6.400
  Species O                   : Missing cutoff potential type.
  Defaulting to exp(1/x)/(1-x)^2 type cutoff potential.
  Species O : No 'logarithmic' tag. Using default grid for free atom:
  | Default logarithmic grid data [bohr] : 0.1000E-03 0.1000E+03 0.1012E+01
  Species O : On-site basis accuracy parameter (for Gram-Schmidt orthonormalisation) not specified.
  Using default value basis_acc =  0.1000000E-03.
  Species O                   : Using default innermost maximum threshold i_radial=  2 for radial functions.
  Species O                   : Default cutoff onset for free atom density etc. : 0.35000000E+01 AA.
  Species O                   : Basic radial grid will be enhanced according to radial_multiplier =   1, to contain    36 grid points.
 
  Finished reading input file 'control.in'. Consistency checks are next.
 
  MPI_IN_PLACE appears to work with this MPI implementation.
  | Keeping use_mpi_in_place .true. (see manual).
  Target number of points in a grid batch is not set. Defaulting to  100
  Method for grid partitioning is not set. Defaulting to parallel hash+maxmin partitioning.
  Batch size limit is not set. Defaulting to    200
  By default, will store active basis functions for each batch.
  If in need of memory, prune_basis_once .false. can be used to disable this option.
  communication_type for Hartree potential was not specified.
  Defaulting to calc_hartree .
  Pulay mixer: Number of initial linear mixing iterations not set.
  Defaulting to    0 iterations.
  Work space size for distributed Hartree potential not set.
  Defaulting to   0.200000E+03 MB.
  Algorithm-dependent basis array size parameters:
  | n_max_pulay                         :       10
  Presetting      1001 iterations before the initial mixing cycle
  is restarted anyway using the sc_init_iter criterion / keyword.
  Presetting a factor      1.000 between actual scf density residual
  and density convergence criterion sc_accuracy_rho below which sc_init_iter
  takes no effect.
  Geometry relaxation not requested: no relaxation will be performed.
  Handling of forces: Unphysical translation and rotation will be removed from forces.
  No accuracy limit for integral partition fn. given. Defaulting to  0.1000E-14.
  No threshold value for u(r) in integrations given. Defaulting to  0.1000E-05.
  No accuracy for occupation numbers given. Defaulting to  0.1000E-12.
  No threshold value for occupation numbers given. Defaulting to  0.0000E+00.
  No accuracy for fermi level given. Defaulting to  0.1000E-19.
  Maximum # of iterations to find E_F not set. Defaulting to  200.
  Preferred method for the eigenvalue solver ('KS_method') not specified in 'control.in'.
  Defaulting to serial version, 'lapack_fast'.
  Will not use alltoall communication since running on < 1024 CPUs.
  Threshold for basis singularities not set.
  Default threshold for basis singularities:  0.1000E-04
  partition_type (choice of integration weights) for integrals was not specified.
  | Using a version of the partition function of Stratmann and coworkers ('stratmann_smoother').
  | At each grid point, the set of atoms used to build the partition table is smoothly restricted to
  | only those atoms whose free-atom density would be non-zero at that grid point.
  Partitioning for Hartree potential was not defined. Using partition_type for integrals.
  | Adjusted default value of keyword multip_moments_threshold to:       0.10000000E-11
  | This value may affect high angular momentum components of the Hartree potential in periodic systems.
  No q(lm)/r^(l+1) cutoff set for long-range Hartree potential.
  | Using default value of  0.100000E-09 .
  | Verify using the multipole_threshold keyword.
  Defaulting to new monopole extrapolation.
  Density update method: automatic selection selected.
------------------------------------------------------------


------------------------------------------------------------
          Reading geometry description geometry.in.
------------------------------------------------------------
  Input structure read successfully.
  The structure contains       13 atoms,  and a total of         48.000 electrons.

  Input geometry:
  | No unit cell requested.
  | Atomic structure:
  |       Atom                x [A]            y [A]            z [A]
  |    1: Species C             0.00000000        0.00000000        0.00000000
  |    2: Species H             1.09300000        0.00000000        0.00000000
  |    3: Species N            -0.47961000        0.00000000       -1.41207000
  |    4: Species H            -0.48179000        0.96073000       -1.75676000
  |    5: Species H             0.14939000       -0.57287000       -1.97091000
  |    6: Species C            -0.49584000        1.26211000        0.72868000
  |    7: Species H            -1.58789000        1.28919000        0.74431000
  |    8: Species H            -0.13407000        1.27425000        1.75947000
  |    9: Species H            -0.13407000        2.16087000        0.22380000
  |   10: Species C            -0.39425000       -1.28861000        0.74398000
  |   11: Species O            -0.10189000       -1.56493000        1.88303000
  |   12: Species O            -1.10210000       -2.13717000        0.06896000
  |   13: Species H            -1.24623000       -1.59946000       -0.72795000
  |

  | The smallest distance between any two atoms is         0.97209621 AA.
  |
  | The first atom of this pair is atom number                     12 .
  | The second atom of this pair is atom number                    13 .

  Number of empty states per atom not set in control.in - providing a guess from actual geometry.
  | Total number of empty states used during s.c.f. cycle:       29
  If you use a very high smearing, use empty_states (per atom!) in control.in to increase this value.

  Structure-dependent array size parameters: 
  | Maximum number of distinct radial functions  :       21
  | Maximum number of basis functions            :      119
  | Number of Kohn-Sham states (occupied + empty):       53
------------------------------------------------------------

------------------------------------------------------------
          Preparing all fixed parts of the calculation.
------------------------------------------------------------
  Determining machine precision:
    2.225073858507201E-308
  Setting up grids for atomic and cluster calculations.

  Creating wave function, potential, and density for free atoms.

  Species: H

  List of occupied orbitals and eigenvalues:
    n    l              occ      energy [Ha]    energy [eV]
    1    0           1.0000        -0.237589        -6.4651


  Species: C

  List of occupied orbitals and eigenvalues:
    n    l              occ      energy [Ha]    energy [eV]
    1    0           2.0000       -10.038835      -273.1706
    2    0           2.0000        -0.502696       -13.6791
    2    1           2.0000        -0.191971        -5.2238


  Species: N

  List of occupied orbitals and eigenvalues:
    n    l              occ      energy [Ha]    energy [eV]
    1    0           2.0000       -14.128000      -384.4424
    2    0           2.0000        -0.681077       -18.5330
    2    1           3.0000        -0.259788        -7.0692


  Species: O

  List of occupied orbitals and eigenvalues:
    n    l              occ      energy [Ha]    energy [eV]
    1    0           2.0000       -18.898188      -514.2459
    2    0           2.0000        -0.878505       -23.9053
    2    1           4.0000        -0.331779        -9.0282

  Creating fixed part of basis set: Ionic, confined, hydrogenic.
 
  H                    hydrogenic:
 
  List of hydrogenic basis orbitals: 
    n    l      effective z      eigenvalue [eV]  inner max. [A]     outer max. [A]     outer radius [A]   
    2    0         2.100000       -14.9728           0.193243           1.317208           4.583499
    2    1         3.500000       -41.6669           0.602369           0.602369           3.723403
 
 
  C                    hydrogenic:
 
  List of hydrogenic basis orbitals: 
    n    l      effective z      eigenvalue [eV]  inner max. [A]     outer max. [A]     outer radius [A]   
    2    1         1.700000        -9.7616           1.230570           1.230570           4.607917
    3    2         6.000000       -54.4224           0.792453           0.792453           3.883070
    2    0         4.900000       -81.6679           0.082559           0.562749           3.078220
 
 
  N                    hydrogenic:
 
  List of hydrogenic basis orbitals: 
    n    l      effective z      eigenvalue [eV]  inner max. [A]     outer max. [A]     outer radius [A]   
    2    1         1.800000       -10.9749           1.177451           1.177451           4.573712
    3    2         6.800000       -69.9026           0.704619           0.704619           3.538137
    3    0         5.800000       -50.8545           0.067388           1.191934           4.250239
 
 
  O                    hydrogenic:
 
  List of hydrogenic basis orbitals: 
    n    l      effective z      eigenvalue [eV]  inner max. [A]     outer max. [A]     outer radius [A]   
    2    1         1.800000       -10.9749           1.164242           1.164242           4.578029
    3    2         7.600000       -87.3180           0.624125           0.624125           3.251020
    3    0         6.400000       -61.9207           0.061167           1.081902           4.001998
 

  Adding cutoff potential to free-atom effective potential.
  Creating atomic-like basis functions for current effective potential.

  Species H                   :

  List of atomic basis orbitals and eigenvalues:
    n    l      energy [Ha]    energy [eV]    outer radius [A]
    1    0        -0.237589        -6.4651       4.527807


  Species C                   :

  List of atomic basis orbitals and eigenvalues:
    n    l      energy [Ha]    energy [eV]    outer radius [A]
    1    0       -10.038835      -273.1706       1.934409
    2    0        -0.502696       -13.6791       4.496620
    2    1        -0.191971        -5.2238       4.551928


  Species N                   :

  List of atomic basis orbitals and eigenvalues:
    n    l      energy [Ha]    energy [eV]    outer radius [A]
    1    0       -14.128000      -384.4424       1.637919
    2    0        -0.681077       -18.5330       4.463241
    2    1        -0.259788        -7.0692       4.518138


  Species O                   :

  List of atomic basis orbitals and eigenvalues:
    n    l      energy [Ha]    energy [eV]    outer radius [A]
    1    0       -18.898188      -514.2459       1.415765
    2    0        -0.878505       -23.9053       4.413171
    2    1        -0.331779        -9.0282       4.522403

  Assembling full basis from fixed parts.
  | Species H :   atomic orbital   1 s accepted.
  | Species H :    hydro orbital   2 s accepted.
  | Species H :    hydro orbital   2 p accepted.
  | Species C :   atomic orbital   1 s accepted.
  | Species C :    hydro orbital   2 s accepted.
  | Species C :   atomic orbital   2 s accepted.
  | Species C :   atomic orbital   2 p accepted.
  | Species C :    hydro orbital   2 p accepted.
  | Species C :    hydro orbital   3 d accepted.
  | Species N :   atomic orbital   1 s accepted.
  | Species N :    hydro orbital   3 s accepted.
  | Species N :   atomic orbital   2 s accepted.
  | Species N :   atomic orbital   2 p accepted.
  | Species N :    hydro orbital   2 p accepted.
  | Species N :    hydro orbital   3 d accepted.
  | Species O :   atomic orbital   1 s accepted.
  | Species O :    hydro orbital   3 s accepted.
  | Species O :   atomic orbital   2 s accepted.
  | Species O :   atomic orbital   2 p accepted.
  | Species O :    hydro orbital   2 p accepted.
  | Species O :    hydro orbital   3 d accepted.
 
  Basis size parameters after reduction:
  | Total number of radial functions:       21
  | Total number of basis functions :      119
 
  Per-task memory consumption for arrays in subroutine allocate_ext:
  |           5.250512MB.
  Testing on-site integration grid accuracy.
  |  Species  Function  <phi|h_atom|phi> (log., in eV)  <phi|h_atom|phi> (rad., in eV)
           1        1                 -6.4663192853                 -6.4651273558
           1        2                 13.7111246313                 13.7170609718
           1        3                 25.2673269279                 25.2674696378
           2        4               -273.1705927641               -273.1705631568
           2        5                -10.7109323383                -10.7107120029
           2        6                 17.4381822266                 17.4352413244
           2        7                 -5.2255326521                 -5.2270484734
           2        8                  8.6835629259                  8.6603288385
           2        9                 27.4952418996                 27.4953360207
           3       10               -384.4424306495               -384.4423701208
           3       11                 12.5842251816                 12.5842222903
           3       12                -15.7264628251                -15.7264433455
           3       13                 -7.0696854293                 -7.0701769954
           3       14                  8.8090390882                  8.7901077751
           3       15                 35.9586762123                 35.9588528632
           4       16               -514.2458688638               -514.2457643834
           4       17                 15.1795651126                 15.1795290741
           4       18                -21.5359799773                -21.5360846186
           4       19                 -9.0283069236                 -9.0284644067
           4       20                  8.3027758564                  8.2834874195
           4       21                 45.8339351984                 45.8338762259

  Preparing densities etc. for the partition functions (integrals / Hartree potential).

  Preparations completed.
  max(cpu_time)          :      0.159 s.
  Wall clock time (cpu1) :      0.161 s.
------------------------------------------------------------

------------------------------------------------------------
          Begin self-consistency loop: Initialization.

          Date     :  20200815, Time     :  005313.524
------------------------------------------------------------

  Initializing index lists of integration centers etc. from given atomic structure:
  | Number of centers in hartree potential         :        13
  | Number of centers in hartree multipole         :        13
  | Number of centers in electron density summation:        13
  | Number of centers in basis integrals           :        13
  | Number of centers in integrals                 :        13
  | Number of centers in hamiltonian               :        13
  Partitioning the integration grid into batches with parallel hashing+maxmin method.
  | Number of batches:      961
  | Maximal batch size:     138
  | Minimal batch size:      66
  | Average batch size:      72.472
  | Standard deviation of batch sizes:      16.807

  Integration load balanced across     1 MPI tasks.
  Work distribution over tasks is as follows:
  Task     0 has      69646 integration points.
  Initializing partition tables, free-atom densities, potentials, etc. across the integration grid (initialize_grid_storage).
  | initialize_grid_storage: Actual outermost partition radius vs. multipole_radius_free
  | (-- VB: in principle, multipole_radius_free should be larger, hence this output)
  | Species        1: Confinement radius =              4.999999999999999 AA, multipole_radius_free =              5.054417573612229 AA.
  | Species        1: outer_partition_radius set to              5.054417573612229 AA .
  | Species        2: Confinement radius =              4.999999999999999 AA, multipole_radius_free =              5.019602836301480 AA.
  | Species        2: outer_partition_radius set to              5.019602836301480 AA .
  | Species        3: Confinement radius =              4.999999999999999 AA, multipole_radius_free =              5.043624274424571 AA.
  | Species        3: outer_partition_radius set to              5.043624274424571 AA .
  | Species        4: Confinement radius =              4.999999999999999 AA, multipole_radius_free =              5.048384829883283 AA.
  | Species        4: outer_partition_radius set to              5.048384829883283 AA .
  | Original list of interatomic distances with          13 x         13 entries is created.
  | Net number of integration points:    69646
  | of which are non-zero points    :    59407
  Renormalizing the initial density to the exact electron count on the 3D integration grid.
  | Initial density: Formal number of electrons (from input files) :      48.0000000000
  | Integrated number of electrons on 3D grid     :      47.9999949029
  | Charge integration error                      :      -0.0000050971
  | Normalization factor for density and gradient :       1.0000001062
  Obtaining max. number of non-zero basis functions in each batch (get_n_compute_maxes).
  | Maximal number of non-zero basis functions:      119 in task     0
  Selecting the method for density update.
  Loop over occupied states selected for charge density update.
  Allocating        0.050 MB for KS_eigenvector
  Integrating Hamiltonian matrix: batch-based integration.
  Time summed over all CPUs for integration: real work        0.515 s, elapsed        0.515 s
  Integrating overlap matrix.
  Time summed over all CPUs for integration: real work        0.216 s, elapsed        0.216 s

  Updating Kohn-Sham eigenvalues and eigenvectors using ELSI and the ELPA eigensolver.
  Overlap matrix is nonsingular
  | Lowest eigenvalue of overlap  :  0.48E-02
  | Highest eigenvalue of overlap :  0.63E+01
  Finished singularity check of overlap matrix
  | Time :     0.002 s
  Finished Cholesky decomposition
  | Time :     0.000 s
  Finished transformation to standard eigenproblem
  | Time :     0.000 s
  Starting LAPACK eigensolver
  Finished solving standard eigenproblem
  | Time :     0.002 s
  Finished back-transformation of eigenvectors
  | Time :     0.000 s

  Obtaining occupation numbers and chemical potential using ELSI.
  | Chemical potential (Fermi level):    -9.49866686eV
  Writing Kohn-Sham eigenvalues.

  State    Occupation    Eigenvalue [Ha]    Eigenvalue [eV]
      1       2.00000         -19.007529         -517.22119
      2       2.00000         -18.977116         -516.39361
      3       2.00000         -14.247740         -387.70074
      4       2.00000         -10.166791         -276.65247
      5       2.00000         -10.142035         -275.97882
      6       2.00000         -10.131914         -275.70342
      7       2.00000          -1.181484          -32.14982
      8       2.00000          -1.101541          -29.97445
      9       2.00000          -0.993818          -27.04316
     10       2.00000          -0.860799          -23.42353
     11       2.00000          -0.754818          -20.53964
     12       2.00000          -0.680582          -18.51958
     13       2.00000          -0.632448          -17.20978
     14       2.00000          -0.609945          -16.59745
     15       2.00000          -0.595146          -16.19475
     16       2.00000          -0.557577          -15.17244
     17       2.00000          -0.549217          -14.94495
     18       2.00000          -0.530020          -14.42259
     19       2.00000          -0.514709          -14.00594
     20       2.00000          -0.497448          -13.53625
     21       2.00000          -0.478879          -13.03096
     22       2.00000          -0.429630          -11.69083
     23       2.00000          -0.415308          -11.30109
     24       2.00000          -0.385608          -10.49292
     25       0.00000          -0.148023           -4.02790
     26       0.00000          -0.064088           -1.74391
     27       0.00000          -0.030010           -0.81661
     28       0.00000          -0.003876           -0.10548
     29       0.00000           0.004880            0.13280
     30       0.00000           0.007197            0.19583
     31       0.00000           0.018169            0.49440
     32       0.00000           0.034507            0.93898
     33       0.00000           0.041428            1.12730
     34       0.00000           0.070657            1.92268
     35       0.00000           0.080114            2.18001
     36       0.00000           0.133072            3.62108
     37       0.00000           0.172044            4.68156
     38       0.00000           0.194429            5.29067
     39       0.00000           0.214415            5.83454
     40       0.00000           0.220697            6.00548
     41       0.00000           0.236667            6.44003
     42       0.00000           0.256632            6.98330
     43       0.00000           0.286261            7.78956
     44       0.00000           0.301635            8.20789
     45       0.00000           0.350520            9.53814
     46       0.00000           0.357038            9.71550
     47       0.00000           0.379824           10.33554
     48       0.00000           0.395689           10.76724
     49       0.00000           0.440877           11.99688
     50       0.00000           0.479597           13.05050
     51       0.00000           0.498214           13.55710
     52       0.00000           0.557194           15.16201
     53       0.00000           0.568560           15.47129

  Highest occupied state (VBM) at    -10.49291601 eV
  | Occupation number:      2.00000000

  Lowest unoccupied state (CBM) at    -4.02789797 eV
  | Occupation number:      0.00000000

  Overall HOMO-LUMO gap:      6.46501805 eV.
  Calculating total energy contributions from superposition of free atom densities.

  Total energy components:
  | Sum of eigenvalues            :        -188.88420494 Ha       -5139.80072653 eV
  | XC energy correction          :         -41.80293753 Ha       -1137.51580628 eV
  | XC potential correction       :          53.73966478 Ha        1462.33068110 eV
  | Free-atom electrostatic energy:        -146.82337024 Ha       -3995.26718129 eV
  | Hartree energy correction     :           0.00000000 Ha           0.00000000 eV
  | vdW energy correction         :           0.00000000 Ha           0.00000000 eV
  | Entropy correction            :           0.00000000 Ha           0.00000000 eV
  | ---------------------------
  | Total energy                  :        -323.77084793 Ha       -8810.25303300 eV
  | Total energy, T -> 0          :        -323.77084793 Ha       -8810.25303300 eV  <-- do not rely on this value for anything but (periodic) metals
  | Electronic free energy        :        -323.77084793 Ha       -8810.25303300 eV

  Derived energy quantities:
  | Kinetic energy                :         320.51539890 Ha        8721.66775766 eV
  | Electrostatic energy          :        -602.48330931 Ha      -16394.40498438 eV
  | Energy correction for multipole
  | error in Hartree potential    :           0.00000000 Ha           0.00000000 eV
  | Sum of eigenvalues per atom                           :        -395.36928666 eV
  | Total energy (T->0) per atom                          :        -677.71177177 eV  <-- do not rely on this value for anything but (periodic) metals
  | Electronic free energy per atom                       :        -677.71177177 eV
  Initialize hartree_potential_storage
  Max. number of atoms included in rho_multipole:           13

  End scf initialization - timings             :  max(cpu_time)    wall_clock(cpu1)
  | Time for scf. initialization               :        1.195 s           1.205 s
  | Boundary condition initialization          :        0.000 s           0.000 s
  | Integration                                :        0.725 s           0.732 s
  | Solution of K.-S. eqns.                    :        0.004 s           0.005 s
  | Grid partitioning                          :        0.118 s           0.119 s
  | Preloading free-atom quantities on grid    :        0.002 s           0.003 s
  | Free-atom superposition energy             :        0.086 s           0.086 s
  | Total energy evaluation                    :        0.000 s           0.000 s

  Partial memory accounting:
  | Current value for overall tracked memory usage on task 0  :           0.165 MB
  | Peak value for overall tracked memory usage on task 0     :           0.676 MB after allocating wave
  | Largest tracked array allocation on task 0 so far         :           0.131 MB  when allocating H_times_psi
  Note:  These values currently only include a subset of arrays which are explicitly tracked.
  The "true" memory usage will be greater.
------------------------------------------------------------

------------------------------------------------------------
          Begin self-consistency iteration #    1

  Date     :  20200815, Time     :  005314.729
------------------------------------------------------------
  Evaluating new KS density.
  Integration grid: deviation in total charge (<rho> - N_e) =  -7.105427E-15
  Pulay mixing of updated and previous charge densities.

  Evaluating partitioned Hartree potential by multipole expansion.
  | Analytical far-field extrapolation by fixed multipoles:
  | Hartree multipole sum: apparent total charge =  -0.107558E-03
  Summing up the Hartree potential.
  Time summed over all CPUs for potential: real work        0.287 s, elapsed        0.287 s
  | RMS charge density error from multipole expansion :   0.589371E-02

  Integrating Hamiltonian matrix: batch-based integration.
  Time summed over all CPUs for integration: real work        0.510 s, elapsed        0.510 s

  Updating Kohn-Sham eigenvalues and eigenvectors using ELSI and the ELPA eigensolver.
  Finished Cholesky decomposition
  | Time :     0.000 s
  Finished transformation to standard eigenproblem
  | Time :     0.000 s
  Starting LAPACK eigensolver
  Finished solving standard eigenproblem
  | Time :     0.002 s
  Finished back-transformation of eigenvectors
  | Time :     0.000 s

  Obtaining occupation numbers and chemical potential using ELSI.
  | Chemical potential (Fermi level):    -8.51295761eV
  Writing Kohn-Sham eigenvalues.

  State    Occupation    Eigenvalue [Ha]    Eigenvalue [eV]
      1       2.00000         -18.902772         -514.37061
      2       2.00000         -18.827462         -512.32131
      3       2.00000         -14.114512         -384.07541
      4       2.00000         -10.110759         -275.12775
      5       2.00000         -10.069158         -273.99573
      6       2.00000         -10.035247         -273.07297
      7       2.00000          -1.128770          -30.71540
      8       2.00000          -1.032762          -28.10289
      9       2.00000          -0.933837          -25.41098
     10       2.00000          -0.799422          -21.75338
     11       2.00000          -0.704583          -19.17268
     12       2.00000          -0.632193          -17.20284
     13       2.00000          -0.579988          -15.78227
     14       2.00000          -0.561522          -15.27979
     15       2.00000          -0.536302          -14.59351
     16       2.00000          -0.497485          -13.53725
     17       2.00000          -0.486718          -13.24427
     18       2.00000          -0.474807          -12.92016
     19       2.00000          -0.453871          -12.35046
     20       2.00000          -0.440671          -11.99128
     21       2.00000          -0.423247          -11.51714
     22       2.00000          -0.363313           -9.88625
     23       2.00000          -0.346244           -9.42177
     24       2.00000          -0.317476           -8.63896
     25       0.00000          -0.107278           -2.91917
     26       0.00000          -0.041840           -1.13854
     27       0.00000           0.008601            0.23404
     28       0.00000           0.022115            0.60177
     29       0.00000           0.034592            0.94129
     30       0.00000           0.040440            1.10042
     31       0.00000           0.054485            1.48262
     32       0.00000           0.067059            1.82478
     33       0.00000           0.076932            2.09341
     34       0.00000           0.107549            2.92655
     35       0.00000           0.118818            3.23319
     36       0.00000           0.163167            4.43999
     37       0.00000           0.201066            5.47128
     38       0.00000           0.224100            6.09806
     39       0.00000           0.240642            6.54821
     40       0.00000           0.253996            6.91159
     41       0.00000           0.268724            7.31234
     42       0.00000           0.288380            7.84721
     43       0.00000           0.320070            8.70956
     44       0.00000           0.341959            9.30517
     45       0.00000           0.389631           10.60241
     46       0.00000           0.401730           10.93162
     47       0.00000           0.418418           11.38574
     48       0.00000           0.429485           11.68687
     49       0.00000           0.473022           12.87158
     50       0.00000           0.513269           13.96676
     51       0.00000           0.531881           14.47322
     52       0.00000           0.590166           16.05923
     53       0.00000           0.601413           16.36529

  Highest occupied state (VBM) at     -8.63896270 eV
  | Occupation number:      2.00000000

  Lowest unoccupied state (CBM) at    -2.91917166 eV
  | Occupation number:      0.00000000

  Overall HOMO-LUMO gap:      5.71979104 eV.

  Total energy components:
  | Sum of eigenvalues            :        -185.54624071 Ha       -5048.97009853 eV
  | XC energy correction          :         -42.12666620 Ha       -1146.32491160 eV
  | XC potential correction       :          54.16063342 Ha        1473.78582068 eV
  | Free-atom electrostatic energy:        -146.82337024 Ha       -3995.26718129 eV
  | Hartree energy correction     :          -3.26150500 Ha         -88.75006668 eV
  | vdW energy correction         :           0.00000000 Ha           0.00000000 eV
  | Entropy correction            :          -0.00000000 Ha          -0.00000000 eV
  | ---------------------------
  | Total energy                  :        -323.59714874 Ha       -8805.52643741 eV
  | Total energy, T -> 0          :        -323.59714874 Ha       -8805.52643741 eV  <-- do not rely on this value for anything but (periodic) metals
  | Electronic free energy        :        -323.59714874 Ha       -8805.52643741 eV

  Derived energy quantities:
  | Kinetic energy                :         322.27546466 Ha        8769.56158373 eV
  | Electrostatic energy          :        -603.74594720 Ha      -16428.76310955 eV
  | Energy correction for multipole
  | error in Hartree potential    :           0.01157637 Ha           0.31500894 eV
  | Sum of eigenvalues per atom                           :        -388.38231527 eV
  | Total energy (T->0) per atom                          :        -677.34818749 eV  <-- do not rely on this value for anything but (periodic) metals
  | Electronic free energy per atom                       :        -677.34818749 eV

  Self-consistency convergence accuracy:
  | Change of charge density      :  0.5751E+00
  | Change of sum of eigenvalues  :  0.9083E+02 eV
  | Change of total energy        :  0.4727E+01 eV

  End self-consistency iteration #     1       :  max(cpu_time)    wall_clock(cpu1)
  | Time for this iteration                    :        1.225 s           1.233 s
  | Charge density update                      :        0.411 s           0.416 s
  | Density mixing                             :        0.006 s           0.006 s
  | Hartree multipole update                   :        0.009 s           0.009 s
  | Hartree multipole summation                :        0.287 s           0.289 s
  | Integration                                :        0.509 s           0.510 s
  | Solution of K.-S. eqns.                    :        0.002 s           0.002 s
  | Total energy evaluation                    :        0.000 s           0.001 s

  Partial memory accounting:
  | Current value for overall tracked memory usage on task 0  :           0.165 MB
  | Peak value for overall tracked memory usage on task 0     :           0.691 MB after allocating gradient_basis_wave
  | Largest tracked array allocation on task 0 so far         :           0.394 MB  when allocating gradient_basis_wave
  Note:  These values currently only include a subset of arrays which are explicitly tracked.
  The "true" memory usage will be greater.
------------------------------------------------------------

------------------------------------------------------------
          Begin self-consistency iteration #    2

  Date     :  20200815, Time     :  005315.962
------------------------------------------------------------
  Evaluating new KS density.
  Integration grid: deviation in total charge (<rho> - N_e) =  -2.842171E-14
  Pulay mixing of updated and previous charge densities.

  Evaluating partitioned Hartree potential by multipole expansion.
  | Analytical far-field extrapolation by fixed multipoles:
  | Hartree multipole sum: apparent total charge =  -0.239364E-03
  Summing up the Hartree potential.
  Time summed over all CPUs for potential: real work        0.286 s, elapsed        0.286 s
  | RMS charge density error from multipole expansion :   0.140685E-01

  Integrating Hamiltonian matrix: batch-based integration.
  Time summed over all CPUs for integration: real work        0.522 s, elapsed        0.522 s

  Updating Kohn-Sham eigenvalues and eigenvectors using ELSI and the ELPA eigensolver.
  Finished Cholesky decomposition
  | Time :     0.000 s
  Finished transformation to standard eigenproblem
  | Time :     0.000 s
  Starting LAPACK eigensolver
  Finished solving standard eigenproblem
  | Time :     0.002 s
  Finished back-transformation of eigenvectors
  | Time :     0.000 s

  Obtaining occupation numbers and chemical potential using ELSI.
  | Chemical potential (Fermi level):    -3.17984855eV
  Highest occupied state (VBM) at     -6.72817153 eV
  | Occupation number:      2.00000000

  Lowest unoccupied state (CBM) at    -1.51542897 eV
  | Occupation number:      0.00000000

  Overall HOMO-LUMO gap:      5.21274256 eV.

  Checking to see if s.c.f. parameters should be adjusted.

  Total energy components:
  | Sum of eigenvalues            :        -182.00701712 Ha       -4952.66292465 eV
  | XC energy correction          :         -42.48270908 Ha       -1156.01333137 eV
  | XC potential correction       :          54.62205534 Ha        1486.34174996 eV
  | Free-atom electrostatic energy:        -146.82337024 Ha       -3995.26718129 eV
  | Hartree energy correction     :          -6.83063956 Ha        -185.87115933 eV
  | vdW energy correction         :           0.00000000 Ha           0.00000000 eV
  | Entropy correction            :           0.00000000 Ha           0.00000000 eV
  | ---------------------------
  | Total energy                  :        -323.52168067 Ha       -8803.47284668 eV
  | Total energy, T -> 0          :        -323.52168067 Ha       -8803.47284668 eV  <-- do not rely on this value for anything but (periodic) metals
  | Electronic free energy        :        -323.52168067 Ha       -8803.47284668 eV

  Derived energy quantities:
  | Kinetic energy                :         323.58506537 Ha        8805.19763218 eV
  | Electrostatic energy          :        -604.62403695 Ha      -16452.65714748 eV
  | Energy correction for multipole
  | error in Hartree potential    :           0.02545874 Ha           0.69276767 eV
  | Sum of eigenvalues per atom                           :        -380.97407113 eV
  | Total energy (T->0) per atom                          :        -677.19021898 eV  <-- do not rely on this value for anything but (periodic) metals
  | Electronic free energy per atom                       :        -677.19021898 eV

  Self-consistency convergence accuracy:
  | Change of charge density      :  0.3590E+00
  | Change of sum of eigenvalues  :  0.9631E+02 eV
  | Change of total energy        :  0.2054E+01 eV

  End self-consistency iteration #     2       :  max(cpu_time)    wall_clock(cpu1)
  | Time for this iteration                    :        1.215 s           1.227 s
  | Charge density update                      :        0.397 s           0.398 s
  | Density mixing                             :        0.007 s           0.007 s
  | Hartree multipole update                   :        0.009 s           0.010 s
  | Hartree multipole summation                :        0.287 s           0.286 s
  | Integration                                :        0.513 s           0.523 s
  | Solution of K.-S. eqns.                    :        0.002 s           0.003 s
  | Total energy evaluation                    :        0.000 s           0.000 s

  Partial memory accounting:
  | Current value for overall tracked memory usage on task 0  :           0.166 MB
  | Peak value for overall tracked memory usage on task 0     :           0.691 MB after allocating gradient_basis_wave
  | Largest tracked array allocation on task 0 so far         :           0.394 MB  when allocating gradient_basis_wave
  Note:  These values currently only include a subset of arrays which are explicitly tracked.
  The "true" memory usage will be greater.
------------------------------------------------------------

------------------------------------------------------------
          Begin self-consistency iteration #    3

  Date     :  20200815, Time     :  005317.190
------------------------------------------------------------
  Evaluating new KS density.
  Integration grid: deviation in total charge (<rho> - N_e) =   2.842171E-14
  Pulay mixing of updated and previous charge densities.

  Evaluating partitioned Hartree potential by multipole expansion.
  | Analytical far-field extrapolation by fixed multipoles:
  | Hartree multipole sum: apparent total charge =  -0.335286E-03
  Summing up the Hartree potential.
  Time summed over all CPUs for potential: real work        0.287 s, elapsed        0.287 s
  | RMS charge density error from multipole expansion :   0.223337E-01

  Integrating Hamiltonian matrix: batch-based integration.
  Time summed over all CPUs for integration: real work        0.517 s, elapsed        0.517 s

  Updating Kohn-Sham eigenvalues and eigenvectors using ELSI and the ELPA eigensolver.
  Finished Cholesky decomposition
  | Time :     0.000 s
  Finished transformation to standard eigenproblem
  | Time :     0.000 s
  Starting LAPACK eigensolver
  Finished solving standard eigenproblem
  | Time :     0.002 s
  Finished back-transformation of eigenvectors
  | Time :     0.000 s

  Obtaining occupation numbers and chemical potential using ELSI.
  | Chemical potential (Fermi level):    -2.52838374eV
  Highest occupied state (VBM) at     -6.08644855 eV
  | Occupation number:      2.00000000

  Lowest unoccupied state (CBM) at    -0.74815558 eV
  | Occupation number:      0.00000000

  Overall HOMO-LUMO gap:      5.33829296 eV.

  Total energy components:
  | Sum of eigenvalues            :        -180.66038643 Ha       -4916.01923901 eV
  | XC energy correction          :         -42.63686795 Ha       -1160.20820757 eV
  | XC potential correction       :          54.81860431 Ha        1491.69011974 eV
  | Free-atom electrostatic energy:        -146.82337024 Ha       -3995.26718129 eV
  | Hartree energy correction     :          -8.20754375 Ha        -223.33862880 eV
  | vdW energy correction         :           0.00000000 Ha           0.00000000 eV
  | Entropy correction            :           0.00000000 Ha           0.00000000 eV
  | ---------------------------
  | Total energy                  :        -323.50956405 Ha       -8803.14313692 eV
  | Total energy, T -> 0          :        -323.50956405 Ha       -8803.14313692 eV  <-- do not rely on this value for anything but (periodic) metals
  | Electronic free energy        :        -323.50956405 Ha       -8803.14313692 eV

  Derived energy quantities:
  | Kinetic energy                :         323.18839224 Ha        8794.40360709 eV
  | Electrostatic energy          :        -604.06108834 Ha      -16437.33853644 eV
  | Energy correction for multipole
  | error in Hartree potential    :           0.03591679 Ha           0.97734545 eV
  | Sum of eigenvalues per atom                           :        -378.15532608 eV
  | Total energy (T->0) per atom                          :        -677.16485669 eV  <-- do not rely on this value for anything but (periodic) metals
  | Electronic free energy per atom                       :        -677.16485669 eV

  Self-consistency convergence accuracy:
  | Change of charge density      :  0.1997E+00
  | Change of sum of eigenvalues  :  0.3664E+02 eV
  | Change of total energy        :  0.3297E+00 eV

  End self-consistency iteration #     3       :  max(cpu_time)    wall_clock(cpu1)
  | Time for this iteration                    :        1.216 s           1.226 s
  | Charge density update                      :        0.397 s           0.399 s
  | Density mixing                             :        0.009 s           0.010 s
  | Hartree multipole update                   :        0.009 s           0.009 s
  | Hartree multipole summation                :        0.287 s           0.288 s
  | Integration                                :        0.511 s           0.517 s
  | Solution of K.-S. eqns.                    :        0.002 s           0.002 s
  | Total energy evaluation                    :        0.000 s           0.000 s

  Partial memory accounting:
  | Current value for overall tracked memory usage on task 0  :           0.166 MB
  | Peak value for overall tracked memory usage on task 0     :           0.692 MB after allocating gradient_basis_wave
  | Largest tracked array allocation on task 0 so far         :           0.394 MB  when allocating gradient_basis_wave
  Note:  These values currently only include a subset of arrays which are explicitly tracked.
  The "true" memory usage will be greater.
------------------------------------------------------------

------------------------------------------------------------
          Begin self-consistency iteration #    4

  Date     :  20200815, Time     :  005318.418
------------------------------------------------------------
  Evaluating new KS density.
  Integration grid: deviation in total charge (<rho> - N_e) =   1.421085E-14
  Pulay mixing of updated and previous charge densities.

  Evaluating partitioned Hartree potential by multipole expansion.
  | Analytical far-field extrapolation by fixed multipoles:
  | Hartree multipole sum: apparent total charge =  -0.366015E-03
  Summing up the Hartree potential.
  Time summed over all CPUs for potential: real work        0.286 s, elapsed        0.286 s
  | RMS charge density error from multipole expansion :   0.258053E-01

  Integrating Hamiltonian matrix: batch-based integration.
  Time summed over all CPUs for integration: real work        0.509 s, elapsed        0.509 s

  Updating Kohn-Sham eigenvalues and eigenvectors using ELSI and the ELPA eigensolver.
  Finished Cholesky decomposition
  | Time :     0.000 s
  Finished transformation to standard eigenproblem
  | Time :     0.000 s
  Starting LAPACK eigensolver
  Finished solving standard eigenproblem
  | Time :     0.002 s
  Finished back-transformation of eigenvectors
  | Time :     0.000 s

  Obtaining occupation numbers and chemical potential using ELSI.
  | Chemical potential (Fermi level):    -2.45491817eV
  Highest occupied state (VBM) at     -5.79334038 eV
  | Occupation number:      2.00000000

  Lowest unoccupied state (CBM) at    -0.67912610 eV
  | Occupation number:      0.00000000

  Overall HOMO-LUMO gap:      5.11421429 eV.

  Total energy components:
  | Sum of eigenvalues            :        -180.57725923 Ha       -4913.75723281 eV
  | XC energy correction          :         -42.67014247 Ha       -1161.11365343 eV
  | XC potential correction       :          54.86019386 Ha        1492.82182874 eV
  | Free-atom electrostatic energy:        -146.82337024 Ha       -3995.26718129 eV
  | Hartree energy correction     :          -8.29805077 Ha        -225.80145000 eV
  | vdW energy correction         :           0.00000000 Ha           0.00000000 eV
  | Entropy correction            :           0.00000000 Ha           0.00000000 eV
  | ---------------------------
  | Total energy                  :        -323.50862885 Ha       -8803.11768879 eV
  | Total energy, T -> 0          :        -323.50862885 Ha       -8803.11768879 eV  <-- do not rely on this value for anything but (periodic) metals
  | Electronic free energy        :        -323.50862885 Ha       -8803.11768879 eV

  Derived energy quantities:
  | Kinetic energy                :         322.77930169 Ha        8783.27168688 eV
  | Electrostatic energy          :        -603.61778807 Ha      -16425.27572224 eV
  | Energy correction for multipole
  | error in Hartree potential    :           0.03971182 Ha           1.08061355 eV
  | Sum of eigenvalues per atom                           :        -377.98132560 eV
  | Total energy (T->0) per atom                          :        -677.16289914 eV  <-- do not rely on this value for anything but (periodic) metals
  | Electronic free energy per atom                       :        -677.16289914 eV

  Self-consistency convergence accuracy:
  | Change of charge density      :  0.6424E-01
  | Change of sum of eigenvalues  :  0.2262E+01 eV
  | Change of total energy        :  0.2545E-01 eV

  End self-consistency iteration #     4       :  max(cpu_time)    wall_clock(cpu1)
  | Time for this iteration                    :        1.214 s           1.217 s
  | Charge density update                      :        0.397 s           0.398 s
  | Density mixing                             :        0.011 s           0.011 s
  | Hartree multipole update                   :        0.009 s           0.009 s
  | Hartree multipole summation                :        0.286 s           0.287 s
  | Integration                                :        0.509 s           0.509 s
  | Solution of K.-S. eqns.                    :        0.002 s           0.003 s
  | Total energy evaluation                    :        0.000 s           0.000 s

  Partial memory accounting:
  | Current value for overall tracked memory usage on task 0  :           0.166 MB
  | Peak value for overall tracked memory usage on task 0     :           0.692 MB after allocating gradient_basis_wave
  | Largest tracked array allocation on task 0 so far         :           0.394 MB  when allocating gradient_basis_wave
  Note:  These values currently only include a subset of arrays which are explicitly tracked.
  The "true" memory usage will be greater.
------------------------------------------------------------

------------------------------------------------------------
          Begin self-consistency iteration #    5

  Date     :  20200815, Time     :  005319.636
------------------------------------------------------------
  Evaluating new KS density.
  Integration grid: deviation in total charge (<rho> - N_e) =   1.421085E-14
  Pulay mixing of updated and previous charge densities.

  Evaluating partitioned Hartree potential by multipole expansion.
  | Analytical far-field extrapolation by fixed multipoles:
  | Hartree multipole sum: apparent total charge =  -0.361489E-03
  Summing up the Hartree potential.
  Time summed over all CPUs for potential: real work        0.286 s, elapsed        0.286 s
  | RMS charge density error from multipole expansion :   0.255505E-01

  Integrating Hamiltonian matrix: batch-based integration.
  Time summed over all CPUs for integration: real work        0.515 s, elapsed        0.515 s

  Updating Kohn-Sham eigenvalues and eigenvectors using ELSI and the ELPA eigensolver.
  Finished Cholesky decomposition
  | Time :     0.000 s
  Finished transformation to standard eigenproblem
  | Time :     0.000 s
  Starting LAPACK eigensolver
  Finished solving standard eigenproblem
  | Time :     0.002 s
  Finished back-transformation of eigenvectors
  | Time :     0.000 s

  Obtaining occupation numbers and chemical potential using ELSI.
  | Chemical potential (Fermi level):    -2.49350917eV
  Highest occupied state (VBM) at     -5.91645124 eV
  | Occupation number:      2.00000000

  Lowest unoccupied state (CBM) at    -0.74048300 eV
  | Occupation number:      0.00000000

  Overall HOMO-LUMO gap:      5.17596823 eV.

  Total energy components:
  | Sum of eigenvalues            :        -180.70610672 Ha       -4917.26335157 eV
  | XC energy correction          :         -42.65302670 Ha       -1160.64790970 eV
  | XC potential correction       :          54.83802176 Ha        1492.21849532 eV
  | Free-atom electrostatic energy:        -146.82337024 Ha       -3995.26718129 eV
  | Hartree energy correction     :          -8.16383837 Ha        -222.14934479 eV
  | vdW energy correction         :           0.00000000 Ha           0.00000000 eV
  | Entropy correction            :           0.00000000 Ha           0.00000000 eV
  | ---------------------------
  | Total energy                  :        -323.50832028 Ha       -8803.10929203 eV
  | Total energy, T -> 0          :        -323.50832028 Ha       -8803.10929203 eV  <-- do not rely on this value for anything but (periodic) metals
  | Electronic free energy        :        -323.50832028 Ha       -8803.10929203 eV

  Derived energy quantities:
  | Kinetic energy                :         322.71308393 Ha        8781.46980996 eV
  | Electrostatic energy          :        -603.56837750 Ha      -16423.93119229 eV
  | Energy correction for multipole
  | error in Hartree potential    :           0.03916985 Ha           1.06586584 eV
  | Sum of eigenvalues per atom                           :        -378.25102704 eV
  | Total energy (T->0) per atom                          :        -677.16225323 eV  <-- do not rely on this value for anything but (periodic) metals
  | Electronic free energy per atom                       :        -677.16225323 eV

  Self-consistency convergence accuracy:
  | Change of charge density      :  0.2309E-01
  | Change of sum of eigenvalues  : -0.3506E+01 eV
  | Change of total energy        :  0.8397E-02 eV

  End self-consistency iteration #     5       :  max(cpu_time)    wall_clock(cpu1)
  | Time for this iteration                    :        1.218 s           1.224 s
  | Charge density update                      :        0.396 s           0.397 s
  | Density mixing                             :        0.012 s           0.012 s
  | Hartree multipole update                   :        0.009 s           0.009 s
  | Hartree multipole summation                :        0.286 s           0.287 s
  | Integration                                :        0.512 s           0.516 s
  | Solution of K.-S. eqns.                    :        0.002 s           0.002 s
  | Total energy evaluation                    :        0.000 s           0.001 s

  Partial memory accounting:
  | Current value for overall tracked memory usage on task 0  :           0.166 MB
  | Peak value for overall tracked memory usage on task 0     :           0.692 MB after allocating gradient_basis_wave
  | Largest tracked array allocation on task 0 so far         :           0.394 MB  when allocating gradient_basis_wave
  Note:  These values currently only include a subset of arrays which are explicitly tracked.
  The "true" memory usage will be greater.
------------------------------------------------------------

------------------------------------------------------------
          Begin self-consistency iteration #    6

  Date     :  20200815, Time     :  005320.862
------------------------------------------------------------
  Evaluating new KS density.
  Integration grid: deviation in total charge (<rho> - N_e) =   1.421085E-14
  Pulay mixing of updated and previous charge densities.

  Evaluating partitioned Hartree potential by multipole expansion.
  | Analytical far-field extrapolation by fixed multipoles:
  | Hartree multipole sum: apparent total charge =  -0.362474E-03
  Summing up the Hartree potential.
  Time summed over all CPUs for potential: real work        0.290 s, elapsed        0.290 s
  | RMS charge density error from multipole expansion :   0.258128E-01

  Integrating Hamiltonian matrix: batch-based integration.
  Time summed over all CPUs for integration: real work        0.512 s, elapsed        0.512 s

  Updating Kohn-Sham eigenvalues and eigenvectors using ELSI and the ELPA eigensolver.
  Finished Cholesky decomposition
  | Time :     0.000 s
  Finished transformation to standard eigenproblem
  | Time :     0.000 s
  Starting LAPACK eigensolver
  Finished solving standard eigenproblem
  | Time :     0.001 s
  Finished back-transformation of eigenvectors
  | Time :     0.000 s

  Obtaining occupation numbers and chemical potential using ELSI.
  | Chemical potential (Fermi level):    -2.51422302eV
  Highest occupied state (VBM) at     -5.95622151 eV
  | Occupation number:      2.00000000

  Lowest unoccupied state (CBM) at    -0.78433311 eV
  | Occupation number:      0.00000000

  Overall HOMO-LUMO gap:      5.17188840 eV.

  Total energy components:
  | Sum of eigenvalues            :        -180.77291115 Ha       -4919.08119259 eV
  | XC energy correction          :         -42.64403205 Ha       -1160.40315286 eV
  | XC potential correction       :          54.82634359 Ha        1491.90071628 eV
  | Free-atom electrostatic energy:        -146.82337024 Ha       -3995.26718129 eV
  | Hartree energy correction     :          -8.09426688 Ha        -220.25620835 eV
  | vdW energy correction         :           0.00000000 Ha           0.00000000 eV
  | Entropy correction            :           0.00000000 Ha           0.00000000 eV
  | ---------------------------
  | Total energy                  :        -323.50823674 Ha       -8803.10701881 eV
  | Total energy, T -> 0          :        -323.50823674 Ha       -8803.10701881 eV  <-- do not rely on this value for anything but (periodic) metals
  | Electronic free energy        :        -323.50823674 Ha       -8803.10701881 eV

  Derived energy quantities:
  | Kinetic energy                :         322.61268169 Ha        8778.73772591 eV
  | Electrostatic energy          :        -603.47688637 Ha      -16421.44159186 eV
  | Energy correction for multipole
  | error in Hartree potential    :           0.03916401 Ha           1.06570699 eV
  | Sum of eigenvalues per atom                           :        -378.39086097 eV
  | Total energy (T->0) per atom                          :        -677.16207837 eV  <-- do not rely on this value for anything but (periodic) metals
  | Electronic free energy per atom                       :        -677.16207837 eV

  Self-consistency convergence accuracy:
  | Change of charge density      :  0.1113E-01
  | Change of sum of eigenvalues  : -0.1818E+01 eV
  | Change of total energy        :  0.2273E-02 eV

  End self-consistency iteration #     6       :  max(cpu_time)    wall_clock(cpu1)
  | Time for this iteration                    :        1.220 s           1.228 s
  | Charge density update                      :        0.397 s           0.399 s
  | Density mixing                             :        0.014 s           0.014 s
  | Hartree multipole update                   :        0.009 s           0.009 s
  | Hartree multipole summation                :        0.287 s           0.291 s
  | Integration                                :        0.510 s           0.512 s
  | Solution of K.-S. eqns.                    :        0.002 s           0.002 s
  | Total energy evaluation                    :        0.000 s           0.000 s

  Partial memory accounting:
  | Current value for overall tracked memory usage on task 0  :           0.166 MB
  | Peak value for overall tracked memory usage on task 0     :           0.692 MB after allocating gradient_basis_wave
  | Largest tracked array allocation on task 0 so far         :           0.394 MB  when allocating gradient_basis_wave
  Note:  These values currently only include a subset of arrays which are explicitly tracked.
  The "true" memory usage will be greater.
------------------------------------------------------------

------------------------------------------------------------
          Begin self-consistency iteration #    7

  Date     :  20200815, Time     :  005322.092
------------------------------------------------------------
  Evaluating new KS density.
  Integration grid: deviation in total charge (<rho> - N_e) =  -2.131628E-14
  Pulay mixing of updated and previous charge densities.

  Evaluating partitioned Hartree potential by multipole expansion.
  | Analytical far-field extrapolation by fixed multipoles:
  | Hartree multipole sum: apparent total charge =  -0.364042E-03
  Summing up the Hartree potential.
  Time summed over all CPUs for potential: real work        0.285 s, elapsed        0.285 s
  | RMS charge density error from multipole expansion :   0.259771E-01

  Integrating Hamiltonian matrix: batch-based integration.
  Time summed over all CPUs for integration: real work        0.512 s, elapsed        0.512 s

  Updating Kohn-Sham eigenvalues and eigenvectors using ELSI and the ELPA eigensolver.
  Finished Cholesky decomposition
  | Time :     0.000 s
  Finished transformation to standard eigenproblem
  | Time :     0.000 s
  Starting LAPACK eigensolver
  Finished solving standard eigenproblem
  | Time :     0.002 s
  Finished back-transformation of eigenvectors
  | Time :     0.000 s

[...]
  |   Hirshfeld dipole moment :      0.06417116
  |   Hirshfeld second moments:     -0.00421402      -0.02482274      -0.01529786
  |                                 -0.02482274      -0.02808540       0.00635246
  |                                 -0.01529786       0.00635246      -0.02378834
  ----------------------------------------------------------------------
  | Atom    12: O
  |   Hirshfeld charge        :     -0.14981149
  |   Free atom volume        :     23.61338643
  |   Hirshfeld volume        :     21.21882560
  |   Hirshfeld dipole vector :      0.01273014       0.04000019      -0.00968315
  |   Hirshfeld dipole moment :      0.04307941
  |   Hirshfeld second moments:      0.05646496      -0.01118065       0.01380806
  |                                 -0.01118065       0.02448084       0.00757784
  |                                  0.01380806       0.00757784       0.07159669
  ----------------------------------------------------------------------
  | Atom    13: H
  |   Hirshfeld charge        :      0.12079460
  |   Free atom volume        :      9.95071624
  |   Hirshfeld volume        :      7.24283855
  |   Hirshfeld dipole vector :     -0.02582679       0.00454308      -0.06082925
  |   Hirshfeld dipole moment :      0.06624093
  |   Hirshfeld second moments:      0.10290927      -0.00386340      -0.00066286
  |                                 -0.00386340       0.05728422       0.03580446
  |                                 -0.00066286       0.03580446       0.07975664
  ----------------------------------------------------------------------


  Total energy components:
  | Sum of eigenvalues            :        -180.75925107 Ha       -4918.70948292 eV
  | XC energy correction          :         -42.64258070 Ha       -1160.36365956 eV
  | XC potential correction       :          54.82453582 Ha        1491.85152432 eV
  | Free-atom electrostatic energy:        -146.82337024 Ha       -3995.26718129 eV
  | Hartree energy correction     :          -8.10755310 Ha        -220.61774479 eV
  | vdW energy correction         :          -0.00335462 Ha          -0.09128375 eV
  | Entropy correction            :           0.00000000 Ha           0.00000000 eV
  | ---------------------------
  | Total energy                  :        -323.51157391 Ha       -8803.19782798 eV
  | Total energy, T -> 0          :        -323.51157391 Ha       -8803.19782798 eV  <-- do not rely on this value for anything but (periodic) metals
  | Electronic free energy        :        -323.51157391 Ha       -8803.19782798 eV

  Derived energy quantities:
  | Kinetic energy                :         322.57665805 Ha        8777.75747279 eV
  | Electrostatic energy          :        -603.44229664 Ha      -16420.50035746 eV
  | Energy correction for multipole
  | error in Hartree potential    :           0.03922276 Ha           1.06730571 eV
  | Sum of eigenvalues per atom                           :        -378.36226792 eV
  | Total energy (T->0) per atom                          :        -677.16906369 eV  <-- do not rely on this value for anything but (periodic) metals
  | Electronic free energy per atom                       :        -677.16906369 eV

  atomic forces [eV/Ang]:
  -----------------------
  atom #    1
   Hellmann-Feynman              :  0.125780E+01  0.112221E+00  0.166440E+01
   Ionic forces                  :  0.000000E+00  0.000000E+00  0.000000E+00
   Multipole                     :  0.121508E+00  0.294494E+00 -0.320310E+00
   Pulay + GGA                   : -0.120175E+01  0.186050E+00 -0.149575E+01
   Van der Waals                 :  0.191617E-02  0.836220E-03 -0.106313E-02
   ----------------------------------------------------------------
   Total forces(   1)            :  0.179477E+00  0.593602E+00 -0.152724E+00
  atom #    2
   Hellmann-Feynman              :  0.372847E+00  0.670504E-02  0.266169E+00
   Ionic forces                  :  0.000000E+00  0.000000E+00  0.000000E+00
   Multipole                     :  0.160202E+00  0.363764E-01 -0.203394E-01
   Pulay + GGA                   : -0.129318E+00  0.142736E-01  0.256966E-01
   Van der Waals                 :  0.838424E-02 -0.582158E-02 -0.198914E-02
   ----------------------------------------------------------------
   Total forces(   2)            :  0.412114E+00  0.515335E-01  0.269537E+00
  atom #    3
   Hellmann-Feynman              : -0.979097E+01 -0.525024E+01  0.146914E+01
   Ionic forces                  :  0.000000E+00  0.000000E+00  0.000000E+00
   Multipole                     : -0.149080E+00  0.166643E+00 -0.826235E+00
   Pulay + GGA                   :  0.966541E+01  0.457054E+01  0.192568E+00
   Van der Waals                 :  0.360706E-02 -0.526279E-02 -0.890206E-02
   ----------------------------------------------------------------
   Total forces(   3)            : -0.271033E+00 -0.518323E+00  0.826574E+00
  atom #    4
   Hellmann-Feynman              :  0.466874E-01  0.315045E-01 -0.220942E+00
   Ionic forces                  :  0.000000E+00  0.000000E+00  0.000000E+00
   Multipole                     : -0.894298E-03  0.498440E-01 -0.829091E-01
   Pulay + GGA                   : -0.835509E-01 -0.213238E+00  0.792806E-01
   Van der Waals                 : -0.427161E-02 -0.597504E-02 -0.455450E-02
   ----------------------------------------------------------------
   Total forces(   4)            : -0.420294E-01 -0.137864E+00 -0.229125E+00
  atom #    5
   Hellmann-Feynman              :  0.308205E+00  0.150777E+00 -0.351266E+00
   Ionic forces                  :  0.000000E+00  0.000000E+00  0.000000E+00
   Multipole                     :  0.438270E-01 -0.306446E-01 -0.108566E+00
   Pulay + GGA                   : -0.161284E+00  0.979691E-01  0.119781E+00
   Van der Waals                 :  0.112776E-02  0.692502E-02 -0.658309E-02
   ----------------------------------------------------------------
   Total forces(   5)            :  0.191876E+00  0.225026E+00 -0.346634E+00
  atom #    6
   Hellmann-Feynman              : -0.286315E+00 -0.499573E+00  0.188375E+00
   Ionic forces                  :  0.000000E+00  0.000000E+00  0.000000E+00
   Multipole                     : -0.715907E-01  0.641481E+00  0.241619E+00
   Pulay + GGA                   :  0.437510E+00 -0.623834E+00 -0.488466E+00
   Van der Waals                 : -0.283208E-02  0.288805E-02 -0.402341E-02
   ----------------------------------------------------------------
   Total forces(   6)            :  0.767717E-01 -0.479037E+00 -0.624948E-01
  atom #    7
   Hellmann-Feynman              : -0.226618E+00 -0.341635E-01 -0.307648E-01
   Ionic forces                  :  0.000000E+00  0.000000E+00  0.000000E+00
   Multipole                     : -0.118696E+00  0.480944E-01  0.299642E-01
   Pulay + GGA                   :  0.113295E+00 -0.714133E-02  0.206574E-02
   Van der Waals                 : -0.188307E-02  0.893547E-03  0.384443E-02
   ----------------------------------------------------------------
   Total forces(   7)            : -0.233902E+00  0.768315E-02  0.510963E-02
  atom #    8
   Hellmann-Feynman              :  0.742553E-01 -0.750975E-01  0.982586E-01
   Ionic forces                  :  0.000000E+00  0.000000E+00  0.000000E+00
   Multipole                     :  0.166176E-01  0.707746E-01  0.129467E+00
   Pulay + GGA                   : -0.518252E-01 -0.516024E-01 -0.113950E+00
   Van der Waals                 : -0.276673E-02  0.113862E-01  0.779086E-03
   ----------------------------------------------------------------
   Total forces(   8)            :  0.362810E-01 -0.445391E-01  0.114555E+00
  atom #    9
   Hellmann-Feynman              :  0.125271E+00  0.851247E-01 -0.190496E+00
   Ionic forces                  :  0.000000E+00  0.000000E+00  0.000000E+00
   Multipole                     :  0.210623E-01  0.131212E+00 -0.168159E-02
   Pulay + GGA                   : -0.337073E-01 -0.588792E-01  0.872231E-01
   Van der Waals                 : -0.135493E-02  0.603175E-02  0.800062E-02
   ----------------------------------------------------------------
   Total forces(   9)            :  0.111271E+00  0.163490E+00 -0.969539E-01
  atom #   10
   Hellmann-Feynman              :  0.190064E+01  0.327766E+01  0.169147E+01
   Ionic forces                  :  0.000000E+00  0.000000E+00  0.000000E+00
   Multipole                     :  0.482523E-01 -0.130368E+00  0.223330E+00
   Pulay + GGA                   : -0.119577E+01 -0.248417E+01 -0.196273E+00
   Van der Waals                 :  0.110036E-02 -0.113936E-01  0.292967E-02
   ----------------------------------------------------------------
   Total forces(  10)            :  0.754219E+00  0.651732E+00  0.172146E+01
  atom #   11
   Hellmann-Feynman              :  0.418033E+01 -0.235270E+01  0.142374E+02
   Ionic forces                  :  0.000000E+00  0.000000E+00  0.000000E+00
   Multipole                     :  0.104326E+00 -0.574942E+00  0.980905E+00
   Pulay + GGA                   : -0.337891E+01  0.360170E+01 -0.141228E+02
   Van der Waals                 : -0.728058E-03 -0.122943E-01  0.753587E-02
   ----------------------------------------------------------------
   Total forces(  11)            :  0.905018E+00  0.661759E+00  0.110309E+01
  atom #   12
   Hellmann-Feynman              : -0.542918E+01 -0.129494E+02  0.978543E+00
   Ionic forces                  :  0.000000E+00  0.000000E+00  0.000000E+00
   Multipole                     : -0.832786E+00 -0.146595E+01  0.361009E-01
   Pulay + GGA                   :  0.503693E+01  0.132827E+02 -0.266860E+01
   Van der Waals                 : -0.937629E-03  0.522832E-02  0.586870E-02
   ----------------------------------------------------------------
   Total forces(  12)            : -0.122597E+01 -0.112747E+01 -0.164809E+01
  atom #   13
   Hellmann-Feynman              : -0.952760E+00  0.328921E-01 -0.177313E+01
   Ionic forces                  :  0.000000E+00  0.000000E+00  0.000000E+00
   Multipole                     :  0.176071E-02  0.874921E-01 -0.815646E-01
   Pulay + GGA                   :  0.577940E-01 -0.172314E+00  0.344824E+00
   Van der Waals                 : -0.136150E-02  0.655822E-02 -0.184305E-02
   ----------------------------------------------------------------
   Total forces(  13)            : -0.894567E+00 -0.453713E-01 -0.151171E+01

  Timings for VdW correction (Tkatchenko-Scheffler 2009 or later):
  | CPU time:        0.094 s, Wall clock time:        0.095 s.
  Removing unitary transformations (pure translations, rotations) from forces on atoms.
  Atomic forces before filtering:
  | Net force on center of mass :  -0.472375E-03  0.222198E-02 -0.740919E-02 eV/A
  | Net torque on center of mass:   0.643615E-02 -0.277683E-02 -0.452941E-02 eV
  Atomic forces after filtering:
  | Net force on center of mass :  -0.178406E-15 -0.128229E-15 -0.535218E-15 eV/A
  | Net torque on center of mass:  -0.418938E-15 -0.188817E-15 -0.377634E-15 eV

  Energy and forces in a compact form:
  | Total energy uncorrected      :         -0.880319782798081E+04 eV
  | Total energy corrected        :         -0.880319782798081E+04 eV  <-- do not rely on this value for anything but (periodic) metals
  | Electronic free energy        :         -0.880319782798081E+04 eV
  Total atomic forces (unitary forces cleaned) [eV/Ang]:
  |   1          0.179507744394806E+00          0.593491559808031E+00         -0.152201724325950E+00
  |   2          0.412145261115674E+00          0.516090399947627E-01          0.269929259612155E+00
  |   3         -0.271170084480508E+00         -0.518737852860413E+00          0.827153420676923E+00
  |   4         -0.423703084603102E-01         -0.138334524394216E+00         -0.228697941207674E+00
  |   5          0.191770198004693E+00          0.224629714021740E+00         -0.346038967126784E+00
  |   6          0.766746828017242E-01         -0.479116099653064E+00         -0.621132843364418E-01
  |   7         -0.234001429501946E+00          0.742103611352886E-02          0.561649955152157E-02
  |   8          0.363042697647754E-01         -0.443934656849923E-01          0.114891762728847E+00
  |   9          0.110961167001996E+00          0.163392093245956E+00         -0.967576797462770E-01
  |  10          0.754557217775885E+00          0.651673042453285E+00          0.172223276538726E+01
  |  11          0.905538348952247E+00          0.661930008941170E+00          0.110387353439497E+01
  |  12         -0.122556636582585E+01         -0.112775613276180E+01         -0.164709966827415E+01
  |  13         -0.894350701543187E+00         -0.458084192239937E-01         -0.151078797733441E+01

  ------------------------------------ 
  Start decomposition of the XC Energy 
  ------------------------------------ 
  X and C from original XC functional choice 
  Hartree-Fock Energy :          0.000000000 Ha              0.000000000 eV
  X Energy            :        -41.040013729 Ha          -1116.755593478 eV
  C Energy            :         -1.602566973 Ha            -43.608066081 eV
  Total XC Energy     :        -42.642580702 Ha          -1160.363659559 eV
  ------------------------------------ 
  LDA X and C from self-consistent density 
  X Energy LDA        :        -37.261702260 Ha          -1013.942507308 eV
  C Energy LDA        :         -3.139146854 Ha            -85.420532045 eV
  ------------------------------------ 
  End decomposition of the XC Energy 
  ------------------------------------ 

------------------------------------------------------------

------------------------------------------------------------------------------
  Final output of selected total energy values:

  The following output summarizes some interesting total energy values
  at the end of a run (AFTER all relaxation, molecular dynamics, etc.).

  | Total energy of the DFT / Hartree-Fock s.c.f. calculation      :          -8803.197827981 eV
  | Final zero-broadening corrected energy (caution - metals only) :          -8803.197827981 eV
  | For reference only, the value of 1 Hartree used in FHI-aims is :             27.211384500 eV

  Before relying on these values, please be sure to understand exactly which
  total energy value is referred to by a given number. Different objects may
  all carry the same name 'total energy'. Definitions:

  Total energy of the DFT / Hartree-Fock s.c.f. calculation:
  | Note that this energy does not include ANY quantities calculated after the
  | s.c.f. cycle, in particular not ANY RPA, MP2, etc. many-body perturbation terms.

  Final zero-broadening corrected energy:
  | For metallic systems only, a broadening of the occupation numbers at the Fermi
  | level can be extrapolated back to zero broadening by an electron-gas inspired
  | formula. For all systems that are not real metals, this value can be
  | meaningless and should be avoided.

------------------------------------------------------------------------------
  Methods described in the following list of references were used in this FHI-aims run.
  If you publish the results, please make sure to cite these reference if they apply.
  FHI-aims is an academic code, and for our developers (often, Ph.D. students
  and postdocs), scientific credit in the community is essential.
  Thank you for helping us!

  For any use of FHI-aims, please cite:

    Volker Blum, Ralf Gehrke, Felix Hanke, Paula Havu, Ville Havu,
    Xinguo Ren, Karsten Reuter, and Matthias Scheffler
    'Ab initio molecular simulations with numeric atom-centered orbitals'
    Computer Physics Communications 180, 2175-2196 (2009)
    http://dx.doi.org/10.1016/j.cpc.2009.06.022


  The scalable eigensolver library ELPA was used in your run.
  ELPA is essential especially for large systems on hundreds or thousands of CPUs.
  For ELPA, please cite:

    Andreas Marek, Volker Blum, Rainer Johanni, Ville Havu, Bruno Lang,
    Thomas Auckenthaler, Alexander Heinecke, Hans-Joachim Bungartz, and Hermann Lederer,
    'The ELPA Library - Scalable Parallel Eigenvalue Solutions
    for Electronic Structure Theory and Computational Science'
    The Journal of Physics: Condensed Matter 26, 213201 (2014).
    http://dx.doi.org/10.1088/0953-8984/26/21/213201


  The ELSI infrastructure was used in your run to solve the Kohn-Sham electronic structure.
  Please check out http://elsi-interchange.org to learn more.
  If scalability is important for your project, please acknowledge ELSI by citing:

    V. W-z. Yu, F. Corsetti, A. Garcia, W. P. Huhn, M. Jacquelin, W. Jia,
    B. Lange, L. Lin, J. Lu, W. Mi, A. Seifitokaldani, A. Vazquez-Mayagoitia,
    C. Yang, H. Yang, and V. Blum
    'ELSI: A unified software interface for Kohn-Sham electronic structure solvers'
    Computer Physics Communications 222, 267-285 (2018).
    http://dx.doi.org/10.1016/j.cpc.2017.09.007


  For the real-space grid partitioning and parallelization used in this calculation, please cite:

    Ville Havu, Volker Blum, Paula Havu, and Matthias Scheffler,
    'Efficient O(N) integration for all-electron electronic structure calculation'
    'using numerically tabulated basis functions'
    Journal of Computational Physics 228, 8367-8379 (2009).
    http://dx.doi.org/10.1016/j.jcp.2009.08.008

  Of course, there are many other important community references, e.g., those cited in the
  above references. Our list is limited to references that describe implementations in the
  FHI-aims code. The reason is purely practical (length of this list) - please credit others as well.

------------------------------------------------------------
          Leaving FHI-aims.
          Date     :  20200815, Time     :  005336.851

          Computational steps:
          | Number of self-consistency cycles          :           16
          | Number of SCF (re)initializations          :            1

          Detailed time accounting                     :  max(cpu_time)    wall_clock(cpu1)
          | Total time                                 :       23.362 s          23.504 s
          | Preparation time                           :        0.159 s           0.161 s
          | Boundary condition initalization           :        0.000 s           0.000 s
          | Grid partitioning                          :        0.118 s           0.119 s
          | Preloading free-atom quantities on grid    :        0.002 s           0.003 s
          | Free-atom superposition energy             :        0.086 s           0.086 s
          | Total time for integrations                :        8.887 s           8.935 s
          | Total time for solution of K.-S. equations :        0.039 s           0.043 s
          | Total time for density & force components  :        7.371 s           7.408 s
          | Total time for mixing                      :        0.239 s           0.243 s
          | Total time for Hartree multipole update    :        0.148 s           0.150 s
          | Total time for Hartree multipole sum       :        5.884 s           5.904 s
          | Total time for total energy evaluation     :        0.003 s           0.005 s
          | Total time for vdW correction              :        0.094 s           0.095 s

          Partial memory accounting:
          | Residual value for overall tracked memory usage across tasks :           0.000 MB (should be 0.000 MB)
          | Peak values for overall tracked memory usage (after allocating hessian_basis_wave):
          |   Minimum:        1.612 MB (on task 1)
          |   Maximum:        1.612 MB (on task 1)
          |   Average:        1.612 MB
          | Largest tracked array allocation (hessian_basis_wave):
          |   Minimum:        0.788 MB (on task 1)
          |   Maximum:        0.788 MB (on task 1)
          |   Average:        0.788 MB
          Note:  These values currently only include a subset of arrays which are explicitly tracked.
          The "true" memory usage will be greater.

          Have a nice day.
------------------------------------------------------------
