  MPI-parallelism will be employed.
------------------------------------------------------------
          Invoking FHI-aims ...
          Version 171221_1
          Compiled on 2019/09/09 at 14:39:39 on host puhti-login2.bullx.

          When using FHI-aims, please cite the following reference:

          Volker Blum, Ralf Gehrke, Felix Hanke, Paula Havu,
          Ville Havu, Xinguo Ren, Karsten Reuter, and Matthias Scheffler,
          'Ab Initio Molecular Simulations with Numeric Atom-Centered Orbitals',
          Computer Physics Communications 180, 2175-2196 (2009)

          For any questions about FHI-aims, please visit the aimsclub website
          with its forums and wiki. Contributions to both the forums and the
          wiki are warmly encouraged - they are for you, and everyone is welcome there.

------------------------------------------------------------



  Date     :  20200710, Time     :  143307.562
  Time zero on CPU 1             :   0.107750000000000E-01  s.
  Internal wall clock time zero  :           363623587.562  s.

  FHI-aims created a unique identifier for this run for later identification
  aims_uuid : 6BF716C1-70DA-4DE6-AD77-86A1EF3DE053

  Using        1 parallel tasks.
  Task        0 on host r18c46.bullx reporting.

  Performing system and environment tests:
  | Environment variable OMP_NUM_THREADS correctly set to 1.
  | Stacksize not measured: no C compiler
  | Checking for scalapack...
  | Testing pdtran()...
  | All pdtran() tests passed.

  Obtaining array dimensions for all initial allocations:
  
  -----------------------------------------------------------------------
  Parsing control.in (first pass over file, find array dimensions only).
  The contents of control.in will be repeated verbatim below
  unless switched off by setting 'verbatim_writeout .false.' .
  in the first line of control.in .
  -----------------------------------------------------------------------
  
  #########################################################################################
  #
  #  Volker Blum, FHI 2009 : Test run input file control.in for simple H2O
  #
  #########################################################################################
  #
  #  Physical model
  #
    xc                 pbe
    vdw_correction_hirshfeld
    spin               none
    relativistic       none
    charge             0.
  #
  #  SCF convergence
  #
    occupation_type    gaussian 0.01
    mixer              pulay
      n_max_pulay        10
      charge_mix_param   0.2
    sc_accuracy_rho    1E-5
    sc_accuracy_eev    1E-3
    sc_accuracy_etot   1E-6
    sc_accuracy_forces 1E-4
    sc_iter_limit      100
  #
  #  Relaxation
  #
  #  relax_geometry   bfgs 1.e-3
  #
  ################################################################################
  #
  #  FHI-aims code project
  #  VB, Fritz-Haber Institut, 2009
  #
  #  Suggested "light" defaults for H atom (to be pasted into control.in file)
  #  Be sure to double-check any results obtained with these settings for post-processing,
  #  e.g., with the "tight" defaults and larger basis sets.
  #
  ################################################################################
    species        H
  #     global species definitions
      nucleus             1
      mass                1.00794
  #
      l_hartree           4
  #
      cut_pot             3.5  1.5  1.0
      basis_dep_cutoff    1e-4
  #
      radial_base         24 5.0
      radial_multiplier   1
      angular_grids       specified
        division   0.2421   50
        division   0.3822  110
        division   0.4799  194
        division   0.5341  302
  #      division   0.5626  434
  #      division   0.5922  590
  #      division   0.6542  770
  #      division   0.6868 1202
  #      outer_grid  770
        outer_grid  302
  ################################################################################
  #
  #  Definition of "minimal" basis
  #
  ################################################################################
  #     valence basis states
      valence      1  s   1.
  #     ion occupancy
      ion_occ      1  s   0.5
  ################################################################################
  #
  #  Suggested additional basis functions. For production calculations,
  #  uncomment them one after another (the most important basis functions are
  #  listed first).
  #
  #  Basis constructed for dimers: 0.5 A, 0.7 A, 1.0 A, 1.5 A, 2.5 A
  #
  ################################################################################
  #  "First tier" - improvements: -1014.90 meV to -62.69 meV
       hydro 2 s 2.1
       hydro 2 p 3.5
  #  "Second tier" - improvements: -12.89 meV to -1.83 meV
  #     hydro 1 s 0.85
  #     hydro 2 p 3.7
  #     hydro 2 s 1.2
  #     hydro 3 d 7
  #  "Third tier" - improvements: -0.25 meV to -0.12 meV
  #     hydro 4 f 11.2
  #     hydro 3 p 4.8
  #     hydro 4 d 9
  #     hydro 3 s 3.2
  ################################################################################
  #
  #  FHI-aims code project
  #  VB, Fritz-Haber Institut, 2009
  #
  #  Suggested "light" defaults for C atom (to be pasted into control.in file)
  #  Be sure to double-check any results obtained with these settings for post-processing,
  #  e.g., with the "tight" defaults and larger basis sets.
  #
  ################################################################################
    species        C
  #     global species definitions
      nucleus             6
      mass                12.0107
  #
      l_hartree           4
  #
      cut_pot             3.5  1.5  1.0
      basis_dep_cutoff    1e-4
  #
      radial_base         34 5.0
      radial_multiplier   1
      angular_grids specified
        division   0.3326   50
        division   0.5710  110
        division   0.7727  194
        division   0.8772  302
  #      division   0.9334  434
  #      division   0.9625  590
  #      division   0.9924  770
  #      division   1.0230  974
  #      division   1.4589 1202
  #     outer_grid  974
       outer_grid 302
  ################################################################################
  #
  #  Definition of "minimal" basis
  #
  ################################################################################
  #     valence basis states
      valence      2  s   2.
      valence      2  p   2.
  #     ion occupancy
      ion_occ      2  s   1.
      ion_occ      2  p   1.
  ################################################################################
  #
  #  Suggested additional basis functions. For production calculations,
  #  uncomment them one after another (the most important basis functions are
  #  listed first).
  #
  #  Constructed for dimers: 1.0 A, 1.25 A, 1.5 A, 2.0 A, 3.0 A
  #
  ################################################################################
  #  "First tier" - improvements: -1214.57 meV to -155.61 meV
       hydro 2 p 1.7
       hydro 3 d 6
       hydro 2 s 4.9
  #  "Second tier" - improvements: -67.75 meV to -5.23 meV
  #     hydro 4 f 9.8
  #     hydro 3 p 5.2
  #     hydro 3 s 4.3
  #     hydro 5 g 14.4
  #     hydro 3 d 6.2
  #  "Third tier" - improvements: -2.43 meV to -0.60 meV
  #     hydro 2 p 5.6
  #     hydro 2 s 1.4
  #     hydro 3 d 4.9
  #     hydro 4 f 11.2
  #  "Fourth tier" - improvements: -0.39 meV to -0.18 meV
  #     hydro 2 p 2.1
  #     hydro 5 g 16.4
  #     hydro 4 d 13.2
  #     hydro 3 s 13.6
  #     hydro 4 f 17.6
  #  Further basis functions - improvements: -0.08 meV and below
  #     hydro 3 s 2
  #     hydro 3 p 6
  #     hydro 4 d 20
  ################################################################################
  #
  #  FHI-aims code project
  #  VB, Fritz-Haber Institut, 2009
  #
  #  Suggested "light" defaults for N atom (to be pasted into control.in file)
  #  Be sure to double-check any results obtained with these settings for post-processing,
  #  e.g., with the "tight" defaults and larger basis sets.
  #
  ################################################################################
    species        N
  #     global species definitions
      nucleus             7
      mass                14.0067
  #
      l_hartree           4
  #
      cut_pot             3.5  1.5  1.0
      basis_dep_cutoff    1e-4
  #
      radial_base         35 5.0
      radial_multiplier   1
      angular_grids       specified
        division   0.2599   50
        division   0.4601  110
        division   0.5885  194
        division   0.6503  302
  #      division   0.6939  434
  #      division   0.7396  590
  #      division   0.7632  770
  #      division   0.8122  974
  #      division   1.1604 1202
  #      outer_grid  974
        outer_grid  302
  ################################################################################
  #
  #  Definition of "minimal" basis
  #
  ################################################################################
  #     valence basis states
      valence      2  s   2.
      valence      2  p   3.
  #     ion occupancy
      ion_occ      2  s   1.
      ion_occ      2  p   2.
  ################################################################################
  #
  #  Suggested additional basis functions. For production calculations,
  #  uncomment them one after another (the most important basis functions are
  #  listed first).
  #
  #  Constructed for dimers: 1.0 A, 1.1 A, 1.5 A, 2.0 A, 3.0 A
  #
  ################################################################################
  #  "First tier" - improvements: -1193.42 meV to -220.60 meV
       hydro 2 p 1.8
       hydro 3 d 6.8
       hydro 3 s 5.8
  #  "Second tier" - improvements: -80.21 meV to -6.86 meV
  #     hydro 4 f 10.8
  #     hydro 3 p 5.8
  #     hydro 1 s 0.8
  #     hydro 5 g 16
  #     hydro 3 d 4.9
  #  "Third tier" - improvements: -4.29 meV to -0.53 meV
  #     hydro 3 s 16
  #     ionic 2 p auto
  #     hydro 3 d 6.6
  #     hydro 4 f 11.6
  #  "Fourth tier" - improvements: -0.75 meV to -0.25 meV
  #     hydro 2 p 4.5
  #     hydro 2 s 2.4
  #     hydro 5 g 14.4
  #     hydro 4 d 14.4
  #     hydro 4 f 16.8
  # Further basis functions - -0.21 meV and below
  #     hydro 3 p 14.8
  #     hydro 3 s 4.4
  #     hydro 3 d 19.6
  #     hydro 5 g 12.8
  ################################################################################
  #
  #  FHI-aims code project
  #  VB, Fritz-Haber Institut, 2009
  #
  #  Suggested "light" defaults for O atom (to be pasted into control.in file)
  #  Be sure to double-check any results obtained with these settings for post-processing,
  #  e.g., with the "tight" defaults and larger basis sets.
  #
  ################################################################################
    species        O
  #     global species definitions
      nucleus             8
      mass                15.9994
  #
      l_hartree           4
  #
      cut_pot             3.5  1.5  1.0
      basis_dep_cutoff    1e-4
  #
      radial_base         36 5.0
      radial_multiplier   1
       angular_grids specified
        division   0.2659   50
        division   0.4451  110
        division   0.6052  194
        division   0.7543  302
  #      division   0.8014  434
  #      division   0.8507  590
  #      division   0.8762  770
  #      division   0.9023  974
  #      division   1.2339 1202
  #      outer_grid 974
        outer_grid 302
  ################################################################################
  #
  #  Definition of "minimal" basis
  #
  ################################################################################
  #     valence basis states
      valence      2  s   2.
      valence      2  p   4.
  #     ion occupancy
      ion_occ      2  s   1.
      ion_occ      2  p   3.
  ################################################################################
  #
  #  Suggested additional basis functions. For production calculations,
  #  uncomment them one after another (the most important basis functions are
  #  listed first).
  #
  #  Constructed for dimers: 1.0 A, 1.208 A, 1.5 A, 2.0 A, 3.0 A
  #
  ################################################################################
  #  "First tier" - improvements: -699.05 meV to -159.38 meV
       hydro 2 p 1.8
       hydro 3 d 7.6
       hydro 3 s 6.4
  #  "Second tier" - improvements: -49.91 meV to -5.39 meV
  #     hydro 4 f 11.6
  #     hydro 3 p 6.2
  #     hydro 3 d 5.6
  #     hydro 5 g 17.6
  #     hydro 1 s 0.75
  #  "Third tier" - improvements: -2.83 meV to -0.50 meV
  #     ionic 2 p auto
  #     hydro 4 f 10.8
  #     hydro 4 d 4.7
  #     hydro 2 s 6.8
  #  "Fourth tier" - improvements: -0.40 meV to -0.12 meV
  #     hydro 3 p 5
  #     hydro 3 s 3.3
  #     hydro 5 g 15.6
  #     hydro 4 f 17.6
  #     hydro 4 d 14
  # Further basis functions - -0.08 meV and below
  #     hydro 3 s 2.1
  #     hydro 4 d 11.6
  #     hydro 3 p 16
  #     hydro 2 s 17.2
  
  -----------------------------------------------------------------------
  Completed first pass over input file control.in .
  -----------------------------------------------------------------------
  
  
  -----------------------------------------------------------------------
  Parsing geometry.in (first pass over file, find array dimensions only).
  The contents of geometry.in will be repeated verbatim below
  unless switched off by setting 'verbatim_writeout .false.' .
  in the first line of geometry.in .
  -----------------------------------------------------------------------
  
  atom  0.00000 0.00000 0.00000 C
  atom  1.09300 0.00000 0.00000 H
  atom  -0.47961 0.00000 -1.41207 N
  atom  0.27787 -0.32372 -2.01478 H
  atom  -1.27944 -0.62528 -1.48561 H
  atom  -0.49584 1.26211 0.72868 C
  atom  -1.58789 1.28919 0.74431 H
  atom  -0.13407 1.27425 1.75947 H
  atom  -0.13407 2.16087 0.22380 H
  atom  -0.39425 -1.28861 0.74398 C
  atom  -0.10189 -1.56493 1.88303 O
  atom  -1.10210 -2.13717 0.06896 O
  atom  -1.27899 -2.77348 0.78226 H
  
  -----------------------------------------------------------------------
  Completed first pass over input file geometry.in .
  -----------------------------------------------------------------------
  

  Basic array size parameters:
  | Number of species                 :        4
  | Number of atoms                   :       13
  | Max. basis fn. angular momentum   :        2
  | Max. atomic/ionic basis occupied n:        2
  | Max. number of basis fn. types    :        2
  | Max. radial fns per species/type  :        3
  | Max. logarithmic grid size        :     1301
  | Max. radial integration grid size :       36
  | Max. angular integration grid size:      302
  | Max. angular grid division number :        8
  | Radial grid for Hartree potential :     1301
  | Number of spin channels           :        1

------------------------------------------------------------
          Reading file control.in.
------------------------------------------------------------
  XC: Using PBE gradient-corrected functionals.
  Spin treatment: No spin polarisation.
  Non-relativistic treatment of kinetic energy.
  Charge =   0.000000E+00: Neutral system requested explicitly.
  Occupation type: Gaussian broadening, width =   0.100000E-01 eV.
  Using pulay charge density mixing.
  Pulay mixing - number of memorized iterations:   10
  Charge density mixing - mixing parameter:     0.2000
  Convergence accuracy of self-consistent charge density:  0.1000E-04
  Convergence accuracy of sum of eigenvalues:  0.1000E-02
  Convergence accuracy of total energy:  0.1000E-05
  Convergence accuracy of forces:  0.1000E-03
  Maximum number of s.-c. iterations  :   100
 
  Reading configuration options for species H                   .
  | Found nuclear charge :   1.0000
  | Found atomic mass :    1.00794000000000      amu
  | Found l_max for Hartree potential  :   4
  | Found cutoff potl. onset [A], width [A], scale factor :    3.50000    1.50000    1.00000
  | Threshold for basis-dependent cutoff potential is   0.100000E-03
  | Found data for basic radial integration grid :    24 points, outermost radius =    5.000 A
  | Found multiplier for basic radial grid :   1
  | Found angular grid specification: user-specified.
  | Specified grid contains     5 separate shells.
  | Check grid settings after all constraints further below.
  | Found free-atom valence shell :  1 s   1.000
  | No ionic wave fns used. Skipping ion_occ.
  | Found hydrogenic basis function :  2 s   2.100
  | Found hydrogenic basis function :  2 p   3.500
  Species H                   : Missing cutoff potential type.
  Defaulting to exp(1/x)/(1-x)^2 type cutoff potential.
  Species H : No 'logarithmic' tag. Using default grid for free atom:
  | Default logarithmic grid data [bohr] : 0.1000E-03 0.1000E+03 0.1012E+01
  Species H : On-site basis accuracy parameter (for Gram-Schmidt orthonormalisation) not specified.
  Using default value basis_acc =  0.1000000E-03.
  Species H                   : Using default innermost maximum threshold i_radial=  2 for radial functions.
  Species H                   : Default cutoff onset for free atom density etc. : 0.35000000E+01 AA.
  Species H                   : Basic radial grid will be enhanced according to radial_multiplier =   1, to contain    24 grid points.
 
  Reading configuration options for species C                   .
  | Found nuclear charge :   6.0000
  | Found atomic mass :    12.0107000000000      amu
  | Found l_max for Hartree potential  :   4
  | Found cutoff potl. onset [A], width [A], scale factor :    3.50000    1.50000    1.00000
  | Threshold for basis-dependent cutoff potential is   0.100000E-03
  | Found data for basic radial integration grid :    34 points, outermost radius =    5.000 A
  | Found multiplier for basic radial grid :   1
  | Found angular grid specification: user-specified.
  | Specified grid contains     5 separate shells.
  | Check grid settings after all constraints further below.
  | Found free-atom valence shell :  2 s   2.000
  | Found free-atom valence shell :  2 p   2.000
  | No ionic wave fns used. Skipping ion_occ.
  | No ionic wave fns used. Skipping ion_occ.
  | Found hydrogenic basis function :  2 p   1.700
  | Found hydrogenic basis function :  3 d   6.000
  | Found hydrogenic basis function :  2 s   4.900
  Species C                   : Missing cutoff potential type.
  Defaulting to exp(1/x)/(1-x)^2 type cutoff potential.
  Species C : No 'logarithmic' tag. Using default grid for free atom:
  | Default logarithmic grid data [bohr] : 0.1000E-03 0.1000E+03 0.1012E+01
  Species C : On-site basis accuracy parameter (for Gram-Schmidt orthonormalisation) not specified.
  Using default value basis_acc =  0.1000000E-03.
  Species C                   : Using default innermost maximum threshold i_radial=  2 for radial functions.
  Species C                   : Default cutoff onset for free atom density etc. : 0.35000000E+01 AA.
  Species C                   : Basic radial grid will be enhanced according to radial_multiplier =   1, to contain    34 grid points.
 
  Reading configuration options for species N                   .
  | Found nuclear charge :   7.0000
  | Found atomic mass :    14.0067000000000      amu
  | Found l_max for Hartree potential  :   4
  | Found cutoff potl. onset [A], width [A], scale factor :    3.50000    1.50000    1.00000
  | Threshold for basis-dependent cutoff potential is   0.100000E-03
  | Found data for basic radial integration grid :    35 points, outermost radius =    5.000 A
  | Found multiplier for basic radial grid :   1
  | Found angular grid specification: user-specified.
  | Specified grid contains     5 separate shells.
  | Check grid settings after all constraints further below.
  | Found free-atom valence shell :  2 s   2.000
  | Found free-atom valence shell :  2 p   3.000
  | No ionic wave fns used. Skipping ion_occ.
  | No ionic wave fns used. Skipping ion_occ.
  | Found hydrogenic basis function :  2 p   1.800
  | Found hydrogenic basis function :  3 d   6.800
  | Found hydrogenic basis function :  3 s   5.800
  Species N                   : Missing cutoff potential type.
  Defaulting to exp(1/x)/(1-x)^2 type cutoff potential.
  Species N : No 'logarithmic' tag. Using default grid for free atom:
  | Default logarithmic grid data [bohr] : 0.1000E-03 0.1000E+03 0.1012E+01
  Species N : On-site basis accuracy parameter (for Gram-Schmidt orthonormalisation) not specified.
  Using default value basis_acc =  0.1000000E-03.
  Species N                   : Using default innermost maximum threshold i_radial=  2 for radial functions.
  Species N                   : Default cutoff onset for free atom density etc. : 0.35000000E+01 AA.
  Species N                   : Basic radial grid will be enhanced according to radial_multiplier =   1, to contain    35 grid points.
 
  Reading configuration options for species O                   .
  | Found nuclear charge :   8.0000
  | Found atomic mass :    15.9994000000000      amu
  | Found l_max for Hartree potential  :   4
  | Found cutoff potl. onset [A], width [A], scale factor :    3.50000    1.50000    1.00000
  | Threshold for basis-dependent cutoff potential is   0.100000E-03
  | Found data for basic radial integration grid :    36 points, outermost radius =    5.000 A
  | Found multiplier for basic radial grid :   1
  | Found angular grid specification: user-specified.
  | Specified grid contains     5 separate shells.
  | Check grid settings after all constraints further below.
  | Found free-atom valence shell :  2 s   2.000
  | Found free-atom valence shell :  2 p   4.000
  | No ionic wave fns used. Skipping ion_occ.
  | No ionic wave fns used. Skipping ion_occ.
  | Found hydrogenic basis function :  2 p   1.800
  | Found hydrogenic basis function :  3 d   7.600
  | Found hydrogenic basis function :  3 s   6.400
  Species O                   : Missing cutoff potential type.
  Defaulting to exp(1/x)/(1-x)^2 type cutoff potential.
  Species O : No 'logarithmic' tag. Using default grid for free atom:
  | Default logarithmic grid data [bohr] : 0.1000E-03 0.1000E+03 0.1012E+01
  Species O : On-site basis accuracy parameter (for Gram-Schmidt orthonormalisation) not specified.
  Using default value basis_acc =  0.1000000E-03.
  Species O                   : Using default innermost maximum threshold i_radial=  2 for radial functions.
  Species O                   : Default cutoff onset for free atom density etc. : 0.35000000E+01 AA.
  Species O                   : Basic radial grid will be enhanced according to radial_multiplier =   1, to contain    36 grid points.
 
  Finished reading input file 'control.in'. Consistency checks are next.
 
  MPI_IN_PLACE appears to work with this MPI implementation.
  | Keeping use_mpi_in_place .true. (see manual).
  Target number of points in a grid batch is not set. Defaulting to  100
  Method for grid partitioning is not set. Defaulting to parallel hash+maxmin partitioning.
  Batch size limit is not set. Defaulting to    200
  By default, will store active basis functions for each batch.
  If in need of memory, prune_basis_once .false. can be used to disable this option.
  communication_type for Hartree potential was not specified.
  Defaulting to calc_hartree .
  Pulay mixer: Number of initial linear mixing iterations not set.
  Defaulting to    0 iterations.
  Work space size for distributed Hartree potential not set.
  Defaulting to   0.200000E+03 MB.
  Algorithm-dependent basis array size parameters:
  | n_max_pulay                         :       10
  Presetting      1001 iterations before the initial mixing cycle
  is restarted anyway using the sc_init_iter criterion / keyword.
  Presetting a factor      1.000 between actual scf density residual
  and density convergence criterion sc_accuracy_rho below which sc_init_iter
  takes no effect.
  Geometry relaxation not requested: no relaxation will be performed.
  Handling of forces: Unphysical translation and rotation will be removed from forces.
  No accuracy limit for integral partition fn. given. Defaulting to  0.1000E-14.
  No threshold value for u(r) in integrations given. Defaulting to  0.1000E-05.
  No accuracy for occupation numbers given. Defaulting to  0.1000E-12.
  No threshold value for occupation numbers given. Defaulting to  0.0000E+00.
  No accuracy for fermi level given. Defaulting to  0.1000E-19.
  Maximum # of iterations to find E_F not set. Defaulting to  200.
  Preferred method for the eigenvalue solver ('KS_method') not specified in 'control.in'.
  Defaulting to serial version, 'lapack_fast'.
  Will not use alltoall communication since running on < 1024 CPUs.
  Threshold for basis singularities not set.
  Default threshold for basis singularities:  0.1000E-04
  partition_type (choice of integration weights) for integrals was not specified.
  | Using a version of the partition function of Stratmann and coworkers ('stratmann_smoother').
  | At each grid point, the set of atoms used to build the partition table is smoothly restricted to
  | only those atoms whose free-atom density would be non-zero at that grid point.
  Partitioning for Hartree potential was not defined. Using partition_type for integrals.
  | Adjusted default value of keyword multip_moments_threshold to:       0.10000000E-11
  | This value may affect high angular momentum components of the Hartree potential in periodic systems.
  No q(lm)/r^(l+1) cutoff set for long-range Hartree potential.
  | Using default value of  0.100000E-09 .
  | Verify using the multipole_threshold keyword.
  Defaulting to new monopole extrapolation.
  Density update method: automatic selection selected.
------------------------------------------------------------


------------------------------------------------------------
          Reading geometry description geometry.in.
------------------------------------------------------------
  Input structure read successfully.
  The structure contains       13 atoms,  and a total of         48.000 electrons.

  Input geometry:
  | No unit cell requested.
  | Atomic structure:
  |       Atom                x [A]            y [A]            z [A]
  |    1: Species C             0.00000000        0.00000000        0.00000000
  |    2: Species H             1.09300000        0.00000000        0.00000000
  |    3: Species N            -0.47961000        0.00000000       -1.41207000
  |    4: Species H             0.27787000       -0.32372000       -2.01478000
  |    5: Species H            -1.27944000       -0.62528000       -1.48561000
  |    6: Species C            -0.49584000        1.26211000        0.72868000
  |    7: Species H            -1.58789000        1.28919000        0.74431000
  |    8: Species H            -0.13407000        1.27425000        1.75947000
  |    9: Species H            -0.13407000        2.16087000        0.22380000
  |   10: Species C            -0.39425000       -1.28861000        0.74398000
  |   11: Species O            -0.10189000       -1.56493000        1.88303000
  |   12: Species O            -1.10210000       -2.13717000        0.06896000
  |   13: Species H            -1.27899000       -2.77348000        0.78226000
  |

  | The smallest distance between any two atoms is         0.97209947 AA.
  |
  | The first atom of this pair is atom number                     12 .
  | The second atom of this pair is atom number                    13 .

  Number of empty states per atom not set in control.in - providing a guess from actual geometry.
  | Total number of empty states used during s.c.f. cycle:       29
  If you use a very high smearing, use empty_states (per atom!) in control.in to increase this value.

  Structure-dependent array size parameters: 
  | Maximum number of distinct radial functions  :       21
  | Maximum number of basis functions            :      119
  | Number of Kohn-Sham states (occupied + empty):       53
------------------------------------------------------------

------------------------------------------------------------
          Preparing all fixed parts of the calculation.
------------------------------------------------------------
  Determining machine precision:
    2.225073858507201E-308
  Setting up grids for atomic and cluster calculations.

  Creating wave function, potential, and density for free atoms.

  Species: H

  List of occupied orbitals and eigenvalues:
    n    l              occ      energy [Ha]    energy [eV]
    1    0           1.0000        -0.237589        -6.4651


  Species: C

  List of occupied orbitals and eigenvalues:
    n    l              occ      energy [Ha]    energy [eV]
    1    0           2.0000       -10.038835      -273.1706
    2    0           2.0000        -0.502696       -13.6791
    2    1           2.0000        -0.191971        -5.2238


  Species: N

  List of occupied orbitals and eigenvalues:
    n    l              occ      energy [Ha]    energy [eV]
    1    0           2.0000       -14.128000      -384.4424
    2    0           2.0000        -0.681077       -18.5330
    2    1           3.0000        -0.259788        -7.0692


  Species: O

  List of occupied orbitals and eigenvalues:
    n    l              occ      energy [Ha]    energy [eV]
    1    0           2.0000       -18.898188      -514.2459
    2    0           2.0000        -0.878505       -23.9053
    2    1           4.0000        -0.331779        -9.0282

  Creating fixed part of basis set: Ionic, confined, hydrogenic.
 
  H                    hydrogenic:
 
  List of hydrogenic basis orbitals: 
    n    l      effective z      eigenvalue [eV]  inner max. [A]     outer max. [A]     outer radius [A]   
    2    0         2.100000       -14.9728           0.193243           1.317208           4.583499
    2    1         3.500000       -41.6669           0.602369           0.602369           3.723403
 
 
  C                    hydrogenic:
 
  List of hydrogenic basis orbitals: 
    n    l      effective z      eigenvalue [eV]  inner max. [A]     outer max. [A]     outer radius [A]   
    2    1         1.700000        -9.7616           1.230570           1.230570           4.607917
    3    2         6.000000       -54.4224           0.792453           0.792453           3.883070
    2    0         4.900000       -81.6679           0.082559           0.562749           3.078220
 
 
  N                    hydrogenic:
 
  List of hydrogenic basis orbitals: 
    n    l      effective z      eigenvalue [eV]  inner max. [A]     outer max. [A]     outer radius [A]   
    2    1         1.800000       -10.9749           1.177451           1.177451           4.573712
    3    2         6.800000       -69.9026           0.704619           0.704619           3.538137
    3    0         5.800000       -50.8545           0.067388           1.191934           4.250239
 
 
  O                    hydrogenic:
 
  List of hydrogenic basis orbitals: 
    n    l      effective z      eigenvalue [eV]  inner max. [A]     outer max. [A]     outer radius [A]   
    2    1         1.800000       -10.9749           1.164242           1.164242           4.578029
    3    2         7.600000       -87.3180           0.624125           0.624125           3.251020
    3    0         6.400000       -61.9207           0.061167           1.081902           4.001998
 

  Adding cutoff potential to free-atom effective potential.
  Creating atomic-like basis functions for current effective potential.

  Species H                   :

  List of atomic basis orbitals and eigenvalues:
    n    l      energy [Ha]    energy [eV]    outer radius [A]
    1    0        -0.237589        -6.4651       4.527807


  Species C                   :

  List of atomic basis orbitals and eigenvalues:
    n    l      energy [Ha]    energy [eV]    outer radius [A]
    1    0       -10.038835      -273.1706       1.934409
    2    0        -0.502696       -13.6791       4.496620
    2    1        -0.191971        -5.2238       4.551928


  Species N                   :

  List of atomic basis orbitals and eigenvalues:
    n    l      energy [Ha]    energy [eV]    outer radius [A]
    1    0       -14.128000      -384.4424       1.637919
    2    0        -0.681077       -18.5330       4.463241
    2    1        -0.259788        -7.0692       4.518138


  Species O                   :

  List of atomic basis orbitals and eigenvalues:
    n    l      energy [Ha]    energy [eV]    outer radius [A]
    1    0       -18.898188      -514.2459       1.415765
    2    0        -0.878505       -23.9053       4.413171
    2    1        -0.331779        -9.0282       4.522403

  Assembling full basis from fixed parts.
  | Species H :   atomic orbital   1 s accepted.
  | Species H :    hydro orbital   2 s accepted.
  | Species H :    hydro orbital   2 p accepted.
  | Species C :   atomic orbital   1 s accepted.
  | Species C :    hydro orbital   2 s accepted.
  | Species C :   atomic orbital   2 s accepted.
  | Species C :   atomic orbital   2 p accepted.
  | Species C :    hydro orbital   2 p accepted.
  | Species C :    hydro orbital   3 d accepted.
  | Species N :   atomic orbital   1 s accepted.
  | Species N :    hydro orbital   3 s accepted.
  | Species N :   atomic orbital   2 s accepted.
  | Species N :   atomic orbital   2 p accepted.
  | Species N :    hydro orbital   2 p accepted.
  | Species N :    hydro orbital   3 d accepted.
  | Species O :   atomic orbital   1 s accepted.
  | Species O :    hydro orbital   3 s accepted.
  | Species O :   atomic orbital   2 s accepted.
  | Species O :   atomic orbital   2 p accepted.
  | Species O :    hydro orbital   2 p accepted.
  | Species O :    hydro orbital   3 d accepted.
 
  Basis size parameters after reduction:
  | Total number of radial functions:       21
  | Total number of basis functions :      119
 
  Per-task memory consumption for arrays in subroutine allocate_ext:
  |           5.250512MB.
  Testing on-site integration grid accuracy.
  |  Species  Function  <phi|h_atom|phi> (log., in eV)  <phi|h_atom|phi> (rad., in eV)
           1        1                 -6.4663192853                 -6.4651273558
           1        2                 13.7111246313                 13.7170609718
           1        3                 25.2673269279                 25.2674696378
           2        4               -273.1705927641               -273.1705631568
           2        5                -10.7109323383                -10.7107120029
           2        6                 17.4381822266                 17.4352413244
           2        7                 -5.2255326521                 -5.2270484734
           2        8                  8.6835629259                  8.6603288385
           2        9                 27.4952418996                 27.4953360207
           3       10               -384.4424306495               -384.4423701208
           3       11                 12.5842251816                 12.5842222903
           3       12                -15.7264628251                -15.7264433455
           3       13                 -7.0696854293                 -7.0701769954
           3       14                  8.8090390882                  8.7901077751
           3       15                 35.9586762123                 35.9588528632
           4       16               -514.2458688638               -514.2457643834
           4       17                 15.1795651126                 15.1795290741
           4       18                -21.5359799773                -21.5360846186
           4       19                 -9.0283069236                 -9.0284644067
           4       20                  8.3027758564                  8.2834874195
           4       21                 45.8339351984                 45.8338762259

  Preparing densities etc. for the partition functions (integrals / Hartree potential).

  Preparations completed.
  max(cpu_time)          :      0.145 s.
  Wall clock time (cpu1) :      0.145 s.
------------------------------------------------------------

------------------------------------------------------------
          Begin self-consistency loop: Initialization.

          Date     :  20200710, Time     :  143307.721
------------------------------------------------------------

  Initializing index lists of integration centers etc. from given atomic structure:
  | Number of centers in hartree potential         :        13
  | Number of centers in hartree multipole         :        13
  | Number of centers in electron density summation:        13
  | Number of centers in basis integrals           :        13
  | Number of centers in integrals                 :        13
  | Number of centers in hamiltonian               :        13
  Partitioning the integration grid into batches with parallel hashing+maxmin method.
  | Number of batches:      957
  | Maximal batch size:     139
  | Minimal batch size:      66
  | Average batch size:      72.775
  | Standard deviation of batch sizes:      17.414

  Integration load balanced across     1 MPI tasks.
  Work distribution over tasks is as follows:
  Task     0 has      69646 integration points.
  Initializing partition tables, free-atom densities, potentials, etc. across the integration grid (initialize_grid_storage).
  | initialize_grid_storage: Actual outermost partition radius vs. multipole_radius_free
  | (-- VB: in principle, multipole_radius_free should be larger, hence this output)
  | Species        1: Confinement radius =              4.999999999999999 AA, multipole_radius_free =              5.054417573612229 AA.
  | Species        1: outer_partition_radius set to              5.054417573612229 AA .
  | Species        2: Confinement radius =              4.999999999999999 AA, multipole_radius_free =              5.019602836301480 AA.
  | Species        2: outer_partition_radius set to              5.019602836301480 AA .
  | Species        3: Confinement radius =              4.999999999999999 AA, multipole_radius_free =              5.043624274424571 AA.
  | Species        3: outer_partition_radius set to              5.043624274424571 AA .
  | Species        4: Confinement radius =              4.999999999999999 AA, multipole_radius_free =              5.048384829883283 AA.
  | Species        4: outer_partition_radius set to              5.048384829883283 AA .
  | Original list of interatomic distances with          13 x         13 entries is created.
  | Net number of integration points:    69646
  | of which are non-zero points    :    59676
  Renormalizing the initial density to the exact electron count on the 3D integration grid.
  | Initial density: Formal number of electrons (from input files) :      48.0000000000
  | Integrated number of electrons on 3D grid     :      47.9998972799
  | Charge integration error                      :      -0.0001027201
  | Normalization factor for density and gradient :       1.0000021400
  Obtaining max. number of non-zero basis functions in each batch (get_n_compute_maxes).
  | Maximal number of non-zero basis functions:      119 in task     0
  Selecting the method for density update.
  Loop over occupied states selected for charge density update.
  Allocating        0.050 MB for KS_eigenvector
  Integrating Hamiltonian matrix: batch-based integration.
  Time summed over all CPUs for integration: real work        0.491 s, elapsed        0.491 s
  Integrating overlap matrix.
  Time summed over all CPUs for integration: real work        0.210 s, elapsed        0.210 s

  Updating Kohn-Sham eigenvalues and eigenvectors using ELSI and the ELPA eigensolver.
  Overlap matrix is nonsingular
  | Lowest eigenvalue of overlap  :  0.48E-02
  | Highest eigenvalue of overlap :  0.61E+01
  Finished singularity check of overlap matrix
  | Time :     0.001 s
  Finished Cholesky decomposition
  | Time :     0.000 s
  Finished transformation to standard eigenproblem
  | Time :     0.000 s
  Starting LAPACK eigensolver
  Finished solving standard eigenproblem
  | Time :     0.002 s
  Finished back-transformation of eigenvectors
  | Time :     0.000 s

  Obtaining occupation numbers and chemical potential using ELSI.
  | Chemical potential (Fermi level):    -9.73965146eV
  Writing Kohn-Sham eigenvalues.

  State    Occupation    Eigenvalue [Ha]    Eigenvalue [eV]
      1       2.00000         -19.008226         -517.24014
      2       2.00000         -18.978361         -516.42748
      3       2.00000         -14.245790         -387.64766
      4       2.00000         -10.166590         -276.64699
      5       2.00000         -10.141236         -275.95708
      6       2.00000         -10.132127         -275.70920
      7       2.00000          -1.188879          -32.35103
      8       2.00000          -1.093401          -29.75297
      9       2.00000          -0.991128          -26.96996
     10       2.00000          -0.861750          -23.44941
     11       2.00000          -0.758520          -20.64038
     12       2.00000          -0.683717          -18.60490
     13       2.00000          -0.621140          -16.90209
     14       2.00000          -0.609812          -16.59382
     15       2.00000          -0.593496          -16.14985
     16       2.00000          -0.556440          -15.14150
     17       2.00000          -0.548107          -14.91476
     18       2.00000          -0.528320          -14.37633
     19       2.00000          -0.516601          -14.05742
     20       2.00000          -0.503035          -13.68828
     21       2.00000          -0.473322          -12.87975
     22       2.00000          -0.429372          -11.68380
     23       2.00000          -0.418462          -11.38694
     24       2.00000          -0.382532          -10.40923
     25       0.00000          -0.148630           -4.04442
     26       0.00000          -0.058042           -1.57940
     27       0.00000          -0.027684           -0.75331
     28       0.00000          -0.021324           -0.58025
     29       0.00000           0.003831            0.10426
     30       0.00000           0.010779            0.29332
     31       0.00000           0.022935            0.62410
     32       0.00000           0.026904            0.73210
     33       0.00000           0.041725            1.13539
     34       0.00000           0.068180            1.85528
     35       0.00000           0.085834            2.33565
     36       0.00000           0.133582            3.63494
     37       0.00000           0.150895            4.10606
     38       0.00000           0.194373            5.28917
     39       0.00000           0.214751            5.84368
     40       0.00000           0.221896            6.03809
     41       0.00000           0.264570            7.19930
     42       0.00000           0.278272            7.57217
     43       0.00000           0.292522            7.95992
     44       0.00000           0.310138            8.43929
     45       0.00000           0.338639            9.21483
     46       0.00000           0.349793            9.51836
     47       0.00000           0.367335            9.99570
     48       0.00000           0.411791           11.20540
     49       0.00000           0.444957           12.10790
     50       0.00000           0.479163           13.03869
     51       0.00000           0.490837           13.35636
     52       0.00000           0.521989           14.20405
     53       0.00000           0.559302           15.21939

  Highest occupied state (VBM) at    -10.40922973 eV
  | Occupation number:      2.00000000

  Lowest unoccupied state (CBM) at    -4.04441509 eV
  | Occupation number:      0.00000000

  Overall HOMO-LUMO gap:      6.36481464 eV.
  Calculating total energy contributions from superposition of free atom densities.

  Total energy components:
  | Sum of eigenvalues            :        -188.86073048 Ha       -5139.16195417 eV
  | XC energy correction          :         -41.78935609 Ha       -1137.14623660 eV
  | XC potential correction       :          53.72082542 Ha        1461.81803620 eV
  | Free-atom electrostatic energy:        -146.84608366 Ha       -3995.88524482 eV
  | Hartree energy correction     :           0.00000000 Ha           0.00000000 eV
  | vdW energy correction         :           0.00000000 Ha           0.00000000 eV
  | Entropy correction            :           0.00000000 Ha           0.00000000 eV
  | ---------------------------
  | Total energy                  :        -323.77534482 Ha       -8810.37539939 eV
  | Total energy, T -> 0          :        -323.77534482 Ha       -8810.37539939 eV  <-- do not rely on this value for anything but (periodic) metals
  | Electronic free energy        :        -323.77534482 Ha       -8810.37539939 eV

  Derived energy quantities:
  | Kinetic energy                :         320.48366704 Ha        8720.80428989 eV
  | Electrostatic energy          :        -602.46965577 Ha      -16394.03345268 eV
  | Energy correction for multipole
  | error in Hartree potential    :           0.00000000 Ha           0.00000000 eV
  | Sum of eigenvalues per atom                           :        -395.32015032 eV
  | Total energy (T->0) per atom                          :        -677.72118457 eV  <-- do not rely on this value for anything but (periodic) metals
  | Electronic free energy per atom                       :        -677.72118457 eV
  Initialize hartree_potential_storage
  Max. number of atoms included in rho_multipole:           13

  End scf initialization - timings             :  max(cpu_time)    wall_clock(cpu1)
  | Time for scf. initialization               :        1.143 s           1.150 s
  | Boundary condition initialization          :        0.000 s           0.000 s
  | Integration                                :        0.701 s           0.702 s
  | Solution of K.-S. eqns.                    :        0.004 s           0.004 s
  | Grid partitioning                          :        0.111 s           0.111 s
  | Preloading free-atom quantities on grid    :        0.002 s           0.003 s
  | Free-atom superposition energy             :        0.085 s           0.085 s
  | Total energy evaluation                    :        0.000 s           0.000 s

  Partial memory accounting:
  | Current value for overall tracked memory usage on task 0  :           0.165 MB
  | Peak value for overall tracked memory usage on task 0     :           0.678 MB after allocating wave
  | Largest tracked array allocation on task 0 so far         :           0.132 MB  when allocating H_times_psi
  Note:  These values currently only include a subset of arrays which are explicitly tracked.
  The "true" memory usage will be greater.
------------------------------------------------------------

------------------------------------------------------------
          Begin self-consistency iteration #    1

  Date     :  20200710, Time     :  143308.871
------------------------------------------------------------
  Evaluating new KS density.
  Integration grid: deviation in total charge (<rho> - N_e) =  -3.552714E-14
  Pulay mixing of updated and previous charge densities.

  Evaluating partitioned Hartree potential by multipole expansion.
  | Analytical far-field extrapolation by fixed multipoles:
  | Hartree multipole sum: apparent total charge =  -0.212367E-03
  Summing up the Hartree potential.
  Time summed over all CPUs for potential: real work        0.285 s, elapsed        0.285 s
  | RMS charge density error from multipole expansion :   0.593150E-02

  Integrating Hamiltonian matrix: batch-based integration.
  Time summed over all CPUs for integration: real work        0.490 s, elapsed        0.490 s

  Updating Kohn-Sham eigenvalues and eigenvectors using ELSI and the ELPA eigensolver.
  Finished Cholesky decomposition
  | Time :     0.000 s
  Finished transformation to standard eigenproblem
  | Time :     0.000 s
  Starting LAPACK eigensolver
  Finished solving standard eigenproblem
  | Time :     0.002 s
  Finished back-transformation of eigenvectors
  | Time :     0.000 s

  Obtaining occupation numbers and chemical potential using ELSI.
  | Chemical potential (Fermi level):    -4.50403056eV
  Writing Kohn-Sham eigenvalues.

  State    Occupation    Eigenvalue [Ha]    Eigenvalue [eV]
      1       2.00000         -18.912145         -514.62566
      2       2.00000         -18.839037         -512.63628
      3       2.00000         -14.094178         -383.52211
      4       2.00000         -10.116350         -275.27990
      5       2.00000         -10.061592         -273.78984
      6       2.00000         -10.026955         -272.84733
      7       2.00000          -1.142882          -31.09941
      8       2.00000          -1.032941          -28.10775
      9       2.00000          -0.920142          -25.03833
     10       2.00000          -0.793389          -21.58921
     11       2.00000          -0.708234          -19.27203
     12       2.00000          -0.636787          -17.32787
     13       2.00000          -0.566151          -15.40575
     14       2.00000          -0.547353          -14.89422
     15       2.00000          -0.534370          -14.54093
     16       2.00000          -0.499096          -13.58108
     17       2.00000          -0.489737          -13.32641
     18       2.00000          -0.470116          -12.79251
     19       2.00000          -0.452728          -12.31934
     20       2.00000          -0.441118          -12.00343
     21       2.00000          -0.421597          -11.47223
     22       2.00000          -0.369906          -10.06565
     23       2.00000          -0.347196           -9.44767
     24       2.00000          -0.307721           -8.37353
     25       0.00000          -0.112593           -3.06382
     26       0.00000          -0.032749           -0.89116
     27       0.00000          -0.001752           -0.04768
     28       0.00000           0.016317            0.44401
     29       0.00000           0.032267            0.87802
     30       0.00000           0.055264            1.50381
     31       0.00000           0.065580            1.78451
     32       0.00000           0.070405            1.91581
     33       0.00000           0.083256            2.26550
     34       0.00000           0.106246            2.89111
     35       0.00000           0.127130            3.45938
     36       0.00000           0.162562            4.42352
     37       0.00000           0.174084            4.73707
     38       0.00000           0.219591            5.97537
     39       0.00000           0.242887            6.60930
     40       0.00000           0.261920            7.12719
     41       0.00000           0.301307            8.19899
     42       0.00000           0.311794            8.48434
     43       0.00000           0.333020            9.06194
     44       0.00000           0.351112            9.55423
     45       0.00000           0.374983           10.20381
     46       0.00000           0.385459           10.48888
     47       0.00000           0.405432           11.03237
     48       0.00000           0.449338           12.22712
     49       0.00000           0.483430           13.15481
     50       0.00000           0.510131           13.88137
     51       0.00000           0.527840           14.36324
     52       0.00000           0.563300           15.32818
     53       0.00000           0.596538           16.23262

  Highest occupied state (VBM) at     -8.37352588 eV
  | Occupation number:      2.00000000

  Lowest unoccupied state (CBM) at    -3.06381877 eV
  | Occupation number:      0.00000000

  Overall HOMO-LUMO gap:      5.30970711 eV.

  Total energy components:
  | Sum of eigenvalues            :        -185.46343928 Ha       -5046.71695691 eV
  | XC energy correction          :         -42.11736389 Ha       -1146.07178291 eV
  | XC potential correction       :          54.14744875 Ha        1473.42704761 eV
  | Free-atom electrostatic energy:        -146.84608366 Ha       -3995.88524482 eV
  | Hartree energy correction     :          -3.31580803 Ha         -90.22772726 eV
  | vdW energy correction         :           0.00000000 Ha           0.00000000 eV
  | Entropy correction            :           0.00000000 Ha           0.00000000 eV
  | ---------------------------
  | Total energy                  :        -323.59524611 Ha       -8805.47466430 eV
  | Total energy, T -> 0          :        -323.59524611 Ha       -8805.47466430 eV  <-- do not rely on this value for anything but (periodic) metals
  | Electronic free energy        :        -323.59524611 Ha       -8805.47466430 eV

  Derived energy quantities:
  | Kinetic energy                :         322.26883683 Ha        8769.38123121 eV
  | Electrostatic energy          :        -603.74671905 Ha      -16428.78411260 eV
  | Energy correction for multipole
  | error in Hartree potential    :           0.01216934 Ha           0.33114465 eV
  | Sum of eigenvalues per atom                           :        -388.20899669 eV
  | Total energy (T->0) per atom                          :        -677.34420495 eV  <-- do not rely on this value for anything but (periodic) metals
  | Electronic free energy per atom                       :        -677.34420495 eV

  Self-consistency convergence accuracy:
  | Change of charge density      :  0.5797E+00
  | Change of sum of eigenvalues  :  0.9244E+02 eV
  | Change of total energy        :  0.4901E+01 eV

  End self-consistency iteration #     1       :  max(cpu_time)    wall_clock(cpu1)
  | Time for this iteration                    :        1.185 s           1.186 s
  | Charge density update                      :        0.393 s           0.393 s
  | Density mixing                             :        0.005 s           0.005 s
  | Hartree multipole update                   :        0.009 s           0.009 s
  | Hartree multipole summation                :        0.286 s           0.286 s
  | Integration                                :        0.490 s           0.491 s
  | Solution of K.-S. eqns.                    :        0.002 s           0.002 s
  | Total energy evaluation                    :        0.000 s           0.000 s

  Partial memory accounting:
  | Current value for overall tracked memory usage on task 0  :           0.165 MB
  | Peak value for overall tracked memory usage on task 0     :           0.695 MB after allocating gradient_basis_wave
  | Largest tracked array allocation on task 0 so far         :           0.397 MB  when allocating gradient_basis_wave
  Note:  These values currently only include a subset of arrays which are explicitly tracked.
  The "true" memory usage will be greater.
------------------------------------------------------------

------------------------------------------------------------
          Begin self-consistency iteration #    2

  Date     :  20200710, Time     :  143310.058
------------------------------------------------------------
  Evaluating new KS density.
  Integration grid: deviation in total charge (<rho> - N_e) =  -2.131628E-14
  Pulay mixing of updated and previous charge densities.

  Evaluating partitioned Hartree potential by multipole expansion.
  | Analytical far-field extrapolation by fixed multipoles:
  | Hartree multipole sum: apparent total charge =  -0.354030E-03
  Summing up the Hartree potential.
  Time summed over all CPUs for potential: real work        0.285 s, elapsed        0.285 s
  | RMS charge density error from multipole expansion :   0.142049E-01

  Integrating Hamiltonian matrix: batch-based integration.
  Time summed over all CPUs for integration: real work        0.491 s, elapsed        0.491 s

  Updating Kohn-Sham eigenvalues and eigenvectors using ELSI and the ELPA eigensolver.
  Finished Cholesky decomposition
  | Time :     0.000 s
  Finished transformation to standard eigenproblem
  | Time :     0.000 s
  Starting LAPACK eigensolver
  Finished solving standard eigenproblem
  | Time :     0.001 s
  Finished back-transformation of eigenvectors
  | Time :     0.000 s

  Obtaining occupation numbers and chemical potential using ELSI.
  | Chemical potential (Fermi level):    -3.21158761eV
  Highest occupied state (VBM) at     -6.30022726 eV
  | Occupation number:      2.00000000

  Lowest unoccupied state (CBM) at    -1.78851772 eV
  | Occupation number:      0.00000000

  Overall HOMO-LUMO gap:      4.51170953 eV.

  Checking to see if s.c.f. parameters should be adjusted.

  Total energy components:
  | Sum of eigenvalues            :        -181.84310603 Ha       -4948.20267673 eV
  | XC energy correction          :         -42.48232206 Ha       -1156.00279989 eV
  | XC potential correction       :          54.62062372 Ha        1486.30279370 eV
  | Free-atom electrostatic energy:        -146.84608366 Ha       -3995.88524482 eV
  | Hartree energy correction     :          -6.96675954 Ha        -189.57517254 eV
  | vdW energy correction         :           0.00000000 Ha           0.00000000 eV
  | Entropy correction            :           0.00000000 Ha           0.00000000 eV
  | ---------------------------
  | Total energy                  :        -323.51764756 Ha       -8803.36310029 eV
  | Total energy, T -> 0          :        -323.51764756 Ha       -8803.36310029 eV  <-- do not rely on this value for anything but (periodic) metals
  | Electronic free energy        :        -323.51764756 Ha       -8803.36310029 eV

  Derived energy quantities:
  | Kinetic energy                :         323.61179624 Ha        8805.92501629 eV
  | Electrostatic energy          :        -604.64712175 Ha      -16453.28531669 eV
  | Energy correction for multipole
  | error in Hartree potential    :           0.02715436 Ha           0.73890780 eV
  | Sum of eigenvalues per atom                           :        -380.63097513 eV
  | Total energy (T->0) per atom                          :        -677.18177695 eV  <-- do not rely on this value for anything but (periodic) metals
  | Electronic free energy per atom                       :        -677.18177695 eV

  Self-consistency convergence accuracy:
  | Change of charge density      :  0.3622E+00
  | Change of sum of eigenvalues  :  0.9851E+02 eV
  | Change of total energy        :  0.2112E+01 eV

  End self-consistency iteration #     2       :  max(cpu_time)    wall_clock(cpu1)
  | Time for this iteration                    :        1.179 s           1.179 s
  | Charge density update                      :        0.384 s           0.385 s
  | Density mixing                             :        0.007 s           0.006 s
  | Hartree multipole update                   :        0.009 s           0.009 s
  | Hartree multipole summation                :        0.285 s           0.286 s
  | Integration                                :        0.491 s           0.491 s
  | Solution of K.-S. eqns.                    :        0.002 s           0.002 s
  | Total energy evaluation                    :        0.000 s           0.000 s

  Partial memory accounting:
  | Current value for overall tracked memory usage on task 0  :           0.166 MB
  | Peak value for overall tracked memory usage on task 0     :           0.695 MB after allocating gradient_basis_wave
  | Largest tracked array allocation on task 0 so far         :           0.397 MB  when allocating gradient_basis_wave
  Note:  These values currently only include a subset of arrays which are explicitly tracked.
  The "true" memory usage will be greater.
------------------------------------------------------------

------------------------------------------------------------
          Begin self-consistency iteration #    3

  Date     :  20200710, Time     :  143311.238
------------------------------------------------------------
  Evaluating new KS density.
  Integration grid: deviation in total charge (<rho> - N_e) =  -6.394885E-14
  Pulay mixing of updated and previous charge densities.

  Evaluating partitioned Hartree potential by multipole expansion.
  | Analytical far-field extrapolation by fixed multipoles:
  | Hartree multipole sum: apparent total charge =  -0.453738E-03
  Summing up the Hartree potential.
  Time summed over all CPUs for potential: real work        0.285 s, elapsed        0.285 s
  | RMS charge density error from multipole expansion :   0.225449E-01

  Integrating Hamiltonian matrix: batch-based integration.
  Time summed over all CPUs for integration: real work        0.490 s, elapsed        0.490 s

  Updating Kohn-Sham eigenvalues and eigenvectors using ELSI and the ELPA eigensolver.
  Finished Cholesky decomposition
  | Time :     0.000 s
  Finished transformation to standard eigenproblem
  | Time :     0.000 s
  Starting LAPACK eigensolver
  Finished solving standard eigenproblem
  | Time :     0.002 s
  Finished back-transformation of eigenvectors
  | Time :     0.000 s

  Obtaining occupation numbers and chemical potential using ELSI.
  | Chemical potential (Fermi level):    -2.52852611eV
  Highest occupied state (VBM) at     -5.65628612 eV
  | Occupation number:      2.00000000

  Lowest unoccupied state (CBM) at    -1.07267677 eV
  | Occupation number:      0.00000000

  Overall HOMO-LUMO gap:      4.58360935 eV.

  Total energy components:
  | Sum of eigenvalues            :        -180.55923684 Ha       -4913.26681856 eV
  | XC energy correction          :         -42.63257391 Ha       -1160.09136084 eV
  | XC potential correction       :          54.81218001 Ha        1491.51530557 eV
  | Free-atom electrostatic energy:        -146.84608366 Ha       -3995.88524482 eV
  | Hartree energy correction     :          -8.28005212 Ha        -225.31168180 eV
  | vdW energy correction         :           0.00000000 Ha           0.00000000 eV
  | Entropy correction            :           0.00000000 Ha           0.00000000 eV
  | ---------------------------
  | Total energy                  :        -323.50576651 Ha       -8803.03980045 eV
  | Total energy, T -> 0          :        -323.50576651 Ha       -8803.03980045 eV  <-- do not rely on this value for anything but (periodic) metals
  | Electronic free energy        :        -323.50576651 Ha       -8803.03980045 eV

  Derived energy quantities:
  | Kinetic energy                :         323.16613541 Ha        8793.79796797 eV
  | Electrostatic energy          :        -604.03932801 Ha      -16436.74640759 eV
  | Energy correction for multipole
  | error in Hartree potential    :           0.03878165 Ha           1.05530251 eV
  | Sum of eigenvalues per atom                           :        -377.94360143 eV
  | Total energy (T->0) per atom                          :        -677.15690773 eV  <-- do not rely on this value for anything but (periodic) metals
  | Electronic free energy per atom                       :        -677.15690773 eV

  Self-consistency convergence accuracy:
  | Change of charge density      :  0.2006E+00
  | Change of sum of eigenvalues  :  0.3494E+02 eV
  | Change of total energy        :  0.3233E+00 eV

  End self-consistency iteration #     3       :  max(cpu_time)    wall_clock(cpu1)
  | Time for this iteration                    :        1.180 s           1.180 s
  | Charge density update                      :        0.384 s           0.385 s
  | Density mixing                             :        0.008 s           0.008 s
  | Hartree multipole update                   :        0.009 s           0.008 s
  | Hartree multipole summation                :        0.286 s           0.286 s
  | Integration                                :        0.491 s           0.491 s
  | Solution of K.-S. eqns.                    :        0.002 s           0.002 s
  | Total energy evaluation                    :        0.000 s           0.000 s

  Partial memory accounting:
  | Current value for overall tracked memory usage on task 0  :           0.166 MB
  | Peak value for overall tracked memory usage on task 0     :           0.695 MB after allocating gradient_basis_wave
  | Largest tracked array allocation on task 0 so far         :           0.397 MB  when allocating gradient_basis_wave
  Note:  These values currently only include a subset of arrays which are explicitly tracked.
  The "true" memory usage will be greater.
------------------------------------------------------------

------------------------------------------------------------
          Begin self-consistency iteration #    4

  Date     :  20200710, Time     :  143312.420
------------------------------------------------------------
  Evaluating new KS density.
  Integration grid: deviation in total charge (<rho> - N_e) =   7.105427E-15
  Pulay mixing of updated and previous charge densities.

  Evaluating partitioned Hartree potential by multipole expansion.
  | Analytical far-field extrapolation by fixed multipoles:
  | Hartree multipole sum: apparent total charge =  -0.485287E-03
  Summing up the Hartree potential.
  Time summed over all CPUs for potential: real work        0.285 s, elapsed        0.285 s
  | RMS charge density error from multipole expansion :   0.258830E-01

  Integrating Hamiltonian matrix: batch-based integration.
  Time summed over all CPUs for integration: real work        0.490 s, elapsed        0.490 s

  Updating Kohn-Sham eigenvalues and eigenvectors using ELSI and the ELPA eigensolver.
  Finished Cholesky decomposition
  | Time :     0.000 s
  Finished transformation to standard eigenproblem
  | Time :     0.000 s
  Starting LAPACK eigensolver
  Finished solving standard eigenproblem
  | Time :     0.002 s
  Finished back-transformation of eigenvectors
  | Time :     0.000 s

  Obtaining occupation numbers and chemical potential using ELSI.
  | Chemical potential (Fermi level):    -2.43159280eV
  Highest occupied state (VBM) at     -5.46843794 eV
  | Occupation number:      2.00000000

  Lowest unoccupied state (CBM) at    -1.00337441 eV
  | Occupation number:      0.00000000

  Overall HOMO-LUMO gap:      4.46506353 eV.

  Total energy components:
  | Sum of eigenvalues            :        -180.41468414 Ha       -4909.33333963 eV
  | XC energy correction          :         -42.66905738 Ha       -1161.08412651 eV
  | XC potential correction       :          54.85817246 Ha        1492.76682383 eV
  | Free-atom electrostatic energy:        -146.84608366 Ha       -3995.88524482 eV
  | Hartree energy correction     :          -8.43337023 Ha        -229.48368000 eV
  | vdW energy correction         :           0.00000000 Ha           0.00000000 eV
  | Entropy correction            :           0.00000000 Ha           0.00000000 eV
  | ---------------------------
  | Total energy                  :        -323.50502295 Ha       -8803.01956714 eV
  | Total energy, T -> 0          :        -323.50502295 Ha       -8803.01956714 eV  <-- do not rely on this value for anything but (periodic) metals
  | Electronic free energy        :        -323.50502295 Ha       -8803.01956714 eV

  Derived energy quantities:
  | Kinetic energy                :         322.80374813 Ha        8783.93690837 eV
  | Electrostatic energy          :        -603.63971370 Ha      -16425.87234899 eV
  | Energy correction for multipole
  | error in Hartree potential    :           0.04293667 Ha           1.16836621 eV
  | Sum of eigenvalues per atom                           :        -377.64102613 eV
  | Total energy (T->0) per atom                          :        -677.15535132 eV  <-- do not rely on this value for anything but (periodic) metals
  | Electronic free energy per atom                       :        -677.15535132 eV

  Self-consistency convergence accuracy:
  | Change of charge density      :  0.6068E-01
  | Change of sum of eigenvalues  :  0.3933E+01 eV
  | Change of total energy        :  0.2023E-01 eV

  End self-consistency iteration #     4       :  max(cpu_time)    wall_clock(cpu1)
  | Time for this iteration                    :        1.181 s           1.182 s
  | Charge density update                      :        0.384 s           0.385 s
  | Density mixing                             :        0.009 s           0.009 s
  | Hartree multipole update                   :        0.009 s           0.009 s
  | Hartree multipole summation                :        0.286 s           0.286 s
  | Integration                                :        0.490 s           0.491 s
  | Solution of K.-S. eqns.                    :        0.002 s           0.002 s
  | Total energy evaluation                    :        0.000 s           0.000 s

  Partial memory accounting:
  | Current value for overall tracked memory usage on task 0  :           0.166 MB
  | Peak value for overall tracked memory usage on task 0     :           0.696 MB after allocating gradient_basis_wave
  | Largest tracked array allocation on task 0 so far         :           0.397 MB  when allocating gradient_basis_wave
  Note:  These values currently only include a subset of arrays which are explicitly tracked.
  The "true" memory usage will be greater.
------------------------------------------------------------

------------------------------------------------------------
          Begin self-consistency iteration #    5

  Date     :  20200710, Time     :  143313.603
------------------------------------------------------------
  Evaluating new KS density.
  Integration grid: deviation in total charge (<rho> - N_e) =  -7.105427E-15
  Pulay mixing of updated and previous charge densities.

  Evaluating partitioned Hartree potential by multipole expansion.
  | Analytical far-field extrapolation by fixed multipoles:
  | Hartree multipole sum: apparent total charge =  -0.479492E-03
  Summing up the Hartree potential.
  Time summed over all CPUs for potential: real work        0.285 s, elapsed        0.285 s
  | RMS charge density error from multipole expansion :   0.256195E-01

  Integrating Hamiltonian matrix: batch-based integration.
  Time summed over all CPUs for integration: real work        0.491 s, elapsed        0.491 s

  Updating Kohn-Sham eigenvalues and eigenvectors using ELSI and the ELPA eigensolver.
  Finished Cholesky decomposition
  | Time :     0.000 s
  Finished transformation to standard eigenproblem
  | Time :     0.000 s
  Starting LAPACK eigensolver
  Finished solving standard eigenproblem
  | Time :     0.002 s
  Finished back-transformation of eigenvectors
  | Time :     0.000 s

  Obtaining occupation numbers and chemical potential using ELSI.
  | Chemical potential (Fermi level):    -2.48712337eV
  Highest occupied state (VBM) at     -5.55038758 eV
  | Occupation number:      2.00000000

  Lowest unoccupied state (CBM) at    -1.07695356 eV
  | Occupation number:      0.00000000

  Overall HOMO-LUMO gap:      4.47343402 eV.

  Total energy components:
  | Sum of eigenvalues            :        -180.57949820 Ha       -4913.81815835 eV
  | XC energy correction          :         -42.64835256 Ha       -1160.52071985 eV
  | XC potential correction       :          54.83133259 Ha        1492.03647385 eV
  | Free-atom electrostatic energy:        -146.84608366 Ha       -3995.88524482 eV
  | Hartree energy correction     :          -8.26211999 Ha        -224.82372376 eV
  | vdW energy correction         :           0.00000000 Ha           0.00000000 eV
  | Entropy correction            :           0.00000000 Ha           0.00000000 eV
  | ---------------------------
  | Total energy                  :        -323.50472182 Ha       -8803.01137294 eV
  | Total energy, T -> 0          :        -323.50472182 Ha       -8803.01137294 eV  <-- do not rely on this value for anything but (periodic) metals
  | Electronic free energy        :        -323.50472182 Ha       -8803.01137294 eV

  Derived energy quantities:
  | Kinetic energy                :         322.71700144 Ha        8781.57641078 eV
  | Electrostatic energy          :        -603.57337069 Ha      -16424.06706387 eV
  | Energy correction for multipole
  | error in Hartree potential    :           0.04232875 Ha           1.15182389 eV
  | Sum of eigenvalues per atom                           :        -377.98601218 eV
  | Total energy (T->0) per atom                          :        -677.15472100 eV  <-- do not rely on this value for anything but (periodic) metals
  | Electronic free energy per atom                       :        -677.15472100 eV

  Self-consistency convergence accuracy:
  | Change of charge density      :  0.2119E-01
  | Change of sum of eigenvalues  : -0.4485E+01 eV
  | Change of total energy        :  0.8194E-02 eV

  End self-consistency iteration #     5       :  max(cpu_time)    wall_clock(cpu1)
  | Time for this iteration                    :        1.183 s           1.184 s
  | Charge density update                      :        0.385 s           0.385 s
  | Density mixing                             :        0.011 s           0.011 s
  | Hartree multipole update                   :        0.009 s           0.009 s
  | Hartree multipole summation                :        0.286 s           0.285 s
  | Integration                                :        0.491 s           0.491 s
  | Solution of K.-S. eqns.                    :        0.002 s           0.002 s
  | Total energy evaluation                    :        0.000 s           0.000 s

  Partial memory accounting:
  | Current value for overall tracked memory usage on task 0  :           0.166 MB
  | Peak value for overall tracked memory usage on task 0     :           0.696 MB after allocating gradient_basis_wave
  | Largest tracked array allocation on task 0 so far         :           0.397 MB  when allocating gradient_basis_wave
  Note:  These values currently only include a subset of arrays which are explicitly tracked.
  The "true" memory usage will be greater.
------------------------------------------------------------

------------------------------------------------------------
          Begin self-consistency iteration #    6

  Date     :  20200710, Time     :  143314.787
------------------------------------------------------------
  Evaluating new KS density.
  Integration grid: deviation in total charge (<rho> - N_e) =   4.263256E-14
  Pulay mixing of updated and previous charge densities.

  Evaluating partitioned Hartree potential by multipole expansion.
  | Analytical far-field extrapolation by fixed multipoles:
  | Hartree multipole sum: apparent total charge =  -0.481239E-03
  Summing up the Hartree potential.
  Time summed over all CPUs for potential: real work        0.285 s, elapsed        0.285 s
  | RMS charge density error from multipole expansion :   0.259628E-01

  Integrating Hamiltonian matrix: batch-based integration.
  Time summed over all CPUs for integration: real work        0.491 s, elapsed        0.491 s

  Updating Kohn-Sham eigenvalues and eigenvectors using ELSI and the ELPA eigensolver.
  Finished Cholesky decomposition
  | Time :     0.000 s
  Finished transformation to standard eigenproblem
  | Time :     0.000 s
  Starting LAPACK eigensolver
  Finished solving standard eigenproblem
  | Time :     0.001 s
  Finished back-transformation of eigenvectors
  | Time :     0.000 s

  Obtaining occupation numbers and chemical potential using ELSI.
  | Chemical potential (Fermi level):    -2.50287142eV
  Highest occupied state (VBM) at     -5.54127047 eV
  | Occupation number:      2.00000000

  Lowest unoccupied state (CBM) at    -1.11130825 eV
  | Occupation number:      0.00000000

  Overall HOMO-LUMO gap:      4.42996222 eV.

  Total energy components:
  | Sum of eigenvalues            :        -180.62490318 Ha       -4915.05369064 eV
  | XC energy correction          :         -42.64165234 Ha       -1160.33839757 eV
  | XC potential correction       :          54.82263225 Ha        1491.79972536 eV
  | Free-atom electrostatic energy:        -146.84608366 Ha       -3995.88524482 eV
  | Hartree energy correction     :          -8.21464474 Ha        -223.53185643 eV
  | vdW energy correction         :           0.00000000 Ha           0.00000000 eV
  | Entropy correction            :           0.00000000 Ha           0.00000000 eV
  | ---------------------------
  | Total energy                  :        -323.50465167 Ha       -8803.00946409 eV
  | Total energy, T -> 0          :        -323.50465167 Ha       -8803.00946409 eV  <-- do not rely on this value for anything but (periodic) metals
  | Electronic free energy        :        -323.50465167 Ha       -8803.00946409 eV

  Derived energy quantities:
  | Kinetic energy                :         322.61786133 Ha        8778.87867115 eV
  | Electrostatic energy          :        -603.48086065 Ha      -16421.54973767 eV
  | Energy correction for multipole
  | error in Hartree potential    :           0.04251583 Ha           1.15691466 eV
  | Sum of eigenvalues per atom                           :        -378.08105313 eV
  | Total energy (T->0) per atom                          :        -677.15457416 eV  <-- do not rely on this value for anything but (periodic) metals
  | Electronic free energy per atom                       :        -677.15457416 eV

  Self-consistency convergence accuracy:
  | Change of charge density      :  0.1080E-01
  | Change of sum of eigenvalues  : -0.1236E+01 eV
  | Change of total energy        :  0.1909E-02 eV

  End self-consistency iteration #     6       :  max(cpu_time)    wall_clock(cpu1)
  | Time for this iteration                    :        1.184 s           1.185 s
  | Charge density update                      :        0.385 s           0.385 s
  | Density mixing                             :        0.012 s           0.012 s
  | Hartree multipole update                   :        0.009 s           0.009 s
  | Hartree multipole summation                :        0.286 s           0.286 s
  | Integration                                :        0.491 s           0.491 s
  | Solution of K.-S. eqns.                    :        0.002 s           0.002 s
  | Total energy evaluation                    :        0.000 s           0.000 s

  Partial memory accounting:
  | Current value for overall tracked memory usage on task 0  :           0.166 MB
  | Peak value for overall tracked memory usage on task 0     :           0.696 MB after allocating gradient_basis_wave
  | Largest tracked array allocation on task 0 so far         :           0.397 MB  when allocating gradient_basis_wave
  Note:  These values currently only include a subset of arrays which are explicitly tracked.
  The "true" memory usage will be greater.
------------------------------------------------------------

------------------------------------------------------------
          Begin self-consistency iteration #    7

  Date     :  20200710, Time     :  143315.973
------------------------------------------------------------
  Evaluating new KS density.
  Integration grid: deviation in total charge (<rho> - N_e) =   0.000000E+00
  Pulay mixing of updated and previous charge densities.

  Evaluating partitioned Hartree potential by multipole expansion.
  | Analytical far-field extrapolation by fixed multipoles:
  | Hartree multipole sum: apparent total charge =  -0.482714E-03
  Summing up the Hartree potential.
  Time summed over all CPUs for potential: real work        0.286 s, elapsed        0.286 s
  | RMS charge density error from multipole expansion :   0.261264E-01

  Integrating Hamiltonian matrix: batch-based integration.
  Time summed over all CPUs for integration: real work        0.492 s, elapsed        0.492 s

  Updating Kohn-Sham eigenvalues and eigenvectors using ELSI and the ELPA eigensolver.
  Finished Cholesky decomposition
  | Time :     0.000 s
  Finished transformation to standard eigenproblem
  | Time :     0.000 s
  Starting LAPACK eigensolver
  Finished solving standard eigenproblem
  | Time :     0.001 s
  Finished back-transformation of eigenvectors
  | Time :     0.000 s

[...]
  |   Hirshfeld dipole moment :      0.06462406
  |   Hirshfeld second moments:      0.00867009      -0.01507301      -0.01414843
  |                                 -0.01507301      -0.00898695       0.00767881
  |                                 -0.01414843       0.00767881      -0.02142206
  ----------------------------------------------------------------------
  | Atom    12: O
  |   Hirshfeld charge        :     -0.13405411
  |   Free atom volume        :     23.61338643
  |   Hirshfeld volume        :     20.52827810
  |   Hirshfeld dipole vector :      0.00892384       0.00570089       0.03288397
  |   Hirshfeld dipole moment :      0.03454693
  |   Hirshfeld second moments:      0.06707023       0.01040838      -0.01318253
  |                                  0.01040838       0.09312977      -0.01885660
  |                                 -0.01318253      -0.01885660       0.04570149
  ----------------------------------------------------------------------
  | Atom    13: H
  |   Hirshfeld charge        :      0.17165645
  |   Free atom volume        :      9.95071624
  |   Hirshfeld volume        :      6.38351312
  |   Hirshfeld dipole vector :     -0.04092471      -0.08781393       0.05630641
  |   Hirshfeld dipole moment :      0.11205592
  |   Hirshfeld second moments:      0.11535376       0.00052916      -0.01442080
  |                                  0.00052916       0.12298935      -0.00100016
  |                                 -0.01442080      -0.00100016       0.08268453
  ----------------------------------------------------------------------


  Total energy components:
  | Sum of eigenvalues            :        -180.61228287 Ha       -4914.71027462 eV
  | XC energy correction          :         -42.63973695 Ha       -1160.28627725 eV
  | XC potential correction       :          54.82023239 Ha        1491.73442182 eV
  | Free-atom electrostatic energy:        -146.84608366 Ha       -3995.88524482 eV
  | Hartree energy correction     :          -8.22676038 Ha        -223.86154000 eV
  | vdW energy correction         :          -0.00326771 Ha          -0.08891900 eV
  | Entropy correction            :           0.00000000 Ha           0.00000000 eV
  | ---------------------------
  | Total energy                  :        -323.50789920 Ha       -8803.09783388 eV
  | Total energy, T -> 0          :        -323.50789920 Ha       -8803.09783388 eV  <-- do not rely on this value for anything but (periodic) metals
  | Electronic free energy        :        -323.50789920 Ha       -8803.09783388 eV

  Derived energy quantities:
  | Kinetic energy                :         322.57968894 Ha        8777.83994754 eV
  | Electrostatic energy          :        -603.44458347 Ha      -16420.56258516 eV
  | Energy correction for multipole
  | error in Hartree potential    :           0.04262055 Ha           1.15976413 eV
  | Sum of eigenvalues per atom                           :        -378.05463651 eV
  | Total energy (T->0) per atom                          :        -677.16137184 eV  <-- do not rely on this value for anything but (periodic) metals
  | Electronic free energy per atom                       :        -677.16137184 eV

  atomic forces [eV/Ang]:
  -----------------------
  atom #    1
   Hellmann-Feynman              :  0.200621E+00 -0.103287E+00  0.529039E+00
   Ionic forces                  :  0.000000E+00  0.000000E+00  0.000000E+00
   Multipole                     :  0.139215E+00  0.220558E+00 -0.244748E+00
   Pulay + GGA                   : -0.990975E+00 -0.247014E+00 -0.100854E+01
   Van der Waals                 :  0.162327E-02  0.702922E-03 -0.136550E-02
   ----------------------------------------------------------------
   Total forces(   1)            : -0.649516E+00 -0.129040E+00 -0.725615E+00
  atom #    2
   Hellmann-Feynman              :  0.218914E+00  0.262978E-01 -0.283826E-01
   Ionic forces                  :  0.000000E+00  0.000000E+00  0.000000E+00
   Multipole                     :  0.191626E+00  0.128110E-01  0.104063E-01
   Pulay + GGA                   : -0.133440E+00  0.190436E-01  0.387853E-01
   Van der Waals                 :  0.416048E-02 -0.460143E-02 -0.620669E-02
   ----------------------------------------------------------------
   Total forces(   2)            :  0.281260E+00  0.535510E-01  0.146023E-01
  atom #    3
   Hellmann-Feynman              : -0.273247E+01  0.106250E+02 -0.186595E+01
   Ionic forces                  :  0.000000E+00  0.000000E+00  0.000000E+00
   Multipole                     : -0.222595E+00  0.287868E+00 -0.984607E+00
   Pulay + GGA                   :  0.347410E+01 -0.104448E+02  0.340118E+01
   Van der Waals                 :  0.287241E-02 -0.745729E-02 -0.652625E-02
   ----------------------------------------------------------------
   Total forces(   3)            :  0.521914E+00  0.460538E+00  0.544091E+00
  atom #    4
   Hellmann-Feynman              : -0.155134E+00 -0.322787E+00 -0.109399E+00
   Ionic forces                  :  0.000000E+00  0.000000E+00  0.000000E+00
   Multipole                     :  0.364517E-01 -0.366914E-01 -0.106944E+00
   Pulay + GGA                   : -0.152441E+00  0.143320E+00  0.100480E+00
   Van der Waals                 : -0.275199E-02  0.261786E-02  0.194825E-02
   ----------------------------------------------------------------
   Total forces(   4)            : -0.273875E+00 -0.213541E+00 -0.113915E+00
  atom #    5
   Hellmann-Feynman              : -0.508685E-01 -0.209215E+00 -0.244514E+00
   Ionic forces                  :  0.000000E+00  0.000000E+00  0.000000E+00
   Multipole                     : -0.640365E-01 -0.687264E-01 -0.646752E-01
   Pulay + GGA                   :  0.166478E+00  0.182044E+00  0.257252E-01
   Van der Waals                 : -0.375586E-03 -0.907095E-03  0.132391E-02
   ----------------------------------------------------------------
   Total forces(   5)            :  0.511973E-01 -0.968047E-01 -0.282140E+00
  atom #    6
   Hellmann-Feynman              :  0.108666E+00 -0.463344E+00  0.563262E+00
   Ionic forces                  :  0.000000E+00  0.000000E+00  0.000000E+00
   Multipole                     : -0.101658E+00  0.658574E+00  0.243321E+00
   Pulay + GGA                   :  0.133012E+00 -0.580533E+00 -0.574396E+00
   Van der Waals                 : -0.102937E-02  0.729034E-02 -0.227293E-02
   ----------------------------------------------------------------
   Total forces(   6)            :  0.138991E+00 -0.378013E+00  0.229913E+00
  atom #    7
   Hellmann-Feynman              : -0.215467E+00 -0.414128E-01 -0.450591E-01
   Ionic forces                  :  0.000000E+00  0.000000E+00  0.000000E+00
   Multipole                     : -0.118633E+00  0.490395E-01  0.234553E-01
   Pulay + GGA                   :  0.118398E+00  0.165649E-01 -0.957109E-02
   Van der Waals                 : -0.171441E-02  0.100691E-02  0.294359E-02
   ----------------------------------------------------------------
   Total forces(   7)            : -0.217416E+00  0.251985E-01 -0.282314E-01
  atom #    8
   Hellmann-Feynman              :  0.489822E-01 -0.435488E-01  0.185386E+00
   Ionic forces                  :  0.000000E+00  0.000000E+00  0.000000E+00
   Multipole                     :  0.179825E-01  0.641651E-01  0.122309E+00
   Pulay + GGA                   : -0.403777E-01 -0.337375E-01 -0.838763E-01
   Van der Waals                 : -0.271935E-02  0.113716E-01  0.166186E-02
   ----------------------------------------------------------------
   Total forces(   8)            :  0.238676E-01 -0.174961E-02  0.225481E+00
  atom #    9
   Hellmann-Feynman              :  0.987468E-01 -0.164631E-01 -0.202657E+00
   Ionic forces                  :  0.000000E+00  0.000000E+00  0.000000E+00
   Multipole                     :  0.149407E-01  0.131233E+00 -0.974039E-02
   Pulay + GGA                   : -0.590055E-01 -0.106040E+00  0.223924E-01
   Van der Waals                 : -0.226232E-02  0.238696E-02  0.342298E-02
   ----------------------------------------------------------------
   Total forces(   9)            :  0.524198E-01  0.111164E-01 -0.186582E+00
  atom #   10
   Hellmann-Feynman              :  0.316241E+01  0.550585E+01  0.646220E+00
   Ionic forces                  :  0.000000E+00  0.000000E+00  0.000000E+00
   Multipole                     : -0.303042E-01 -0.116361E+00  0.159171E+00
   Pulay + GGA                   : -0.171270E+01 -0.317075E+01 -0.236957E+00
   Van der Waals                 :  0.242506E-02 -0.146489E-01  0.567505E-02
   ----------------------------------------------------------------
   Total forces(  10)            :  0.142183E+01  0.220409E+01  0.574109E+00
  atom #   11
   Hellmann-Feynman              :  0.410293E+01 -0.249104E+01  0.143652E+02
   Ionic forces                  :  0.000000E+00  0.000000E+00  0.000000E+00
   Multipole                     :  0.144017E+00 -0.484921E+00  0.781399E+00
   Pulay + GGA                   : -0.350940E+01  0.331346E+01 -0.134425E+02
   Van der Waals                 : -0.364731E-02 -0.118065E-01  0.785968E-03
   ----------------------------------------------------------------
   Total forces(  11)            :  0.733892E+00  0.325685E+00  0.170485E+01
  atom #   12
   Hellmann-Feynman              : -0.493291E+01  0.396698E+00 -0.154518E+02
   Ionic forces                  :  0.000000E+00  0.000000E+00  0.000000E+00
   Multipole                     : -0.835637E+00 -0.104422E+01 -0.840485E+00
   Pulay + GGA                   :  0.404506E+01 -0.723288E+00  0.143128E+02
   Van der Waals                 :  0.186921E-02  0.655611E-02  0.328797E-02
   ----------------------------------------------------------------
   Total forces(  12)            : -0.172161E+01 -0.136425E+01 -0.197619E+01
  atom #   13
   Hellmann-Feynman              : -0.450762E+00 -0.112609E+01  0.160134E+00
   Ionic forces                  :  0.000000E+00  0.000000E+00  0.000000E+00
   Multipole                     :  0.262327E-03 -0.304969E-01  0.877594E-01
   Pulay + GGA                   :  0.838418E-01  0.248191E+00 -0.224649E+00
   Van der Waals                 :  0.154991E-02  0.748850E-02 -0.467822E-02
   ----------------------------------------------------------------
   Total forces(  13)            : -0.365108E+00 -0.900904E+00  0.185657E-01

  Timings for VdW correction (Tkatchenko-Scheffler 2009 or later):
  | CPU time:        0.088 s, Wall clock time:        0.089 s.
  Removing unitary transformations (pure translations, rotations) from forces on atoms.
  Atomic forces before filtering:
  | Net force on center of mass :  -0.215807E-02 -0.413316E-02 -0.106621E-02 eV/A
  | Net torque on center of mass:  -0.615850E-02  0.404395E-02 -0.613899E-02 eV
  Atomic forces after filtering:
  | Net force on center of mass :  -0.223008E-15 -0.178406E-15  0.306636E-15 eV/A
  | Net torque on center of mass:   0.188817E-15  0.336330E-15 -0.944085E-15 eV

  Energy and forces in a compact form:
  | Total energy uncorrected      :         -0.880309783387523E+04 eV
  | Total energy corrected        :         -0.880309783387523E+04 eV  <-- do not rely on this value for anything but (periodic) metals
  | Electronic free energy        :         -0.880309783387523E+04 eV
  Total atomic forces (unitary forces cleaned) [eV/Ang]:
  |   1         -0.649365173423800E+00         -0.128621499604051E+00         -0.725439498349320E+00
  |   2          0.281410969330760E+00          0.541728131185496E-01          0.149451249041466E-01
  |   3          0.522280595370007E+00          0.461052915304557E+00          0.544193492183772E+00
  |   4         -0.273356149552337E+00         -0.212805483189981E+00         -0.113739092643914E+00
  |   5          0.516915290725952E-01         -0.964286170118722E-01         -0.282242534860761E+00
  |   6          0.138795409761457E+00         -0.377782542923645E+00          0.230178653400489E+00
  |   7         -0.217618583145667E+00          0.252242574898777E-01         -0.281291014882471E-01
  |   8          0.235125551276953E-01         -0.158705512900662E-02          0.225803766181557E+00
  |   9          0.521347182923179E-01          0.114807511884839E-01         -0.186142671781887E+00
  |  10          0.142210649208622E+01          0.220433328958574E+01          0.574055397111401E+00
  |  11          0.734046064260398E+00          0.325837014136926E+00          0.170479996147259E+01
  |  12         -0.172107687727465E+01         -0.136404962259480E+01         -0.197646483561568E+01
  |  13         -0.364561549904996E+00         -0.900826220370779E+00          0.181813394858539E-01

  ------------------------------------ 
  Start decomposition of the XC Energy 
  ------------------------------------ 
  X and C from original XC functional choice 
  Hartree-Fock Energy :          0.000000000 Ha              0.000000000 eV
  X Energy            :        -41.039159028 Ha          -1116.732335874 eV
  C Energy            :         -1.600577926 Ha            -43.553941378 eV
  Total XC Energy     :        -42.639736955 Ha          -1160.286277252 eV
  ------------------------------------ 
  LDA X and C from self-consistent density 
  X Energy LDA        :        -37.258425032 Ha          -1013.853329410 eV
  C Energy LDA        :         -3.138656585 Ha            -85.407191146 eV
  ------------------------------------ 
  End decomposition of the XC Energy 
  ------------------------------------ 

------------------------------------------------------------

------------------------------------------------------------------------------
  Final output of selected total energy values:

  The following output summarizes some interesting total energy values
  at the end of a run (AFTER all relaxation, molecular dynamics, etc.).

  | Total energy of the DFT / Hartree-Fock s.c.f. calculation      :          -8803.097833875 eV
  | Final zero-broadening corrected energy (caution - metals only) :          -8803.097833875 eV
  | For reference only, the value of 1 Hartree used in FHI-aims is :             27.211384500 eV

  Before relying on these values, please be sure to understand exactly which
  total energy value is referred to by a given number. Different objects may
  all carry the same name 'total energy'. Definitions:

  Total energy of the DFT / Hartree-Fock s.c.f. calculation:
  | Note that this energy does not include ANY quantities calculated after the
  | s.c.f. cycle, in particular not ANY RPA, MP2, etc. many-body perturbation terms.

  Final zero-broadening corrected energy:
  | For metallic systems only, a broadening of the occupation numbers at the Fermi
  | level can be extrapolated back to zero broadening by an electron-gas inspired
  | formula. For all systems that are not real metals, this value can be
  | meaningless and should be avoided.

------------------------------------------------------------------------------
  Methods described in the following list of references were used in this FHI-aims run.
  If you publish the results, please make sure to cite these reference if they apply.
  FHI-aims is an academic code, and for our developers (often, Ph.D. students
  and postdocs), scientific credit in the community is essential.
  Thank you for helping us!

  For any use of FHI-aims, please cite:

    Volker Blum, Ralf Gehrke, Felix Hanke, Paula Havu, Ville Havu,
    Xinguo Ren, Karsten Reuter, and Matthias Scheffler
    'Ab initio molecular simulations with numeric atom-centered orbitals'
    Computer Physics Communications 180, 2175-2196 (2009)
    http://dx.doi.org/10.1016/j.cpc.2009.06.022


  The scalable eigensolver library ELPA was used in your run.
  ELPA is essential especially for large systems on hundreds or thousands of CPUs.
  For ELPA, please cite:

    Andreas Marek, Volker Blum, Rainer Johanni, Ville Havu, Bruno Lang,
    Thomas Auckenthaler, Alexander Heinecke, Hans-Joachim Bungartz, and Hermann Lederer,
    'The ELPA Library - Scalable Parallel Eigenvalue Solutions
    for Electronic Structure Theory and Computational Science'
    The Journal of Physics: Condensed Matter 26, 213201 (2014).
    http://dx.doi.org/10.1088/0953-8984/26/21/213201


  The ELSI infrastructure was used in your run to solve the Kohn-Sham electronic structure.
  Please check out http://elsi-interchange.org to learn more.
  If scalability is important for your project, please acknowledge ELSI by citing:

    V. W-z. Yu, F. Corsetti, A. Garcia, W. P. Huhn, M. Jacquelin, W. Jia,
    B. Lange, L. Lin, J. Lu, W. Mi, A. Seifitokaldani, A. Vazquez-Mayagoitia,
    C. Yang, H. Yang, and V. Blum
    'ELSI: A unified software interface for Kohn-Sham electronic structure solvers'
    Computer Physics Communications 222, 267-285 (2018).
    http://dx.doi.org/10.1016/j.cpc.2017.09.007


  For the real-space grid partitioning and parallelization used in this calculation, please cite:

    Ville Havu, Volker Blum, Paula Havu, and Matthias Scheffler,
    'Efficient O(N) integration for all-electron electronic structure calculation'
    'using numerically tabulated basis functions'
    Journal of Computational Physics 228, 8367-8379 (2009).
    http://dx.doi.org/10.1016/j.jcp.2009.08.008

  Of course, there are many other important community references, e.g., those cited in the
  above references. Our list is limited to references that describe implementations in the
  FHI-aims code. The reason is purely practical (length of this list) - please credit others as well.

------------------------------------------------------------
          Leaving FHI-aims.
          Date     :  20200710, Time     :  143330.249

          Computational steps:
          | Number of self-consistency cycles          :           16
          | Number of SCF (re)initializations          :            1

          Detailed time accounting                     :  max(cpu_time)    wall_clock(cpu1)
          | Total time                                 :       22.633 s          22.687 s
          | Preparation time                           :        0.145 s           0.145 s
          | Boundary condition initalization           :        0.000 s           0.000 s
          | Grid partitioning                          :        0.111 s           0.111 s
          | Preloading free-atom quantities on grid    :        0.002 s           0.003 s
          | Free-atom superposition energy             :        0.085 s           0.085 s
          | Total time for integrations                :        8.555 s           8.567 s
          | Total time for solution of K.-S. equations :        0.036 s           0.036 s
          | Total time for density & force components  :        7.108 s           7.122 s
          | Total time for mixing                      :        0.216 s           0.216 s
          | Total time for Hartree multipole update    :        0.140 s           0.141 s
          | Total time for Hartree multipole sum       :        5.840 s           5.843 s
          | Total time for total energy evaluation     :        0.003 s           0.004 s
          | Total time for vdW correction              :        0.088 s           0.089 s

          Partial memory accounting:
          | Residual value for overall tracked memory usage across tasks :           0.000 MB (should be 0.000 MB)
          | Peak values for overall tracked memory usage (after allocating hessian_basis_wave):
          |   Minimum:        1.622 MB (on task 1)
          |   Maximum:        1.622 MB (on task 1)
          |   Average:        1.622 MB
          | Largest tracked array allocation (hessian_basis_wave):
          |   Minimum:        0.794 MB (on task 1)
          |   Maximum:        0.794 MB (on task 1)
          |   Average:        0.794 MB
          Note:  These values currently only include a subset of arrays which are explicitly tracked.
          The "true" memory usage will be greater.

          Have a nice day.
------------------------------------------------------------
