  MPI-parallelism will be employed.
------------------------------------------------------------
          Invoking FHI-aims ...
          Version 171221_1
          Compiled on 2019/09/09 at 14:39:39 on host puhti-login2.bullx.

          When using FHI-aims, please cite the following reference:

          Volker Blum, Ralf Gehrke, Felix Hanke, Paula Havu,
          Ville Havu, Xinguo Ren, Karsten Reuter, and Matthias Scheffler,
          'Ab Initio Molecular Simulations with Numeric Atom-Centered Orbitals',
          Computer Physics Communications 180, 2175-2196 (2009)

          For any questions about FHI-aims, please visit the aimsclub website
          with its forums and wiki. Contributions to both the forums and the
          wiki are warmly encouraged - they are for you, and everyone is welcome there.

------------------------------------------------------------



  Date     :  20200805, Time     :  181015.243
  Time zero on CPU 1             :   0.116080000000000E-01  s.
  Internal wall clock time zero  :           365883015.243  s.

  FHI-aims created a unique identifier for this run for later identification
  aims_uuid : F4F4481C-4FDA-4601-ACB4-E5D76490D0B8

  Using        1 parallel tasks.
  Task        0 on host r16c42.bullx reporting.

  Performing system and environment tests:
  | Environment variable OMP_NUM_THREADS correctly set to 1.
  | Stacksize not measured: no C compiler
  | Checking for scalapack...
  | Testing pdtran()...
  | All pdtran() tests passed.

  Obtaining array dimensions for all initial allocations:
  
  -----------------------------------------------------------------------
  Parsing control.in (first pass over file, find array dimensions only).
  The contents of control.in will be repeated verbatim below
  unless switched off by setting 'verbatim_writeout .false.' .
  in the first line of control.in .
  -----------------------------------------------------------------------
  
  #########################################################################################
  #
  #  Volker Blum, FHI 2009 : Test run input file control.in for simple H2O
  #
  #########################################################################################
  #
  #  Physical model
  #
    xc                 pbe
    vdw_correction_hirshfeld
    spin               none
    relativistic       none
    charge             0.
  #
  #  SCF convergence
  #
    occupation_type    gaussian 0.01
    mixer              pulay
      n_max_pulay        10
      charge_mix_param   0.2
    sc_accuracy_rho    1E-5
    sc_accuracy_eev    1E-3
    sc_accuracy_etot   1E-6
    sc_accuracy_forces 1E-4
    sc_iter_limit      100
  #
  #  Relaxation
  #
  #  relax_geometry   bfgs 1.e-3
  #
  ################################################################################
  #
  #  FHI-aims code project
  #  VB, Fritz-Haber Institut, 2009
  #
  #  Suggested "light" defaults for H atom (to be pasted into control.in file)
  #  Be sure to double-check any results obtained with these settings for post-processing,
  #  e.g., with the "tight" defaults and larger basis sets.
  #
  ################################################################################
    species        H
  #     global species definitions
      nucleus             1
      mass                1.00794
  #
      l_hartree           4
  #
      cut_pot             3.5  1.5  1.0
      basis_dep_cutoff    1e-4
  #
      radial_base         24 5.0
      radial_multiplier   1
      angular_grids       specified
        division   0.2421   50
        division   0.3822  110
        division   0.4799  194
        division   0.5341  302
  #      division   0.5626  434
  #      division   0.5922  590
  #      division   0.6542  770
  #      division   0.6868 1202
  #      outer_grid  770
        outer_grid  302
  ################################################################################
  #
  #  Definition of "minimal" basis
  #
  ################################################################################
  #     valence basis states
      valence      1  s   1.
  #     ion occupancy
      ion_occ      1  s   0.5
  ################################################################################
  #
  #  Suggested additional basis functions. For production calculations,
  #  uncomment them one after another (the most important basis functions are
  #  listed first).
  #
  #  Basis constructed for dimers: 0.5 A, 0.7 A, 1.0 A, 1.5 A, 2.5 A
  #
  ################################################################################
  #  "First tier" - improvements: -1014.90 meV to -62.69 meV
       hydro 2 s 2.1
       hydro 2 p 3.5
  #  "Second tier" - improvements: -12.89 meV to -1.83 meV
  #     hydro 1 s 0.85
  #     hydro 2 p 3.7
  #     hydro 2 s 1.2
  #     hydro 3 d 7
  #  "Third tier" - improvements: -0.25 meV to -0.12 meV
  #     hydro 4 f 11.2
  #     hydro 3 p 4.8
  #     hydro 4 d 9
  #     hydro 3 s 3.2
  ################################################################################
  #
  #  FHI-aims code project
  #  VB, Fritz-Haber Institut, 2009
  #
  #  Suggested "light" defaults for C atom (to be pasted into control.in file)
  #  Be sure to double-check any results obtained with these settings for post-processing,
  #  e.g., with the "tight" defaults and larger basis sets.
  #
  ################################################################################
    species        C
  #     global species definitions
      nucleus             6
      mass                12.0107
  #
      l_hartree           4
  #
      cut_pot             3.5  1.5  1.0
      basis_dep_cutoff    1e-4
  #
      radial_base         34 5.0
      radial_multiplier   1
      angular_grids specified
        division   0.3326   50
        division   0.5710  110
        division   0.7727  194
        division   0.8772  302
  #      division   0.9334  434
  #      division   0.9625  590
  #      division   0.9924  770
  #      division   1.0230  974
  #      division   1.4589 1202
  #     outer_grid  974
       outer_grid 302
  ################################################################################
  #
  #  Definition of "minimal" basis
  #
  ################################################################################
  #     valence basis states
      valence      2  s   2.
      valence      2  p   2.
  #     ion occupancy
      ion_occ      2  s   1.
      ion_occ      2  p   1.
  ################################################################################
  #
  #  Suggested additional basis functions. For production calculations,
  #  uncomment them one after another (the most important basis functions are
  #  listed first).
  #
  #  Constructed for dimers: 1.0 A, 1.25 A, 1.5 A, 2.0 A, 3.0 A
  #
  ################################################################################
  #  "First tier" - improvements: -1214.57 meV to -155.61 meV
       hydro 2 p 1.7
       hydro 3 d 6
       hydro 2 s 4.9
  #  "Second tier" - improvements: -67.75 meV to -5.23 meV
  #     hydro 4 f 9.8
  #     hydro 3 p 5.2
  #     hydro 3 s 4.3
  #     hydro 5 g 14.4
  #     hydro 3 d 6.2
  #  "Third tier" - improvements: -2.43 meV to -0.60 meV
  #     hydro 2 p 5.6
  #     hydro 2 s 1.4
  #     hydro 3 d 4.9
  #     hydro 4 f 11.2
  #  "Fourth tier" - improvements: -0.39 meV to -0.18 meV
  #     hydro 2 p 2.1
  #     hydro 5 g 16.4
  #     hydro 4 d 13.2
  #     hydro 3 s 13.6
  #     hydro 4 f 17.6
  #  Further basis functions - improvements: -0.08 meV and below
  #     hydro 3 s 2
  #     hydro 3 p 6
  #     hydro 4 d 20
  ################################################################################
  #
  #  FHI-aims code project
  #  VB, Fritz-Haber Institut, 2009
  #
  #  Suggested "light" defaults for N atom (to be pasted into control.in file)
  #  Be sure to double-check any results obtained with these settings for post-processing,
  #  e.g., with the "tight" defaults and larger basis sets.
  #
  ################################################################################
    species        N
  #     global species definitions
      nucleus             7
      mass                14.0067
  #
      l_hartree           4
  #
      cut_pot             3.5  1.5  1.0
      basis_dep_cutoff    1e-4
  #
      radial_base         35 5.0
      radial_multiplier   1
      angular_grids       specified
        division   0.2599   50
        division   0.4601  110
        division   0.5885  194
        division   0.6503  302
  #      division   0.6939  434
  #      division   0.7396  590
  #      division   0.7632  770
  #      division   0.8122  974
  #      division   1.1604 1202
  #      outer_grid  974
        outer_grid  302
  ################################################################################
  #
  #  Definition of "minimal" basis
  #
  ################################################################################
  #     valence basis states
      valence      2  s   2.
      valence      2  p   3.
  #     ion occupancy
      ion_occ      2  s   1.
      ion_occ      2  p   2.
  ################################################################################
  #
  #  Suggested additional basis functions. For production calculations,
  #  uncomment them one after another (the most important basis functions are
  #  listed first).
  #
  #  Constructed for dimers: 1.0 A, 1.1 A, 1.5 A, 2.0 A, 3.0 A
  #
  ################################################################################
  #  "First tier" - improvements: -1193.42 meV to -220.60 meV
       hydro 2 p 1.8
       hydro 3 d 6.8
       hydro 3 s 5.8
  #  "Second tier" - improvements: -80.21 meV to -6.86 meV
  #     hydro 4 f 10.8
  #     hydro 3 p 5.8
  #     hydro 1 s 0.8
  #     hydro 5 g 16
  #     hydro 3 d 4.9
  #  "Third tier" - improvements: -4.29 meV to -0.53 meV
  #     hydro 3 s 16
  #     ionic 2 p auto
  #     hydro 3 d 6.6
  #     hydro 4 f 11.6
  #  "Fourth tier" - improvements: -0.75 meV to -0.25 meV
  #     hydro 2 p 4.5
  #     hydro 2 s 2.4
  #     hydro 5 g 14.4
  #     hydro 4 d 14.4
  #     hydro 4 f 16.8
  # Further basis functions - -0.21 meV and below
  #     hydro 3 p 14.8
  #     hydro 3 s 4.4
  #     hydro 3 d 19.6
  #     hydro 5 g 12.8
  ################################################################################
  #
  #  FHI-aims code project
  #  VB, Fritz-Haber Institut, 2009
  #
  #  Suggested "light" defaults for O atom (to be pasted into control.in file)
  #  Be sure to double-check any results obtained with these settings for post-processing,
  #  e.g., with the "tight" defaults and larger basis sets.
  #
  ################################################################################
    species        O
  #     global species definitions
      nucleus             8
      mass                15.9994
  #
      l_hartree           4
  #
      cut_pot             3.5  1.5  1.0
      basis_dep_cutoff    1e-4
  #
      radial_base         36 5.0
      radial_multiplier   1
       angular_grids specified
        division   0.2659   50
        division   0.4451  110
        division   0.6052  194
        division   0.7543  302
  #      division   0.8014  434
  #      division   0.8507  590
  #      division   0.8762  770
  #      division   0.9023  974
  #      division   1.2339 1202
  #      outer_grid 974
        outer_grid 302
  ################################################################################
  #
  #  Definition of "minimal" basis
  #
  ################################################################################
  #     valence basis states
      valence      2  s   2.
      valence      2  p   4.
  #     ion occupancy
      ion_occ      2  s   1.
      ion_occ      2  p   3.
  ################################################################################
  #
  #  Suggested additional basis functions. For production calculations,
  #  uncomment them one after another (the most important basis functions are
  #  listed first).
  #
  #  Constructed for dimers: 1.0 A, 1.208 A, 1.5 A, 2.0 A, 3.0 A
  #
  ################################################################################
  #  "First tier" - improvements: -699.05 meV to -159.38 meV
       hydro 2 p 1.8
       hydro 3 d 7.6
       hydro 3 s 6.4
  #  "Second tier" - improvements: -49.91 meV to -5.39 meV
  #     hydro 4 f 11.6
  #     hydro 3 p 6.2
  #     hydro 3 d 5.6
  #     hydro 5 g 17.6
  #     hydro 1 s 0.75
  #  "Third tier" - improvements: -2.83 meV to -0.50 meV
  #     ionic 2 p auto
  #     hydro 4 f 10.8
  #     hydro 4 d 4.7
  #     hydro 2 s 6.8
  #  "Fourth tier" - improvements: -0.40 meV to -0.12 meV
  #     hydro 3 p 5
  #     hydro 3 s 3.3
  #     hydro 5 g 15.6
  #     hydro 4 f 17.6
  #     hydro 4 d 14
  # Further basis functions - -0.08 meV and below
  #     hydro 3 s 2.1
  #     hydro 4 d 11.6
  #     hydro 3 p 16
  #     hydro 2 s 17.2
  
  -----------------------------------------------------------------------
  Completed first pass over input file control.in .
  -----------------------------------------------------------------------
  
  
  -----------------------------------------------------------------------
  Parsing geometry.in (first pass over file, find array dimensions only).
  The contents of geometry.in will be repeated verbatim below
  unless switched off by setting 'verbatim_writeout .false.' .
  in the first line of geometry.in .
  -----------------------------------------------------------------------
  
  atom  0.00000 0.00000 0.00000 C
  atom  1.09300 0.00000 0.00000 H
  atom  -0.47961 0.00000 -1.41207 N
  atom  0.11462 0.62388 -1.95933 H
  atom  -0.42333 -0.94880 -1.77639 H
  atom  -0.49584 1.26211 0.72868 C
  atom  -1.58789 1.28919 0.74431 H
  atom  -0.13407 1.27425 1.75947 H
  atom  -0.13407 2.16087 0.22380 H
  atom  -0.39425 -1.28861 0.74398 C
  atom  -0.10189 -1.56493 1.88303 O
  atom  -1.10210 -2.13717 0.06896 O
  atom  -1.31735 -2.74964 0.79252 H
  
  -----------------------------------------------------------------------
  Completed first pass over input file geometry.in .
  -----------------------------------------------------------------------
  

  Basic array size parameters:
  | Number of species                 :        4
  | Number of atoms                   :       13
  | Max. basis fn. angular momentum   :        2
  | Max. atomic/ionic basis occupied n:        2
  | Max. number of basis fn. types    :        2
  | Max. radial fns per species/type  :        3
  | Max. logarithmic grid size        :     1301
  | Max. radial integration grid size :       36
  | Max. angular integration grid size:      302
  | Max. angular grid division number :        8
  | Radial grid for Hartree potential :     1301
  | Number of spin channels           :        1

------------------------------------------------------------
          Reading file control.in.
------------------------------------------------------------
  XC: Using PBE gradient-corrected functionals.
  Spin treatment: No spin polarisation.
  Non-relativistic treatment of kinetic energy.
  Charge =   0.000000E+00: Neutral system requested explicitly.
  Occupation type: Gaussian broadening, width =   0.100000E-01 eV.
  Using pulay charge density mixing.
  Pulay mixing - number of memorized iterations:   10
  Charge density mixing - mixing parameter:     0.2000
  Convergence accuracy of self-consistent charge density:  0.1000E-04
  Convergence accuracy of sum of eigenvalues:  0.1000E-02
  Convergence accuracy of total energy:  0.1000E-05
  Convergence accuracy of forces:  0.1000E-03
  Maximum number of s.-c. iterations  :   100
 
  Reading configuration options for species H                   .
  | Found nuclear charge :   1.0000
  | Found atomic mass :    1.00794000000000      amu
  | Found l_max for Hartree potential  :   4
  | Found cutoff potl. onset [A], width [A], scale factor :    3.50000    1.50000    1.00000
  | Threshold for basis-dependent cutoff potential is   0.100000E-03
  | Found data for basic radial integration grid :    24 points, outermost radius =    5.000 A
  | Found multiplier for basic radial grid :   1
  | Found angular grid specification: user-specified.
  | Specified grid contains     5 separate shells.
  | Check grid settings after all constraints further below.
  | Found free-atom valence shell :  1 s   1.000
  | No ionic wave fns used. Skipping ion_occ.
  | Found hydrogenic basis function :  2 s   2.100
  | Found hydrogenic basis function :  2 p   3.500
  Species H                   : Missing cutoff potential type.
  Defaulting to exp(1/x)/(1-x)^2 type cutoff potential.
  Species H : No 'logarithmic' tag. Using default grid for free atom:
  | Default logarithmic grid data [bohr] : 0.1000E-03 0.1000E+03 0.1012E+01
  Species H : On-site basis accuracy parameter (for Gram-Schmidt orthonormalisation) not specified.
  Using default value basis_acc =  0.1000000E-03.
  Species H                   : Using default innermost maximum threshold i_radial=  2 for radial functions.
  Species H                   : Default cutoff onset for free atom density etc. : 0.35000000E+01 AA.
  Species H                   : Basic radial grid will be enhanced according to radial_multiplier =   1, to contain    24 grid points.
 
  Reading configuration options for species C                   .
  | Found nuclear charge :   6.0000
  | Found atomic mass :    12.0107000000000      amu
  | Found l_max for Hartree potential  :   4
  | Found cutoff potl. onset [A], width [A], scale factor :    3.50000    1.50000    1.00000
  | Threshold for basis-dependent cutoff potential is   0.100000E-03
  | Found data for basic radial integration grid :    34 points, outermost radius =    5.000 A
  | Found multiplier for basic radial grid :   1
  | Found angular grid specification: user-specified.
  | Specified grid contains     5 separate shells.
  | Check grid settings after all constraints further below.
  | Found free-atom valence shell :  2 s   2.000
  | Found free-atom valence shell :  2 p   2.000
  | No ionic wave fns used. Skipping ion_occ.
  | No ionic wave fns used. Skipping ion_occ.
  | Found hydrogenic basis function :  2 p   1.700
  | Found hydrogenic basis function :  3 d   6.000
  | Found hydrogenic basis function :  2 s   4.900
  Species C                   : Missing cutoff potential type.
  Defaulting to exp(1/x)/(1-x)^2 type cutoff potential.
  Species C : No 'logarithmic' tag. Using default grid for free atom:
  | Default logarithmic grid data [bohr] : 0.1000E-03 0.1000E+03 0.1012E+01
  Species C : On-site basis accuracy parameter (for Gram-Schmidt orthonormalisation) not specified.
  Using default value basis_acc =  0.1000000E-03.
  Species C                   : Using default innermost maximum threshold i_radial=  2 for radial functions.
  Species C                   : Default cutoff onset for free atom density etc. : 0.35000000E+01 AA.
  Species C                   : Basic radial grid will be enhanced according to radial_multiplier =   1, to contain    34 grid points.
 
  Reading configuration options for species N                   .
  | Found nuclear charge :   7.0000
  | Found atomic mass :    14.0067000000000      amu
  | Found l_max for Hartree potential  :   4
  | Found cutoff potl. onset [A], width [A], scale factor :    3.50000    1.50000    1.00000
  | Threshold for basis-dependent cutoff potential is   0.100000E-03
  | Found data for basic radial integration grid :    35 points, outermost radius =    5.000 A
  | Found multiplier for basic radial grid :   1
  | Found angular grid specification: user-specified.
  | Specified grid contains     5 separate shells.
  | Check grid settings after all constraints further below.
  | Found free-atom valence shell :  2 s   2.000
  | Found free-atom valence shell :  2 p   3.000
  | No ionic wave fns used. Skipping ion_occ.
  | No ionic wave fns used. Skipping ion_occ.
  | Found hydrogenic basis function :  2 p   1.800
  | Found hydrogenic basis function :  3 d   6.800
  | Found hydrogenic basis function :  3 s   5.800
  Species N                   : Missing cutoff potential type.
  Defaulting to exp(1/x)/(1-x)^2 type cutoff potential.
  Species N : No 'logarithmic' tag. Using default grid for free atom:
  | Default logarithmic grid data [bohr] : 0.1000E-03 0.1000E+03 0.1012E+01
  Species N : On-site basis accuracy parameter (for Gram-Schmidt orthonormalisation) not specified.
  Using default value basis_acc =  0.1000000E-03.
  Species N                   : Using default innermost maximum threshold i_radial=  2 for radial functions.
  Species N                   : Default cutoff onset for free atom density etc. : 0.35000000E+01 AA.
  Species N                   : Basic radial grid will be enhanced according to radial_multiplier =   1, to contain    35 grid points.
 
  Reading configuration options for species O                   .
  | Found nuclear charge :   8.0000
  | Found atomic mass :    15.9994000000000      amu
  | Found l_max for Hartree potential  :   4
  | Found cutoff potl. onset [A], width [A], scale factor :    3.50000    1.50000    1.00000
  | Threshold for basis-dependent cutoff potential is   0.100000E-03
  | Found data for basic radial integration grid :    36 points, outermost radius =    5.000 A
  | Found multiplier for basic radial grid :   1
  | Found angular grid specification: user-specified.
  | Specified grid contains     5 separate shells.
  | Check grid settings after all constraints further below.
  | Found free-atom valence shell :  2 s   2.000
  | Found free-atom valence shell :  2 p   4.000
  | No ionic wave fns used. Skipping ion_occ.
  | No ionic wave fns used. Skipping ion_occ.
  | Found hydrogenic basis function :  2 p   1.800
  | Found hydrogenic basis function :  3 d   7.600
  | Found hydrogenic basis function :  3 s   6.400
  Species O                   : Missing cutoff potential type.
  Defaulting to exp(1/x)/(1-x)^2 type cutoff potential.
  Species O : No 'logarithmic' tag. Using default grid for free atom:
  | Default logarithmic grid data [bohr] : 0.1000E-03 0.1000E+03 0.1012E+01
  Species O : On-site basis accuracy parameter (for Gram-Schmidt orthonormalisation) not specified.
  Using default value basis_acc =  0.1000000E-03.
  Species O                   : Using default innermost maximum threshold i_radial=  2 for radial functions.
  Species O                   : Default cutoff onset for free atom density etc. : 0.35000000E+01 AA.
  Species O                   : Basic radial grid will be enhanced according to radial_multiplier =   1, to contain    36 grid points.
 
  Finished reading input file 'control.in'. Consistency checks are next.
 
  MPI_IN_PLACE appears to work with this MPI implementation.
  | Keeping use_mpi_in_place .true. (see manual).
  Target number of points in a grid batch is not set. Defaulting to  100
  Method for grid partitioning is not set. Defaulting to parallel hash+maxmin partitioning.
  Batch size limit is not set. Defaulting to    200
  By default, will store active basis functions for each batch.
  If in need of memory, prune_basis_once .false. can be used to disable this option.
  communication_type for Hartree potential was not specified.
  Defaulting to calc_hartree .
  Pulay mixer: Number of initial linear mixing iterations not set.
  Defaulting to    0 iterations.
  Work space size for distributed Hartree potential not set.
  Defaulting to   0.200000E+03 MB.
  Algorithm-dependent basis array size parameters:
  | n_max_pulay                         :       10
  Presetting      1001 iterations before the initial mixing cycle
  is restarted anyway using the sc_init_iter criterion / keyword.
  Presetting a factor      1.000 between actual scf density residual
  and density convergence criterion sc_accuracy_rho below which sc_init_iter
  takes no effect.
  Geometry relaxation not requested: no relaxation will be performed.
  Handling of forces: Unphysical translation and rotation will be removed from forces.
  No accuracy limit for integral partition fn. given. Defaulting to  0.1000E-14.
  No threshold value for u(r) in integrations given. Defaulting to  0.1000E-05.
  No accuracy for occupation numbers given. Defaulting to  0.1000E-12.
  No threshold value for occupation numbers given. Defaulting to  0.0000E+00.
  No accuracy for fermi level given. Defaulting to  0.1000E-19.
  Maximum # of iterations to find E_F not set. Defaulting to  200.
  Preferred method for the eigenvalue solver ('KS_method') not specified in 'control.in'.
  Defaulting to serial version, 'lapack_fast'.
  Will not use alltoall communication since running on < 1024 CPUs.
  Threshold for basis singularities not set.
  Default threshold for basis singularities:  0.1000E-04
  partition_type (choice of integration weights) for integrals was not specified.
  | Using a version of the partition function of Stratmann and coworkers ('stratmann_smoother').
  | At each grid point, the set of atoms used to build the partition table is smoothly restricted to
  | only those atoms whose free-atom density would be non-zero at that grid point.
  Partitioning for Hartree potential was not defined. Using partition_type for integrals.
  | Adjusted default value of keyword multip_moments_threshold to:       0.10000000E-11
  | This value may affect high angular momentum components of the Hartree potential in periodic systems.
  No q(lm)/r^(l+1) cutoff set for long-range Hartree potential.
  | Using default value of  0.100000E-09 .
  | Verify using the multipole_threshold keyword.
  Defaulting to new monopole extrapolation.
  Density update method: automatic selection selected.
------------------------------------------------------------


------------------------------------------------------------
          Reading geometry description geometry.in.
------------------------------------------------------------
  Input structure read successfully.
  The structure contains       13 atoms,  and a total of         48.000 electrons.

  Input geometry:
  | No unit cell requested.
  | Atomic structure:
  |       Atom                x [A]            y [A]            z [A]
  |    1: Species C             0.00000000        0.00000000        0.00000000
  |    2: Species H             1.09300000        0.00000000        0.00000000
  |    3: Species N            -0.47961000        0.00000000       -1.41207000
  |    4: Species H             0.11462000        0.62388000       -1.95933000
  |    5: Species H            -0.42333000       -0.94880000       -1.77639000
  |    6: Species C            -0.49584000        1.26211000        0.72868000
  |    7: Species H            -1.58789000        1.28919000        0.74431000
  |    8: Species H            -0.13407000        1.27425000        1.75947000
  |    9: Species H            -0.13407000        2.16087000        0.22380000
  |   10: Species C            -0.39425000       -1.28861000        0.74398000
  |   11: Species O            -0.10189000       -1.56493000        1.88303000
  |   12: Species O            -1.10210000       -2.13717000        0.06896000
  |   13: Species H            -1.31735000       -2.74964000        0.79252000
  |

  | The smallest distance between any two atoms is         0.97210655 AA.
  |
  | The first atom of this pair is atom number                     12 .
  | The second atom of this pair is atom number                    13 .

  Number of empty states per atom not set in control.in - providing a guess from actual geometry.
  | Total number of empty states used during s.c.f. cycle:       29
  If you use a very high smearing, use empty_states (per atom!) in control.in to increase this value.

  Structure-dependent array size parameters: 
  | Maximum number of distinct radial functions  :       21
  | Maximum number of basis functions            :      119
  | Number of Kohn-Sham states (occupied + empty):       53
------------------------------------------------------------

------------------------------------------------------------
          Preparing all fixed parts of the calculation.
------------------------------------------------------------
  Determining machine precision:
    2.225073858507201E-308
  Setting up grids for atomic and cluster calculations.

  Creating wave function, potential, and density for free atoms.

  Species: H

  List of occupied orbitals and eigenvalues:
    n    l              occ      energy [Ha]    energy [eV]
    1    0           1.0000        -0.237589        -6.4651


  Species: C

  List of occupied orbitals and eigenvalues:
    n    l              occ      energy [Ha]    energy [eV]
    1    0           2.0000       -10.038835      -273.1706
    2    0           2.0000        -0.502696       -13.6791
    2    1           2.0000        -0.191971        -5.2238


  Species: N

  List of occupied orbitals and eigenvalues:
    n    l              occ      energy [Ha]    energy [eV]
    1    0           2.0000       -14.128000      -384.4424
    2    0           2.0000        -0.681077       -18.5330
    2    1           3.0000        -0.259788        -7.0692


  Species: O

  List of occupied orbitals and eigenvalues:
    n    l              occ      energy [Ha]    energy [eV]
    1    0           2.0000       -18.898188      -514.2459
    2    0           2.0000        -0.878505       -23.9053
    2    1           4.0000        -0.331779        -9.0282

  Creating fixed part of basis set: Ionic, confined, hydrogenic.
 
  H                    hydrogenic:
 
  List of hydrogenic basis orbitals: 
    n    l      effective z      eigenvalue [eV]  inner max. [A]     outer max. [A]     outer radius [A]   
    2    0         2.100000       -14.9728           0.193243           1.317208           4.583499
    2    1         3.500000       -41.6669           0.602369           0.602369           3.723403
 
 
  C                    hydrogenic:
 
  List of hydrogenic basis orbitals: 
    n    l      effective z      eigenvalue [eV]  inner max. [A]     outer max. [A]     outer radius [A]   
    2    1         1.700000        -9.7616           1.230570           1.230570           4.607917
    3    2         6.000000       -54.4224           0.792453           0.792453           3.883070
    2    0         4.900000       -81.6679           0.082559           0.562749           3.078220
 
 
  N                    hydrogenic:
 
  List of hydrogenic basis orbitals: 
    n    l      effective z      eigenvalue [eV]  inner max. [A]     outer max. [A]     outer radius [A]   
    2    1         1.800000       -10.9749           1.177451           1.177451           4.573712
    3    2         6.800000       -69.9026           0.704619           0.704619           3.538137
    3    0         5.800000       -50.8545           0.067388           1.191934           4.250239
 
 
  O                    hydrogenic:
 
  List of hydrogenic basis orbitals: 
    n    l      effective z      eigenvalue [eV]  inner max. [A]     outer max. [A]     outer radius [A]   
    2    1         1.800000       -10.9749           1.164242           1.164242           4.578029
    3    2         7.600000       -87.3180           0.624125           0.624125           3.251020
    3    0         6.400000       -61.9207           0.061167           1.081902           4.001998
 

  Adding cutoff potential to free-atom effective potential.
  Creating atomic-like basis functions for current effective potential.

  Species H                   :

  List of atomic basis orbitals and eigenvalues:
    n    l      energy [Ha]    energy [eV]    outer radius [A]
    1    0        -0.237589        -6.4651       4.527807


  Species C                   :

  List of atomic basis orbitals and eigenvalues:
    n    l      energy [Ha]    energy [eV]    outer radius [A]
    1    0       -10.038835      -273.1706       1.934409
    2    0        -0.502696       -13.6791       4.496620
    2    1        -0.191971        -5.2238       4.551928


  Species N                   :

  List of atomic basis orbitals and eigenvalues:
    n    l      energy [Ha]    energy [eV]    outer radius [A]
    1    0       -14.128000      -384.4424       1.637919
    2    0        -0.681077       -18.5330       4.463241
    2    1        -0.259788        -7.0692       4.518138


  Species O                   :

  List of atomic basis orbitals and eigenvalues:
    n    l      energy [Ha]    energy [eV]    outer radius [A]
    1    0       -18.898188      -514.2459       1.415765
    2    0        -0.878505       -23.9053       4.413171
    2    1        -0.331779        -9.0282       4.522403

  Assembling full basis from fixed parts.
  | Species H :   atomic orbital   1 s accepted.
  | Species H :    hydro orbital   2 s accepted.
  | Species H :    hydro orbital   2 p accepted.
  | Species C :   atomic orbital   1 s accepted.
  | Species C :    hydro orbital   2 s accepted.
  | Species C :   atomic orbital   2 s accepted.
  | Species C :   atomic orbital   2 p accepted.
  | Species C :    hydro orbital   2 p accepted.
  | Species C :    hydro orbital   3 d accepted.
  | Species N :   atomic orbital   1 s accepted.
  | Species N :    hydro orbital   3 s accepted.
  | Species N :   atomic orbital   2 s accepted.
  | Species N :   atomic orbital   2 p accepted.
  | Species N :    hydro orbital   2 p accepted.
  | Species N :    hydro orbital   3 d accepted.
  | Species O :   atomic orbital   1 s accepted.
  | Species O :    hydro orbital   3 s accepted.
  | Species O :   atomic orbital   2 s accepted.
  | Species O :   atomic orbital   2 p accepted.
  | Species O :    hydro orbital   2 p accepted.
  | Species O :    hydro orbital   3 d accepted.
 
  Basis size parameters after reduction:
  | Total number of radial functions:       21
  | Total number of basis functions :      119
 
  Per-task memory consumption for arrays in subroutine allocate_ext:
  |           5.250512MB.
  Testing on-site integration grid accuracy.
  |  Species  Function  <phi|h_atom|phi> (log., in eV)  <phi|h_atom|phi> (rad., in eV)
           1        1                 -6.4663192853                 -6.4651273558
           1        2                 13.7111246313                 13.7170609718
           1        3                 25.2673269279                 25.2674696378
           2        4               -273.1705927641               -273.1705631568
           2        5                -10.7109323383                -10.7107120029
           2        6                 17.4381822266                 17.4352413244
           2        7                 -5.2255326521                 -5.2270484734
           2        8                  8.6835629259                  8.6603288385
           2        9                 27.4952418996                 27.4953360207
           3       10               -384.4424306495               -384.4423701208
           3       11                 12.5842251816                 12.5842222903
           3       12                -15.7264628251                -15.7264433455
           3       13                 -7.0696854293                 -7.0701769954
           3       14                  8.8090390882                  8.7901077751
           3       15                 35.9586762123                 35.9588528632
           4       16               -514.2458688638               -514.2457643834
           4       17                 15.1795651126                 15.1795290741
           4       18                -21.5359799773                -21.5360846186
           4       19                 -9.0283069236                 -9.0284644067
           4       20                  8.3027758564                  8.2834874195
           4       21                 45.8339351984                 45.8338762259

  Preparing densities etc. for the partition functions (integrals / Hartree potential).

  Preparations completed.
  max(cpu_time)          :      0.147 s.
  Wall clock time (cpu1) :      0.148 s.
------------------------------------------------------------

------------------------------------------------------------
          Begin self-consistency loop: Initialization.

          Date     :  20200805, Time     :  181015.405
------------------------------------------------------------

  Initializing index lists of integration centers etc. from given atomic structure:
  | Number of centers in hartree potential         :        13
  | Number of centers in hartree multipole         :        13
  | Number of centers in electron density summation:        13
  | Number of centers in basis integrals           :        13
  | Number of centers in integrals                 :        13
  | Number of centers in hamiltonian               :        13
  Partitioning the integration grid into batches with parallel hashing+maxmin method.
  | Number of batches:      955
  | Maximal batch size:     139
  | Minimal batch size:      66
  | Average batch size:      72.928
  | Standard deviation of batch sizes:      17.594

  Integration load balanced across     1 MPI tasks.
  Work distribution over tasks is as follows:
  Task     0 has      69646 integration points.
  Initializing partition tables, free-atom densities, potentials, etc. across the integration grid (initialize_grid_storage).
  | initialize_grid_storage: Actual outermost partition radius vs. multipole_radius_free
  | (-- VB: in principle, multipole_radius_free should be larger, hence this output)
  | Species        1: Confinement radius =              4.999999999999999 AA, multipole_radius_free =              5.054417573612229 AA.
  | Species        1: outer_partition_radius set to              5.054417573612229 AA .
  | Species        2: Confinement radius =              4.999999999999999 AA, multipole_radius_free =              5.019602836301480 AA.
  | Species        2: outer_partition_radius set to              5.019602836301480 AA .
  | Species        3: Confinement radius =              4.999999999999999 AA, multipole_radius_free =              5.043624274424571 AA.
  | Species        3: outer_partition_radius set to              5.043624274424571 AA .
  | Species        4: Confinement radius =              4.999999999999999 AA, multipole_radius_free =              5.048384829883283 AA.
  | Species        4: outer_partition_radius set to              5.048384829883283 AA .
  | Original list of interatomic distances with          13 x         13 entries is created.
  | Net number of integration points:    69646
  | of which are non-zero points    :    59650
  Renormalizing the initial density to the exact electron count on the 3D integration grid.
  | Initial density: Formal number of electrons (from input files) :      48.0000000000
  | Integrated number of electrons on 3D grid     :      47.9999291645
  | Charge integration error                      :      -0.0000708355
  | Normalization factor for density and gradient :       1.0000014757
  Obtaining max. number of non-zero basis functions in each batch (get_n_compute_maxes).
  | Maximal number of non-zero basis functions:      119 in task     0
  Selecting the method for density update.
  Loop over occupied states selected for charge density update.
  Allocating        0.050 MB for KS_eigenvector
  Integrating Hamiltonian matrix: batch-based integration.
  Time summed over all CPUs for integration: real work        0.506 s, elapsed        0.506 s
  Integrating overlap matrix.
  Time summed over all CPUs for integration: real work        0.211 s, elapsed        0.211 s

  Updating Kohn-Sham eigenvalues and eigenvectors using ELSI and the ELPA eigensolver.
  Overlap matrix is nonsingular
  | Lowest eigenvalue of overlap  :  0.51E-02
  | Highest eigenvalue of overlap :  0.60E+01
  Finished singularity check of overlap matrix
  | Time :     0.002 s
  Finished Cholesky decomposition
  | Time :     0.000 s
  Finished transformation to standard eigenproblem
  | Time :     0.000 s
  Starting LAPACK eigensolver
  Finished solving standard eigenproblem
  | Time :     0.002 s
  Finished back-transformation of eigenvectors
  | Time :     0.000 s

  Obtaining occupation numbers and chemical potential using ELSI.
  | Chemical potential (Fermi level):    -8.81211791eV
  Writing Kohn-Sham eigenvalues.

  State    Occupation    Eigenvalue [Ha]    Eigenvalue [eV]
      1       2.00000         -19.007946         -517.23254
      2       2.00000         -18.978347         -516.42709
      3       2.00000         -14.245788         -387.64763
      4       2.00000         -10.166621         -276.64783
      5       2.00000         -10.141236         -275.95707
      6       2.00000         -10.132057         -275.70731
      7       2.00000          -1.188556          -32.34225
      8       2.00000          -1.093179          -29.74691
      9       2.00000          -0.991184          -26.97148
     10       2.00000          -0.861551          -23.44399
     11       2.00000          -0.760880          -20.70460
     12       2.00000          -0.680263          -18.51091
     13       2.00000          -0.619350          -16.85337
     14       2.00000          -0.605370          -16.47295
     15       2.00000          -0.587796          -15.99474
     16       2.00000          -0.572000          -15.56492
     17       2.00000          -0.545196          -14.83553
     18       2.00000          -0.527489          -14.35371
     19       2.00000          -0.515187          -14.01894
     20       2.00000          -0.506322          -13.77771
     21       2.00000          -0.480237          -13.06790
     22       2.00000          -0.429034          -11.67460
     23       2.00000          -0.402002          -10.93903
     24       2.00000          -0.389399          -10.59609
     25       0.00000          -0.148776           -4.04841
     26       0.00000          -0.058131           -1.58183
     27       0.00000          -0.027674           -0.75305
     28       0.00000          -0.019516           -0.53106
     29       0.00000           0.005611            0.15267
     30       0.00000           0.011524            0.31357
     31       0.00000           0.017666            0.48072
     32       0.00000           0.031137            0.84728
     33       0.00000           0.041702            1.13478
     34       0.00000           0.058858            1.60161
     35       0.00000           0.079914            2.17458
     36       0.00000           0.132666            3.61003
     37       0.00000           0.152169            4.14073
     38       0.00000           0.199770            5.43602
     39       0.00000           0.212146            5.77280
     40       0.00000           0.219855            5.98255
     41       0.00000           0.263081            7.15881
     42       0.00000           0.279488            7.60527
     43       0.00000           0.296995            8.08166
     44       0.00000           0.299496            8.14970
     45       0.00000           0.337606            9.18674
     46       0.00000           0.353316            9.61423
     47       0.00000           0.389324           10.59403
     48       0.00000           0.424746           11.55792
     49       0.00000           0.435117           11.84014
     50       0.00000           0.469516           12.77617
     51       0.00000           0.477798           13.00153
     52       0.00000           0.531217           14.45516
     53       0.00000           0.595051           16.19217

  Highest occupied state (VBM) at    -10.59608710 eV
  | Occupation number:      2.00000000

  Lowest unoccupied state (CBM) at    -4.04840683 eV
  | Occupation number:      0.00000000

  Overall HOMO-LUMO gap:      6.54768027 eV.
  Calculating total energy contributions from superposition of free atom densities.

  Total energy components:
  | Sum of eigenvalues            :        -188.85397664 Ha       -5138.97817271 eV
  | XC energy correction          :         -41.78729231 Ha       -1137.09007827 eV
  | XC potential correction       :          53.71796303 Ha        1461.74014644 eV
  | Free-atom electrostatic energy:        -146.85110046 Ha       -3996.02175898 eV
  | Hartree energy correction     :           0.00000000 Ha           0.00000000 eV
  | vdW energy correction         :           0.00000000 Ha           0.00000000 eV
  | Entropy correction            :           0.00000000 Ha           0.00000000 eV
  | ---------------------------
  | Total energy                  :        -323.77440639 Ha       -8810.34986351 eV
  | Total energy, T -> 0          :        -323.77440639 Ha       -8810.34986351 eV  <-- do not rely on this value for anything but (periodic) metals
  | Electronic free energy        :        -323.77440639 Ha       -8810.34986351 eV

  Derived energy quantities:
  | Kinetic energy                :         320.48025600 Ha        8720.71147072 eV
  | Electrostatic energy          :        -602.46737008 Ha      -16393.97125597 eV
  | Energy correction for multipole
  | error in Hartree potential    :           0.00000000 Ha           0.00000000 eV
  | Sum of eigenvalues per atom                           :        -395.30601329 eV
  | Total energy (T->0) per atom                          :        -677.71922027 eV  <-- do not rely on this value for anything but (periodic) metals
  | Electronic free energy per atom                       :        -677.71922027 eV
  Initialize hartree_potential_storage
  Max. number of atoms included in rho_multipole:           13

  End scf initialization - timings             :  max(cpu_time)    wall_clock(cpu1)
  | Time for scf. initialization               :        1.163 s           1.165 s
  | Boundary condition initialization          :        0.000 s           0.000 s
  | Integration                                :        0.717 s           0.717 s
  | Solution of K.-S. eqns.                    :        0.005 s           0.005 s
  | Grid partitioning                          :        0.111 s           0.111 s
  | Preloading free-atom quantities on grid    :        0.002 s           0.003 s
  | Free-atom superposition energy             :        0.085 s           0.085 s
  | Total energy evaluation                    :        0.000 s           0.000 s

  Partial memory accounting:
  | Current value for overall tracked memory usage on task 0  :           0.165 MB
  | Peak value for overall tracked memory usage on task 0     :           0.678 MB after allocating wave
  | Largest tracked array allocation on task 0 so far         :           0.132 MB  when allocating H_times_psi
  Note:  These values currently only include a subset of arrays which are explicitly tracked.
  The "true" memory usage will be greater.
------------------------------------------------------------

------------------------------------------------------------
          Begin self-consistency iteration #    1

  Date     :  20200805, Time     :  181016.570
------------------------------------------------------------
  Evaluating new KS density.
  Integration grid: deviation in total charge (<rho> - N_e) =   2.842171E-14
  Pulay mixing of updated and previous charge densities.

  Evaluating partitioned Hartree potential by multipole expansion.
  | Analytical far-field extrapolation by fixed multipoles:
  | Hartree multipole sum: apparent total charge =  -0.183081E-03
  Summing up the Hartree potential.
  Time summed over all CPUs for potential: real work        0.282 s, elapsed        0.282 s
  | RMS charge density error from multipole expansion :   0.590919E-02

  Integrating Hamiltonian matrix: batch-based integration.
  Time summed over all CPUs for integration: real work        0.491 s, elapsed        0.491 s

  Updating Kohn-Sham eigenvalues and eigenvectors using ELSI and the ELPA eigensolver.
  Finished Cholesky decomposition
  | Time :     0.000 s
  Finished transformation to standard eigenproblem
  | Time :     0.000 s
  Starting LAPACK eigensolver
  Finished solving standard eigenproblem
  | Time :     0.002 s
  Finished back-transformation of eigenvectors
  | Time :     0.000 s

  Obtaining occupation numbers and chemical potential using ELSI.
  | Chemical potential (Fermi level):    -7.77511660eV
  Writing Kohn-Sham eigenvalues.

  State    Occupation    Eigenvalue [Ha]    Eigenvalue [eV]
      1       2.00000         -18.908790         -514.53435
      2       2.00000         -18.839044         -512.63646
      3       2.00000         -14.094055         -383.51874
      4       2.00000         -10.115989         -275.27005
      5       2.00000         -10.061699         -273.79276
      6       2.00000         -10.028453         -272.88809
      7       2.00000          -1.140818          -31.04323
      8       2.00000          -1.031833          -28.07760
      9       2.00000          -0.920114          -25.03759
     10       2.00000          -0.793853          -21.60183
     11       2.00000          -0.710519          -19.33420
     12       2.00000          -0.632159          -17.20193
     13       2.00000          -0.562664          -15.31087
     14       2.00000          -0.540626          -14.71118
     15       2.00000          -0.532387          -14.48699
     16       2.00000          -0.512234          -13.93859
     17       2.00000          -0.488691          -13.29797
     18       2.00000          -0.468018          -12.73543
     19       2.00000          -0.452247          -12.30627
     20       2.00000          -0.442566          -12.04284
     21       2.00000          -0.426701          -11.61114
     22       2.00000          -0.369054          -10.04247
     23       2.00000          -0.332764           -9.05498
     24       2.00000          -0.313921           -8.54222
     25       0.00000          -0.112018           -3.04816
     26       0.00000          -0.032123           -0.87410
     27       0.00000           0.000312            0.00850
     28       0.00000           0.016760            0.45607
     29       0.00000           0.038843            1.05696
     30       0.00000           0.049076            1.33543
     31       0.00000           0.058740            1.59839
     32       0.00000           0.069656            1.89545
     33       0.00000           0.085939            2.33853
     34       0.00000           0.098951            2.69259
     35       0.00000           0.121071            3.29450
     36       0.00000           0.160052            4.35523
     37       0.00000           0.177221            4.82242
     38       0.00000           0.227461            6.18953
     39       0.00000           0.242393            6.59586
     40       0.00000           0.261860            7.12558
     41       0.00000           0.298040            8.11008
     42       0.00000           0.312361            8.49979
     43       0.00000           0.333573            9.07699
     44       0.00000           0.341605            9.29555
     45       0.00000           0.376190           10.23664
     46       0.00000           0.391468           10.65239
     47       0.00000           0.426006           11.59222
     48       0.00000           0.462270           12.57901
     49       0.00000           0.476414           12.96387
     50       0.00000           0.503325           13.69617
     51       0.00000           0.516686           14.05974
     52       0.00000           0.567168           15.43342
     53       0.00000           0.630158           17.14747

  Highest occupied state (VBM) at     -8.54221808 eV
  | Occupation number:      2.00000000

  Lowest unoccupied state (CBM) at    -3.04816149 eV
  | Occupation number:      0.00000000

  Overall HOMO-LUMO gap:      5.49405659 eV.

  Total energy components:
  | Sum of eigenvalues            :        -185.43839643 Ha       -5046.03550626 eV
  | XC energy correction          :         -42.11494623 Ha       -1146.00599498 eV
  | XC potential correction       :          54.14410515 Ha        1473.33606373 eV
  | Free-atom electrostatic energy:        -146.85110046 Ha       -3996.02175898 eV
  | Hartree energy correction     :          -3.33431304 Ha         -90.73127410 eV
  | vdW energy correction         :           0.00000000 Ha           0.00000000 eV
  | Entropy correction            :           0.00000000 Ha           0.00000000 eV
  | ---------------------------
  | Total energy                  :        -323.59465100 Ha       -8805.45847060 eV
  | Total energy, T -> 0          :        -323.59465100 Ha       -8805.45847060 eV  <-- do not rely on this value for anything but (periodic) metals
  | Electronic free energy        :        -323.59465100 Ha       -8805.45847060 eV

  Derived energy quantities:
  | Kinetic energy                :         322.26221728 Ha        8769.20110417 eV
  | Electrostatic energy          :        -603.74192205 Ha      -16428.65357979 eV
  | Energy correction for multipole
  | error in Hartree potential    :           0.01206480 Ha           0.32830002 eV
  | Sum of eigenvalues per atom                           :        -388.15657740 eV
  | Total energy (T->0) per atom                          :        -677.34295928 eV  <-- do not rely on this value for anything but (periodic) metals
  | Electronic free energy per atom                       :        -677.34295928 eV

  Self-consistency convergence accuracy:
  | Change of charge density      :  0.5805E+00
  | Change of sum of eigenvalues  :  0.9294E+02 eV
  | Change of total energy        :  0.4891E+01 eV

  End self-consistency iteration #     1       :  max(cpu_time)    wall_clock(cpu1)
  | Time for this iteration                    :        1.180 s           1.181 s
  | Charge density update                      :        0.390 s           0.390 s
  | Density mixing                             :        0.005 s           0.006 s
  | Hartree multipole update                   :        0.009 s           0.009 s
  | Hartree multipole summation                :        0.283 s           0.283 s
  | Integration                                :        0.491 s           0.491 s
  | Solution of K.-S. eqns.                    :        0.002 s           0.002 s
  | Total energy evaluation                    :        0.000 s           0.000 s

  Partial memory accounting:
  | Current value for overall tracked memory usage on task 0  :           0.165 MB
  | Peak value for overall tracked memory usage on task 0     :           0.695 MB after allocating gradient_basis_wave
  | Largest tracked array allocation on task 0 so far         :           0.397 MB  when allocating gradient_basis_wave
  Note:  These values currently only include a subset of arrays which are explicitly tracked.
  The "true" memory usage will be greater.
------------------------------------------------------------

------------------------------------------------------------
          Begin self-consistency iteration #    2

  Date     :  20200805, Time     :  181017.752
------------------------------------------------------------
  Evaluating new KS density.
  Integration grid: deviation in total charge (<rho> - N_e) =  -7.105427E-15
  Pulay mixing of updated and previous charge densities.

  Evaluating partitioned Hartree potential by multipole expansion.
  | Analytical far-field extrapolation by fixed multipoles:
  | Hartree multipole sum: apparent total charge =  -0.327623E-03
  Summing up the Hartree potential.
  Time summed over all CPUs for potential: real work        0.287 s, elapsed        0.287 s
  | RMS charge density error from multipole expansion :   0.141552E-01

  Integrating Hamiltonian matrix: batch-based integration.
  Time summed over all CPUs for integration: real work        0.500 s, elapsed        0.500 s

  Updating Kohn-Sham eigenvalues and eigenvectors using ELSI and the ELPA eigensolver.
  Finished Cholesky decomposition
  | Time :     0.000 s
  Finished transformation to standard eigenproblem
  | Time :     0.000 s
  Starting LAPACK eigensolver
  Finished solving standard eigenproblem
  | Time :     0.001 s
  Finished back-transformation of eigenvectors
  | Time :     0.000 s

  Obtaining occupation numbers and chemical potential using ELSI.
  | Chemical potential (Fermi level):    -2.43683670eV
  Highest occupied state (VBM) at     -6.44537255 eV
  | Occupation number:      2.00000000

  Lowest unoccupied state (CBM) at    -1.76772211 eV
  | Occupation number:      0.00000000

  Overall HOMO-LUMO gap:      4.67765044 eV.

  Checking to see if s.c.f. parameters should be adjusted.

  Total energy components:
  | Sum of eigenvalues            :        -181.82482125 Ha       -4947.70512277 eV
  | XC energy correction          :         -42.47767701 Ha       -1155.87640175 eV
  | XC potential correction       :          54.61431870 Ha        1486.13122535 eV
  | Free-atom electrostatic energy:        -146.85110046 Ha       -3996.02175898 eV
  | Hartree energy correction     :          -6.97825661 Ha        -189.88802381 eV
  | vdW energy correction         :           0.00000000 Ha           0.00000000 eV
  | Entropy correction            :           0.00000000 Ha           0.00000000 eV
  | ---------------------------
  | Total energy                  :        -323.51753664 Ha       -8803.36008196 eV
  | Total energy, T -> 0          :        -323.51753664 Ha       -8803.36008196 eV  <-- do not rely on this value for anything but (periodic) metals
  | Electronic free energy        :        -323.51753664 Ha       -8803.36008196 eV

  Derived energy quantities:
  | Kinetic energy                :         323.59103193 Ha        8805.35999053 eV
  | Electrostatic energy          :        -604.63089156 Ha      -16452.84367074 eV
  | Energy correction for multipole
  | error in Hartree potential    :           0.02693665 Ha           0.73298358 eV
  | Sum of eigenvalues per atom                           :        -380.59270175 eV
  | Total energy (T->0) per atom                          :        -677.18154477 eV  <-- do not rely on this value for anything but (periodic) metals
  | Electronic free energy per atom                       :        -677.18154477 eV

  Self-consistency convergence accuracy:
  | Change of charge density      :  0.3623E+00
  | Change of sum of eigenvalues  :  0.9833E+02 eV
  | Change of total energy        :  0.2098E+01 eV

  End self-consistency iteration #     2       :  max(cpu_time)    wall_clock(cpu1)
  | Time for this iteration                    :        1.192 s           1.193 s
  | Charge density update                      :        0.386 s           0.386 s
  | Density mixing                             :        0.007 s           0.008 s
  | Hartree multipole update                   :        0.009 s           0.009 s
  | Hartree multipole summation                :        0.287 s           0.287 s
  | Integration                                :        0.500 s           0.500 s
  | Solution of K.-S. eqns.                    :        0.002 s           0.002 s
  | Total energy evaluation                    :        0.000 s           0.000 s

  Partial memory accounting:
  | Current value for overall tracked memory usage on task 0  :           0.166 MB
  | Peak value for overall tracked memory usage on task 0     :           0.695 MB after allocating gradient_basis_wave
  | Largest tracked array allocation on task 0 so far         :           0.397 MB  when allocating gradient_basis_wave
  Note:  These values currently only include a subset of arrays which are explicitly tracked.
  The "true" memory usage will be greater.
------------------------------------------------------------

------------------------------------------------------------
          Begin self-consistency iteration #    3

  Date     :  20200805, Time     :  181018.946
------------------------------------------------------------
  Evaluating new KS density.
  Integration grid: deviation in total charge (<rho> - N_e) =  -2.131628E-14
  Pulay mixing of updated and previous charge densities.

  Evaluating partitioned Hartree potential by multipole expansion.
  | Analytical far-field extrapolation by fixed multipoles:
  | Hartree multipole sum: apparent total charge =  -0.429917E-03
  Summing up the Hartree potential.
  Time summed over all CPUs for potential: real work        0.283 s, elapsed        0.283 s
  | RMS charge density error from multipole expansion :   0.225963E-01

  Integrating Hamiltonian matrix: batch-based integration.
  Time summed over all CPUs for integration: real work        0.502 s, elapsed        0.502 s

  Updating Kohn-Sham eigenvalues and eigenvectors using ELSI and the ELPA eigensolver.
  Finished Cholesky decomposition
  | Time :     0.000 s
  Finished transformation to standard eigenproblem
  | Time :     0.000 s
  Starting LAPACK eigensolver
  Finished solving standard eigenproblem
  | Time :     0.002 s
  Finished back-transformation of eigenvectors
  | Time :     0.000 s

  Obtaining occupation numbers and chemical potential using ELSI.
  | Chemical potential (Fermi level):    -1.81947034eV
  Highest occupied state (VBM) at     -5.79084790 eV
  | Occupation number:      2.00000000

  Lowest unoccupied state (CBM) at    -1.06599517 eV
  | Occupation number:      0.00000000

  Overall HOMO-LUMO gap:      4.72485273 eV.

  Total energy components:
  | Sum of eigenvalues            :        -180.56889488 Ha       -4913.52962719 eV
  | XC energy correction          :         -42.62638903 Ha       -1159.92306163 eV
  | XC potential correction       :          54.80370220 Ha        1491.28461264 eV
  | Free-atom electrostatic energy:        -146.85110046 Ha       -3996.02175898 eV
  | Hartree energy correction     :          -8.26276682 Ha        -224.84132510 eV
  | vdW energy correction         :           0.00000000 Ha           0.00000000 eV
  | Entropy correction            :           0.00000000 Ha           0.00000000 eV
  | ---------------------------
  | Total energy                  :        -323.50544899 Ha       -8803.03116027 eV
  | Total energy, T -> 0          :        -323.50544899 Ha       -8803.03116027 eV  <-- do not rely on this value for anything but (periodic) metals
  | Electronic free energy        :        -323.50544899 Ha       -8803.03116027 eV

  Derived energy quantities:
  | Kinetic energy                :         323.12000305 Ha        8792.54264267 eV
  | Electrostatic energy          :        -603.99906301 Ha      -16435.65074131 eV
  | Energy correction for multipole
  | error in Hartree potential    :           0.03873522 Ha           1.05403887 eV
  | Sum of eigenvalues per atom                           :        -377.96381748 eV
  | Total energy (T->0) per atom                          :        -677.15624310 eV  <-- do not rely on this value for anything but (periodic) metals
  | Electronic free energy per atom                       :        -677.15624310 eV

  Self-consistency convergence accuracy:
  | Change of charge density      :  0.2008E+00
  | Change of sum of eigenvalues  :  0.3418E+02 eV
  | Change of total energy        :  0.3289E+00 eV

  End self-consistency iteration #     3       :  max(cpu_time)    wall_clock(cpu1)
  | Time for this iteration                    :        1.181 s           1.189 s
  | Charge density update                      :        0.383 s           0.383 s
  | Density mixing                             :        0.008 s           0.008 s
  | Hartree multipole update                   :        0.009 s           0.009 s
  | Hartree multipole summation                :        0.283 s           0.283 s
  | Integration                                :        0.496 s           0.503 s
  | Solution of K.-S. eqns.                    :        0.002 s           0.003 s
  | Total energy evaluation                    :        0.000 s           0.000 s

  Partial memory accounting:
  | Current value for overall tracked memory usage on task 0  :           0.166 MB
  | Peak value for overall tracked memory usage on task 0     :           0.695 MB after allocating gradient_basis_wave
  | Largest tracked array allocation on task 0 so far         :           0.397 MB  when allocating gradient_basis_wave
  Note:  These values currently only include a subset of arrays which are explicitly tracked.
  The "true" memory usage will be greater.
------------------------------------------------------------

------------------------------------------------------------
          Begin self-consistency iteration #    4

  Date     :  20200805, Time     :  181020.136
------------------------------------------------------------
  Evaluating new KS density.
  Integration grid: deviation in total charge (<rho> - N_e) =  -2.842171E-14
  Pulay mixing of updated and previous charge densities.

  Evaluating partitioned Hartree potential by multipole expansion.
  | Analytical far-field extrapolation by fixed multipoles:
  | Hartree multipole sum: apparent total charge =  -0.461283E-03
  Summing up the Hartree potential.
  Time summed over all CPUs for potential: real work        0.283 s, elapsed        0.283 s
  | RMS charge density error from multipole expansion :   0.258145E-01

  Integrating Hamiltonian matrix: batch-based integration.
  Time summed over all CPUs for integration: real work        0.491 s, elapsed        0.491 s

  Updating Kohn-Sham eigenvalues and eigenvectors using ELSI and the ELPA eigensolver.
  Finished Cholesky decomposition
  | Time :     0.000 s
  Finished transformation to standard eigenproblem
  | Time :     0.000 s
  Starting LAPACK eigensolver
  Finished solving standard eigenproblem
  | Time :     0.002 s
  Finished back-transformation of eigenvectors
  | Time :     0.000 s

  Obtaining occupation numbers and chemical potential using ELSI.
  | Chemical potential (Fermi level):    -1.72494933eV
  Highest occupied state (VBM) at     -5.61277657 eV
  | Occupation number:      2.00000000

  Lowest unoccupied state (CBM) at    -0.99476091 eV
  | Occupation number:      0.00000000

  Overall HOMO-LUMO gap:      4.61801566 eV.

  Total energy components:
  | Sum of eigenvalues            :        -180.41423628 Ha       -4909.32115263 eV
  | XC energy correction          :         -42.66318984 Ha       -1160.92446275 eV
  | XC potential correction       :          54.85014881 Ha        1492.54848907 eV
  | Free-atom electrostatic energy:        -146.85110046 Ha       -3996.02175898 eV
  | Hartree energy correction     :          -8.42636879 Ha        -229.29316114 eV
  | vdW energy correction         :           0.00000000 Ha           0.00000000 eV
  | Entropy correction            :           0.00000000 Ha           0.00000000 eV
  | ---------------------------
  | Total energy                  :        -323.50474657 Ha       -8803.01204644 eV
  | Total energy, T -> 0          :        -323.50474657 Ha       -8803.01204644 eV  <-- do not rely on this value for anything but (periodic) metals
  | Electronic free energy        :        -323.50474657 Ha       -8803.01204644 eV

  Derived energy quantities:
  | Kinetic energy                :         322.78368742 Ha        8783.39102869 eV
  | Electrostatic energy          :        -603.62524415 Ha      -16425.47861237 eV
  | Energy correction for multipole
  | error in Hartree potential    :           0.04282918 Ha           1.16544135 eV
  | Sum of eigenvalues per atom                           :        -377.64008866 eV
  | Total energy (T->0) per atom                          :        -677.15477280 eV  <-- do not rely on this value for anything but (periodic) metals
  | Electronic free energy per atom                       :        -677.15477280 eV

  Self-consistency convergence accuracy:
  | Change of charge density      :  0.5859E-01
  | Change of sum of eigenvalues  :  0.4208E+01 eV
  | Change of total energy        :  0.1911E-01 eV

  End self-consistency iteration #     4       :  max(cpu_time)    wall_clock(cpu1)
  | Time for this iteration                    :        1.180 s           1.180 s
  | Charge density update                      :        0.385 s           0.385 s
  | Density mixing                             :        0.009 s           0.009 s
  | Hartree multipole update                   :        0.009 s           0.009 s
  | Hartree multipole summation                :        0.284 s           0.284 s
  | Integration                                :        0.491 s           0.491 s
  | Solution of K.-S. eqns.                    :        0.002 s           0.002 s
  | Total energy evaluation                    :        0.000 s           0.000 s

  Partial memory accounting:
  | Current value for overall tracked memory usage on task 0  :           0.166 MB
  | Peak value for overall tracked memory usage on task 0     :           0.696 MB after allocating gradient_basis_wave
  | Largest tracked array allocation on task 0 so far         :           0.397 MB  when allocating gradient_basis_wave
  Note:  These values currently only include a subset of arrays which are explicitly tracked.
  The "true" memory usage will be greater.
------------------------------------------------------------

------------------------------------------------------------
          Begin self-consistency iteration #    5

  Date     :  20200805, Time     :  181021.318
------------------------------------------------------------
  Evaluating new KS density.
  Integration grid: deviation in total charge (<rho> - N_e) =  -2.131628E-14
  Pulay mixing of updated and previous charge densities.

  Evaluating partitioned Hartree potential by multipole expansion.
  | Analytical far-field extrapolation by fixed multipoles:
  | Hartree multipole sum: apparent total charge =  -0.455229E-03
  Summing up the Hartree potential.
  Time summed over all CPUs for potential: real work        0.285 s, elapsed        0.285 s
  | RMS charge density error from multipole expansion :   0.255654E-01

  Integrating Hamiltonian matrix: batch-based integration.
  Time summed over all CPUs for integration: real work        0.498 s, elapsed        0.498 s

  Updating Kohn-Sham eigenvalues and eigenvectors using ELSI and the ELPA eigensolver.
  Finished Cholesky decomposition
  | Time :     0.000 s
  Finished transformation to standard eigenproblem
  | Time :     0.000 s
  Starting LAPACK eigensolver
  Finished solving standard eigenproblem
  | Time :     0.002 s
  Finished back-transformation of eigenvectors
  | Time :     0.000 s

  Obtaining occupation numbers and chemical potential using ELSI.
  | Chemical potential (Fermi level):    -1.77174145eV
  Highest occupied state (VBM) at     -5.68438326 eV
  | Occupation number:      2.00000000

  Lowest unoccupied state (CBM) at    -1.07168374 eV
  | Occupation number:      0.00000000

  Overall HOMO-LUMO gap:      4.61269952 eV.

  Total energy components:
  | Sum of eigenvalues            :        -180.58902109 Ha       -4914.07728933 eV
  | XC energy correction          :         -42.64164309 Ha       -1160.33814581 eV
  | XC potential correction       :          54.82220836 Ha        1491.78819073 eV
  | Free-atom electrostatic energy:        -146.85110046 Ha       -3996.02175898 eV
  | Hartree energy correction     :          -8.24489090 Ha        -224.35489648 eV
  | vdW energy correction         :           0.00000000 Ha           0.00000000 eV
  | Entropy correction            :           0.00000000 Ha           0.00000000 eV
  | ---------------------------
  | Total energy                  :        -323.50444719 Ha       -8803.00389987 eV
  | Total energy, T -> 0          :        -323.50444719 Ha       -8803.00389987 eV  <-- do not rely on this value for anything but (periodic) metals
  | Electronic free energy        :        -323.50444719 Ha       -8803.00389987 eV

  Derived energy quantities:
  | Kinetic energy                :         322.68920727 Ha        8780.82009312 eV
  | Electrostatic energy          :        -603.55201137 Ha      -16423.48584718 eV
  | Energy correction for multipole
  | error in Hartree potential    :           0.04224072 Ha           1.14942841 eV
  | Sum of eigenvalues per atom                           :        -378.00594533 eV
  | Total energy (T->0) per atom                          :        -677.15414614 eV  <-- do not rely on this value for anything but (periodic) metals
  | Electronic free energy per atom                       :        -677.15414614 eV

  Self-consistency convergence accuracy:
  | Change of charge density      :  0.2087E-01
  | Change of sum of eigenvalues  : -0.4756E+01 eV
  | Change of total energy        :  0.8147E-02 eV

  End self-consistency iteration #     5       :  max(cpu_time)    wall_clock(cpu1)
  | Time for this iteration                    :        1.187 s           1.188 s
  | Charge density update                      :        0.381 s           0.381 s
  | Density mixing                             :        0.011 s           0.011 s
  | Hartree multipole update                   :        0.009 s           0.009 s
  | Hartree multipole summation                :        0.285 s           0.286 s
  | Integration                                :        0.498 s           0.498 s
  | Solution of K.-S. eqns.                    :        0.002 s           0.002 s
  | Total energy evaluation                    :        0.000 s           0.001 s

  Partial memory accounting:
  | Current value for overall tracked memory usage on task 0  :           0.166 MB
  | Peak value for overall tracked memory usage on task 0     :           0.696 MB after allocating gradient_basis_wave
  | Largest tracked array allocation on task 0 so far         :           0.397 MB  when allocating gradient_basis_wave
  Note:  These values currently only include a subset of arrays which are explicitly tracked.
  The "true" memory usage will be greater.
------------------------------------------------------------

------------------------------------------------------------
          Begin self-consistency iteration #    6

  Date     :  20200805, Time     :  181022.506
------------------------------------------------------------
  Evaluating new KS density.
  Integration grid: deviation in total charge (<rho> - N_e) =   4.263256E-14
  Pulay mixing of updated and previous charge densities.

  Evaluating partitioned Hartree potential by multipole expansion.
  | Analytical far-field extrapolation by fixed multipoles:
  | Hartree multipole sum: apparent total charge =  -0.457147E-03
  Summing up the Hartree potential.
  Time summed over all CPUs for potential: real work        0.284 s, elapsed        0.284 s
  | RMS charge density error from multipole expansion :   0.259191E-01

  Integrating Hamiltonian matrix: batch-based integration.
  Time summed over all CPUs for integration: real work        0.493 s, elapsed        0.493 s

  Updating Kohn-Sham eigenvalues and eigenvectors using ELSI and the ELPA eigensolver.
  Finished Cholesky decomposition
  | Time :     0.000 s
  Finished transformation to standard eigenproblem
  | Time :     0.000 s
  Starting LAPACK eigensolver
  Finished solving standard eigenproblem
  | Time :     0.002 s
  Finished back-transformation of eigenvectors
  | Time :     0.000 s

  Obtaining occupation numbers and chemical potential using ELSI.
  | Chemical potential (Fermi level):    -1.77615588eV
  Highest occupied state (VBM) at     -5.66474828 eV
  | Occupation number:      2.00000000

  Lowest unoccupied state (CBM) at    -1.10055042 eV
  | Occupation number:      0.00000000

  Overall HOMO-LUMO gap:      4.56419786 eV.

  Total energy components:
  | Sum of eigenvalues            :        -180.62697202 Ha       -4915.10998670 eV
  | XC energy correction          :         -42.63577329 Ha       -1160.17842043 eV
  | XC potential correction       :          54.81458187 Ha        1491.58066336 eV
  | Free-atom electrostatic energy:        -146.85110046 Ha       -3996.02175898 eV
  | Hartree energy correction     :          -8.20511922 Ha        -223.27265395 eV
  | vdW energy correction         :           0.00000000 Ha           0.00000000 eV
  | Entropy correction            :           0.00000000 Ha           0.00000000 eV
  | ---------------------------
  | Total energy                  :        -323.50438313 Ha       -8803.00215669 eV
  | Total energy, T -> 0          :        -323.50438313 Ha       -8803.00215669 eV  <-- do not rely on this value for anything but (periodic) metals
  | Electronic free energy        :        -323.50438313 Ha       -8803.00215669 eV

  Derived energy quantities:
  | Kinetic energy                :         322.59418549 Ha        8778.23441885 eV
  | Electrostatic energy          :        -603.46279533 Ha      -16421.05815512 eV
  | Energy correction for multipole
  | error in Hartree potential    :           0.04248238 Ha           1.15600449 eV
  | Sum of eigenvalues per atom                           :        -378.08538359 eV
  | Total energy (T->0) per atom                          :        -677.15401205 eV  <-- do not rely on this value for anything but (periodic) metals
  | Electronic free energy per atom                       :        -677.15401205 eV

  Self-consistency convergence accuracy:
  | Change of charge density      :  0.1060E-01
  | Change of sum of eigenvalues  : -0.1033E+01 eV
  | Change of total energy        :  0.1743E-02 eV

  End self-consistency iteration #     6       :  max(cpu_time)    wall_clock(cpu1)
  | Time for this iteration                    :        1.189 s           1.190 s
  | Charge density update                      :        0.388 s           0.388 s
  | Density mixing                             :        0.012 s           0.013 s
  | Hartree multipole update                   :        0.009 s           0.008 s
  | Hartree multipole summation                :        0.285 s           0.285 s
  | Integration                                :        0.493 s           0.494 s
  | Solution of K.-S. eqns.                    :        0.002 s           0.002 s
  | Total energy evaluation                    :        0.000 s           0.000 s

  Partial memory accounting:
  | Current value for overall tracked memory usage on task 0  :           0.166 MB
  | Peak value for overall tracked memory usage on task 0     :           0.696 MB after allocating gradient_basis_wave
  | Largest tracked array allocation on task 0 so far         :           0.397 MB  when allocating gradient_basis_wave
  Note:  These values currently only include a subset of arrays which are explicitly tracked.
  The "true" memory usage will be greater.
------------------------------------------------------------

------------------------------------------------------------
          Begin self-consistency iteration #    7

  Date     :  20200805, Time     :  181023.697
------------------------------------------------------------
  Evaluating new KS density.
  Integration grid: deviation in total charge (<rho> - N_e) =   0.000000E+00
  Pulay mixing of updated and previous charge densities.

  Evaluating partitioned Hartree potential by multipole expansion.
  | Analytical far-field extrapolation by fixed multipoles:
  | Hartree multipole sum: apparent total charge =  -0.458537E-03
  Summing up the Hartree potential.
  Time summed over all CPUs for potential: real work        0.284 s, elapsed        0.284 s
  | RMS charge density error from multipole expansion :   0.260861E-01

  Integrating Hamiltonian matrix: batch-based integration.
  Time summed over all CPUs for integration: real work        0.493 s, elapsed        0.493 s

  Updating Kohn-Sham eigenvalues and eigenvectors using ELSI and the ELPA eigensolver.
  Finished Cholesky decomposition
  | Time :     0.000 s
  Finished transformation to standard eigenproblem
  | Time :     0.000 s
  Starting LAPACK eigensolver
  Finished solving standard eigenproblem
  | Time :     0.002 s
  Finished back-transformation of eigenvectors
  | Time :     0.000 s

[...]
  |   Hirshfeld dipole moment :      0.06422428
  |   Hirshfeld second moments:      0.00973045      -0.01505335      -0.01407030
  |                                 -0.01505335      -0.00823428       0.00656527
  |                                 -0.01407030       0.00656527      -0.02080516
  ----------------------------------------------------------------------
  | Atom    12: O
  |   Hirshfeld charge        :     -0.13269944
  |   Free atom volume        :     23.61338643
  |   Hirshfeld volume        :     20.57354531
  |   Hirshfeld dipole vector :      0.01337468       0.00337927       0.03207560
  |   Hirshfeld dipole moment :      0.03491627
  |   Hirshfeld second moments:      0.06618194       0.01655074      -0.02302795
  |                                  0.01655074       0.08866037      -0.01558601
  |                                 -0.02302795      -0.01558601       0.04957185
  ----------------------------------------------------------------------
  | Atom    13: H
  |   Hirshfeld charge        :      0.17239153
  |   Free atom volume        :      9.95071624
  |   Hirshfeld volume        :      6.37064388
  |   Hirshfeld dipole vector :     -0.04676707      -0.08433341       0.05843551
  |   Hirshfeld dipole moment :      0.11275633
  |   Hirshfeld second moments:      0.11594026       0.00106315      -0.01521530
  |                                  0.00106315       0.12288641      -0.00030358
  |                                 -0.01521530      -0.00030358       0.08377522
  ----------------------------------------------------------------------


  Total energy components:
  | Sum of eigenvalues            :        -180.61538712 Ha       -4914.79474542 eV
  | XC energy correction          :         -42.63379108 Ha       -1160.12448173 eV
  | XC potential correction       :          54.81209164 Ha        1491.51290097 eV
  | Free-atom electrostatic energy:        -146.85110046 Ha       -3996.02175898 eV
  | Hartree energy correction     :          -8.21617841 Ha        -223.57358984 eV
  | vdW energy correction         :          -0.00311499 Ha          -0.08476318 eV
  | Entropy correction            :           0.00000000 Ha           0.00000000 eV
  | ---------------------------
  | Total energy                  :        -323.50748041 Ha       -8803.08643818 eV
  | Total energy, T -> 0          :        -323.50748041 Ha       -8803.08643818 eV  <-- do not rely on this value for anything but (periodic) metals
  | Electronic free energy        :        -323.50748041 Ha       -8803.08643818 eV

  Derived energy quantities:
  | Kinetic energy                :         322.55548079 Ha        8777.18121032 eV
  | Electrostatic energy          :        -603.42605513 Ha      -16420.05840358 eV
  | Energy correction for multipole
  | error in Hartree potential    :           0.04261496 Ha           1.15961213 eV
  | Sum of eigenvalues per atom                           :        -378.06113426 eV
  | Total energy (T->0) per atom                          :        -677.16049524 eV  <-- do not rely on this value for anything but (periodic) metals
  | Electronic free energy per atom                       :        -677.16049524 eV

  atomic forces [eV/Ang]:
  -----------------------
  atom #    1
   Hellmann-Feynman              :  0.103756E+01  0.123558E+00  0.598675E+00
   Ionic forces                  :  0.000000E+00  0.000000E+00  0.000000E+00
   Multipole                     :  0.207375E+00  0.331003E+00 -0.321228E+00
   Pulay + GGA                   : -0.148665E+01 -0.470971E+00 -0.942838E+00
   Van der Waals                 :  0.151622E-02  0.657433E-03 -0.133103E-02
   ----------------------------------------------------------------
   Total forces(   1)            : -0.240194E+00 -0.157519E-01 -0.666722E+00
  atom #    2
   Hellmann-Feynman              :  0.432786E+00 -0.468554E-01  0.396293E+00
   Ionic forces                  :  0.000000E+00  0.000000E+00  0.000000E+00
   Multipole                     :  0.149598E+00  0.202230E-01 -0.391058E-01
   Pulay + GGA                   : -0.118062E+00  0.568061E-02  0.837149E-02
   Van der Waals                 :  0.877806E-02 -0.334719E-02 -0.137403E-02
   ----------------------------------------------------------------
   Total forces(   2)            :  0.473100E+00 -0.242990E-01  0.364184E+00
  atom #    3
   Hellmann-Feynman              : -0.118813E+02  0.339810E+01  0.724330E+00
   Ionic forces                  :  0.000000E+00  0.000000E+00  0.000000E+00
   Multipole                     : -0.820952E-01  0.149672E+00 -0.935531E+00
   Pulay + GGA                   :  0.116752E+02 -0.351114E+01  0.976035E+00
   Van der Waals                 :  0.280892E-02 -0.752854E-02 -0.637630E-02
   ----------------------------------------------------------------
   Total forces(   3)            : -0.285336E+00  0.291059E-01  0.758457E+00
  atom #    4
   Hellmann-Feynman              :  0.153043E+00 -0.847802E-01 -0.979261E-01
   Ionic forces                  :  0.000000E+00  0.000000E+00  0.000000E+00
   Multipole                     :  0.380566E-01  0.727710E-02 -0.100581E+00
   Pulay + GGA                   : -0.180068E+00 -0.826097E-01  0.102719E+00
   Van der Waals                 : -0.203421E-02 -0.555891E-02 -0.367512E-02
   ----------------------------------------------------------------
   Total forces(   4)            :  0.899694E-02 -0.165672E+00 -0.994625E-01
  atom #    5
   Hellmann-Feynman              :  0.227580E+00 -0.111034E+00 -0.297220E+00
   Ionic forces                  :  0.000000E+00  0.000000E+00  0.000000E+00
   Multipole                     :  0.123466E-01 -0.666749E-01 -0.952410E-01
   Pulay + GGA                   : -0.126294E+00  0.186285E+00  0.782035E-01
   Van der Waals                 : -0.356433E-02  0.210244E-02  0.649674E-03
   ----------------------------------------------------------------
   Total forces(   5)            :  0.110068E+00  0.106785E-01 -0.313608E+00
  atom #    6
   Hellmann-Feynman              : -0.257128E+00 -0.720229E+00  0.537499E+00
   Ionic forces                  :  0.000000E+00  0.000000E+00  0.000000E+00
   Multipole                     : -0.127218E+00  0.693810E+00  0.247924E+00
   Pulay + GGA                   :  0.447750E+00 -0.426862E+00 -0.657040E+00
   Van der Waals                 : -0.480731E-02  0.491820E-02  0.137104E-02
   ----------------------------------------------------------------
   Total forces(   6)            :  0.585965E-01 -0.448363E+00  0.129754E+00
  atom #    7
   Hellmann-Feynman              : -0.189322E+00 -0.399094E-01 -0.702185E-01
   Ionic forces                  :  0.000000E+00  0.000000E+00  0.000000E+00
   Multipole                     : -0.123603E+00  0.482589E-01  0.309360E-01
   Pulay + GGA                   :  0.118686E+00 -0.105469E-01 -0.372071E-01
   Van der Waals                 : -0.746779E-03  0.153882E-02  0.267494E-02
   ----------------------------------------------------------------
   Total forces(   7)            : -0.194986E+00 -0.658655E-03 -0.738147E-01
  atom #    8
   Hellmann-Feynman              :  0.127278E+00 -0.270945E-01  0.131158E+00
   Ionic forces                  :  0.000000E+00  0.000000E+00  0.000000E+00
   Multipole                     :  0.120972E-01  0.627788E-01  0.125728E+00
   Pulay + GGA                   : -0.412918E-01 -0.359906E-01 -0.881042E-01
   Van der Waals                 : -0.251571E-02  0.114317E-01  0.141134E-02
   ----------------------------------------------------------------
   Total forces(   8)            :  0.955678E-01  0.111254E-01  0.170193E+00
  atom #    9
   Hellmann-Feynman              :  0.119812E+00  0.409584E-01 -0.199595E+00
   Ionic forces                  :  0.000000E+00  0.000000E+00  0.000000E+00
   Multipole                     :  0.154436E-01  0.128207E+00 -0.738492E-02
   Pulay + GGA                   : -0.563045E-01 -0.739392E-01  0.628546E-01
   Van der Waals                 : -0.216655E-02  0.539418E-02  0.633876E-02
   ----------------------------------------------------------------
   Total forces(   9)            :  0.767849E-01  0.100620E+00 -0.137786E+00
  atom #   10
   Hellmann-Feynman              :  0.261494E+01  0.530811E+01  0.219199E+00
   Ionic forces                  :  0.000000E+00  0.000000E+00  0.000000E+00
   Multipole                     :  0.436830E-01 -0.224240E+00  0.235073E+00
   Pulay + GGA                   : -0.150855E+01 -0.288721E+01 -0.195980E+00
   Van der Waals                 :  0.330525E-02 -0.103507E-01 -0.144046E-02
   ----------------------------------------------------------------
   Total forces(  10)            :  0.115338E+01  0.218632E+01  0.256850E+00
  atom #   11
   Hellmann-Feynman              :  0.407142E+01 -0.248003E+01  0.143144E+02
   Ionic forces                  :  0.000000E+00  0.000000E+00  0.000000E+00
   Multipole                     :  0.154061E+00 -0.517173E+00  0.796822E+00
   Pulay + GGA                   : -0.347448E+01  0.349274E+01 -0.134749E+02
   Van der Waals                 : -0.311941E-02 -0.120182E-01  0.119523E-02
   ----------------------------------------------------------------
   Total forces(  11)            :  0.747881E+00  0.483519E+00  0.163756E+01
  atom #   12
   Hellmann-Feynman              : -0.447897E+01  0.283559E+00 -0.156200E+02
   Ionic forces                  :  0.000000E+00  0.000000E+00  0.000000E+00
   Multipole                     : -0.838526E+00 -0.104171E+01 -0.847984E+00
   Pulay + GGA                   :  0.361977E+01 -0.467935E+00  0.144557E+02
   Van der Waals                 :  0.481113E-03  0.618049E-02  0.477639E-02
   ----------------------------------------------------------------
   Total forces(  12)            : -0.169725E+01 -0.121990E+01 -0.200747E+01
  atom #   13
   Hellmann-Feynman              : -0.413646E+00 -0.115735E+01  0.127689E+00
   Ionic forces                  :  0.000000E+00  0.000000E+00  0.000000E+00
   Multipole                     :  0.751100E-02 -0.408558E-01  0.903440E-01
   Pulay + GGA                   :  0.955684E-01  0.240254E+00 -0.231511E+00
   Van der Waals                 :  0.206472E-02  0.658029E-02 -0.422044E-02
   ----------------------------------------------------------------
   Total forces(  13)            : -0.308502E+00 -0.951374E+00 -0.176976E-01

  Timings for VdW correction (Tkatchenko-Scheffler 2009 or later):
  | CPU time:        0.088 s, Wall clock time:        0.088 s.
  Removing unitary transformations (pure translations, rotations) from forces on atoms.
  Atomic forces before filtering:
  | Net force on center of mass :  -0.189170E-02 -0.465347E-02  0.435978E-03 eV/A
  | Net torque on center of mass:  -0.103964E-01  0.578599E-02 -0.997905E-03 eV
  Atomic forces after filtering:
  | Net force on center of mass :   0.446015E-16  0.713624E-15 -0.181194E-15 eV/A
  | Net torque on center of mass:  -0.849676E-15 -0.395335E-15  0.660859E-15 eV

  Energy and forces in a compact form:
  | Total energy uncorrected      :         -0.880308643817706E+04 eV
  | Total energy corrected        :         -0.880308643817706E+04 eV  <-- do not rely on this value for anything but (periodic) metals
  | Electronic free energy        :         -0.880308643817706E+04 eV
  Total atomic forces (unitary forces cleaned) [eV/Ang]:
  |   1         -0.240022549078495E+00         -0.153537942900339E-01         -0.666636807144631E+00
  |   2          0.473271565755522E+00         -0.238718519914478E-01          0.364508696736642E+00
  |   3         -0.284854579633050E+00          0.297980640670903E-01          0.758437018290083E+00
  |   4          0.958134084111628E-02         -0.164844811561715E+00         -0.992169864233542E-01
  |   5          0.110654277618444E+00          0.114513414967869E-01         -0.313822192983743E+00
  |   6          0.585748864570175E-01         -0.448136609464283E+00          0.130004053166089E+00
  |   7         -0.195011664024868E+00         -0.464372388060328E-03         -0.737977210451082E-01
  |   8          0.953200113148491E-01          0.111376604569785E-01          0.170525564658375E+00
  |   9          0.768501432894843E-01          0.100965883531565E+00         -0.137261141905874E+00
  |  10          0.115341949264326E+01          0.218654233032878E+01          0.256568952484724E+00
  |  11          0.747681133299976E+00          0.483505465423903E+00          0.163727814914904E+01
  |  12         -0.169703301349930E+01         -0.121954675477746E+01         -0.200808872389978E+01
  |  13         -0.308431044983961E+00         -0.951182550832105E+00         -0.184988610824622E-01

  ------------------------------------ 
  Start decomposition of the XC Energy 
  ------------------------------------ 
  X and C from original XC functional choice 
  Hartree-Fock Energy :          0.000000000 Ha              0.000000000 eV
  X Energy            :        -41.034215065 Ha          -1116.597803779 eV
  C Energy            :         -1.599576014 Ha            -43.526677953 eV
  Total XC Energy     :        -42.633791079 Ha          -1160.124481732 eV
  ------------------------------------ 
  LDA X and C from self-consistent density 
  X Energy LDA        :        -37.252253338 Ha          -1013.685389060 eV
  C Energy LDA        :         -3.138213281 Ha            -85.395128238 eV
  ------------------------------------ 
  End decomposition of the XC Energy 
  ------------------------------------ 

------------------------------------------------------------

------------------------------------------------------------------------------
  Final output of selected total energy values:

  The following output summarizes some interesting total energy values
  at the end of a run (AFTER all relaxation, molecular dynamics, etc.).

  | Total energy of the DFT / Hartree-Fock s.c.f. calculation      :          -8803.086438177 eV
  | Final zero-broadening corrected energy (caution - metals only) :          -8803.086438177 eV
  | For reference only, the value of 1 Hartree used in FHI-aims is :             27.211384500 eV

  Before relying on these values, please be sure to understand exactly which
  total energy value is referred to by a given number. Different objects may
  all carry the same name 'total energy'. Definitions:

  Total energy of the DFT / Hartree-Fock s.c.f. calculation:
  | Note that this energy does not include ANY quantities calculated after the
  | s.c.f. cycle, in particular not ANY RPA, MP2, etc. many-body perturbation terms.

  Final zero-broadening corrected energy:
  | For metallic systems only, a broadening of the occupation numbers at the Fermi
  | level can be extrapolated back to zero broadening by an electron-gas inspired
  | formula. For all systems that are not real metals, this value can be
  | meaningless and should be avoided.

------------------------------------------------------------------------------
  Methods described in the following list of references were used in this FHI-aims run.
  If you publish the results, please make sure to cite these reference if they apply.
  FHI-aims is an academic code, and for our developers (often, Ph.D. students
  and postdocs), scientific credit in the community is essential.
  Thank you for helping us!

  For any use of FHI-aims, please cite:

    Volker Blum, Ralf Gehrke, Felix Hanke, Paula Havu, Ville Havu,
    Xinguo Ren, Karsten Reuter, and Matthias Scheffler
    'Ab initio molecular simulations with numeric atom-centered orbitals'
    Computer Physics Communications 180, 2175-2196 (2009)
    http://dx.doi.org/10.1016/j.cpc.2009.06.022


  The scalable eigensolver library ELPA was used in your run.
  ELPA is essential especially for large systems on hundreds or thousands of CPUs.
  For ELPA, please cite:

    Andreas Marek, Volker Blum, Rainer Johanni, Ville Havu, Bruno Lang,
    Thomas Auckenthaler, Alexander Heinecke, Hans-Joachim Bungartz, and Hermann Lederer,
    'The ELPA Library - Scalable Parallel Eigenvalue Solutions
    for Electronic Structure Theory and Computational Science'
    The Journal of Physics: Condensed Matter 26, 213201 (2014).
    http://dx.doi.org/10.1088/0953-8984/26/21/213201


  The ELSI infrastructure was used in your run to solve the Kohn-Sham electronic structure.
  Please check out http://elsi-interchange.org to learn more.
  If scalability is important for your project, please acknowledge ELSI by citing:

    V. W-z. Yu, F. Corsetti, A. Garcia, W. P. Huhn, M. Jacquelin, W. Jia,
    B. Lange, L. Lin, J. Lu, W. Mi, A. Seifitokaldani, A. Vazquez-Mayagoitia,
    C. Yang, H. Yang, and V. Blum
    'ELSI: A unified software interface for Kohn-Sham electronic structure solvers'
    Computer Physics Communications 222, 267-285 (2018).
    http://dx.doi.org/10.1016/j.cpc.2017.09.007


  For the real-space grid partitioning and parallelization used in this calculation, please cite:

    Ville Havu, Volker Blum, Paula Havu, and Matthias Scheffler,
    'Efficient O(N) integration for all-electron electronic structure calculation'
    'using numerically tabulated basis functions'
    Journal of Computational Physics 228, 8367-8379 (2009).
    http://dx.doi.org/10.1016/j.jcp.2009.08.008

  Of course, there are many other important community references, e.g., those cited in the
  above references. Our list is limited to references that describe implementations in the
  FHI-aims code. The reason is purely practical (length of this list) - please credit others as well.

------------------------------------------------------------
          Leaving FHI-aims.
          Date     :  20200805, Time     :  181037.960

          Computational steps:
          | Number of self-consistency cycles          :           16
          | Number of SCF (re)initializations          :            1

          Detailed time accounting                     :  max(cpu_time)    wall_clock(cpu1)
          | Total time                                 :       22.670 s          22.717 s
          | Preparation time                           :        0.147 s           0.148 s
          | Boundary condition initalization           :        0.000 s           0.000 s
          | Grid partitioning                          :        0.111 s           0.111 s
          | Preloading free-atom quantities on grid    :        0.002 s           0.003 s
          | Free-atom superposition energy             :        0.085 s           0.085 s
          | Total time for integrations                :        8.623 s           8.635 s
          | Total time for solution of K.-S. equations :        0.038 s           0.038 s
          | Total time for density & force components  :        7.093 s           7.100 s
          | Total time for mixing                      :        0.217 s           0.220 s
          | Total time for Hartree multipole update    :        0.139 s           0.142 s
          | Total time for Hartree multipole sum       :        5.815 s           5.824 s
          | Total time for total energy evaluation     :        0.003 s           0.002 s
          | Total time for vdW correction              :        0.088 s           0.088 s

          Partial memory accounting:
          | Residual value for overall tracked memory usage across tasks :           0.000 MB (should be 0.000 MB)
          | Peak values for overall tracked memory usage (after allocating hessian_basis_wave):
          |   Minimum:        1.622 MB (on task 1)
          |   Maximum:        1.622 MB (on task 1)
          |   Average:        1.622 MB
          | Largest tracked array allocation (hessian_basis_wave):
          |   Minimum:        0.794 MB (on task 1)
          |   Maximum:        0.794 MB (on task 1)
          |   Average:        0.794 MB
          Note:  These values currently only include a subset of arrays which are explicitly tracked.
          The "true" memory usage will be greater.

          Have a nice day.
------------------------------------------------------------
