  MPI-parallelism will be employed.
------------------------------------------------------------
          Invoking FHI-aims ...
          Version 171221_1
          Compiled on 2019/09/09 at 14:39:39 on host puhti-login2.bullx.

          When using FHI-aims, please cite the following reference:

          Volker Blum, Ralf Gehrke, Felix Hanke, Paula Havu,
          Ville Havu, Xinguo Ren, Karsten Reuter, and Matthias Scheffler,
          'Ab Initio Molecular Simulations with Numeric Atom-Centered Orbitals',
          Computer Physics Communications 180, 2175-2196 (2009)

          For any questions about FHI-aims, please visit the aimsclub website
          with its forums and wiki. Contributions to both the forums and the
          wiki are warmly encouraged - they are for you, and everyone is welcome there.

------------------------------------------------------------



  Date     :  20200805, Time     :  182944.489
  Time zero on CPU 1             :   0.117180000000000E-01  s.
  Internal wall clock time zero  :           365884184.489  s.

  FHI-aims created a unique identifier for this run for later identification
  aims_uuid : F664F2E7-4203-4BD7-A126-050F8663BF2D

  Using        1 parallel tasks.
  Task        0 on host r16c03.bullx reporting.

  Performing system and environment tests:
  | Environment variable OMP_NUM_THREADS correctly set to 1.
  | Stacksize not measured: no C compiler
  | Checking for scalapack...
  | Testing pdtran()...
  | All pdtran() tests passed.

  Obtaining array dimensions for all initial allocations:
  
  -----------------------------------------------------------------------
  Parsing control.in (first pass over file, find array dimensions only).
  The contents of control.in will be repeated verbatim below
  unless switched off by setting 'verbatim_writeout .false.' .
  in the first line of control.in .
  -----------------------------------------------------------------------
  
  #########################################################################################
  #
  #  Volker Blum, FHI 2009 : Test run input file control.in for simple H2O
  #
  #########################################################################################
  #
  #  Physical model
  #
    xc                 pbe
    vdw_correction_hirshfeld
    spin               none
    relativistic       none
    charge             0.
  #
  #  SCF convergence
  #
    occupation_type    gaussian 0.01
    mixer              pulay
      n_max_pulay        10
      charge_mix_param   0.2
    sc_accuracy_rho    1E-5
    sc_accuracy_eev    1E-3
    sc_accuracy_etot   1E-6
    sc_accuracy_forces 1E-4
    sc_iter_limit      100
  #
  #  Relaxation
  #
  #  relax_geometry   bfgs 1.e-3
  #
  ################################################################################
  #
  #  FHI-aims code project
  #  VB, Fritz-Haber Institut, 2009
  #
  #  Suggested "light" defaults for H atom (to be pasted into control.in file)
  #  Be sure to double-check any results obtained with these settings for post-processing,
  #  e.g., with the "tight" defaults and larger basis sets.
  #
  ################################################################################
    species        H
  #     global species definitions
      nucleus             1
      mass                1.00794
  #
      l_hartree           4
  #
      cut_pot             3.5  1.5  1.0
      basis_dep_cutoff    1e-4
  #
      radial_base         24 5.0
      radial_multiplier   1
      angular_grids       specified
        division   0.2421   50
        division   0.3822  110
        division   0.4799  194
        division   0.5341  302
  #      division   0.5626  434
  #      division   0.5922  590
  #      division   0.6542  770
  #      division   0.6868 1202
  #      outer_grid  770
        outer_grid  302
  ################################################################################
  #
  #  Definition of "minimal" basis
  #
  ################################################################################
  #     valence basis states
      valence      1  s   1.
  #     ion occupancy
      ion_occ      1  s   0.5
  ################################################################################
  #
  #  Suggested additional basis functions. For production calculations,
  #  uncomment them one after another (the most important basis functions are
  #  listed first).
  #
  #  Basis constructed for dimers: 0.5 A, 0.7 A, 1.0 A, 1.5 A, 2.5 A
  #
  ################################################################################
  #  "First tier" - improvements: -1014.90 meV to -62.69 meV
       hydro 2 s 2.1
       hydro 2 p 3.5
  #  "Second tier" - improvements: -12.89 meV to -1.83 meV
  #     hydro 1 s 0.85
  #     hydro 2 p 3.7
  #     hydro 2 s 1.2
  #     hydro 3 d 7
  #  "Third tier" - improvements: -0.25 meV to -0.12 meV
  #     hydro 4 f 11.2
  #     hydro 3 p 4.8
  #     hydro 4 d 9
  #     hydro 3 s 3.2
  ################################################################################
  #
  #  FHI-aims code project
  #  VB, Fritz-Haber Institut, 2009
  #
  #  Suggested "light" defaults for C atom (to be pasted into control.in file)
  #  Be sure to double-check any results obtained with these settings for post-processing,
  #  e.g., with the "tight" defaults and larger basis sets.
  #
  ################################################################################
    species        C
  #     global species definitions
      nucleus             6
      mass                12.0107
  #
      l_hartree           4
  #
      cut_pot             3.5  1.5  1.0
      basis_dep_cutoff    1e-4
  #
      radial_base         34 5.0
      radial_multiplier   1
      angular_grids specified
        division   0.3326   50
        division   0.5710  110
        division   0.7727  194
        division   0.8772  302
  #      division   0.9334  434
  #      division   0.9625  590
  #      division   0.9924  770
  #      division   1.0230  974
  #      division   1.4589 1202
  #     outer_grid  974
       outer_grid 302
  ################################################################################
  #
  #  Definition of "minimal" basis
  #
  ################################################################################
  #     valence basis states
      valence      2  s   2.
      valence      2  p   2.
  #     ion occupancy
      ion_occ      2  s   1.
      ion_occ      2  p   1.
  ################################################################################
  #
  #  Suggested additional basis functions. For production calculations,
  #  uncomment them one after another (the most important basis functions are
  #  listed first).
  #
  #  Constructed for dimers: 1.0 A, 1.25 A, 1.5 A, 2.0 A, 3.0 A
  #
  ################################################################################
  #  "First tier" - improvements: -1214.57 meV to -155.61 meV
       hydro 2 p 1.7
       hydro 3 d 6
       hydro 2 s 4.9
  #  "Second tier" - improvements: -67.75 meV to -5.23 meV
  #     hydro 4 f 9.8
  #     hydro 3 p 5.2
  #     hydro 3 s 4.3
  #     hydro 5 g 14.4
  #     hydro 3 d 6.2
  #  "Third tier" - improvements: -2.43 meV to -0.60 meV
  #     hydro 2 p 5.6
  #     hydro 2 s 1.4
  #     hydro 3 d 4.9
  #     hydro 4 f 11.2
  #  "Fourth tier" - improvements: -0.39 meV to -0.18 meV
  #     hydro 2 p 2.1
  #     hydro 5 g 16.4
  #     hydro 4 d 13.2
  #     hydro 3 s 13.6
  #     hydro 4 f 17.6
  #  Further basis functions - improvements: -0.08 meV and below
  #     hydro 3 s 2
  #     hydro 3 p 6
  #     hydro 4 d 20
  ################################################################################
  #
  #  FHI-aims code project
  #  VB, Fritz-Haber Institut, 2009
  #
  #  Suggested "light" defaults for N atom (to be pasted into control.in file)
  #  Be sure to double-check any results obtained with these settings for post-processing,
  #  e.g., with the "tight" defaults and larger basis sets.
  #
  ################################################################################
    species        N
  #     global species definitions
      nucleus             7
      mass                14.0067
  #
      l_hartree           4
  #
      cut_pot             3.5  1.5  1.0
      basis_dep_cutoff    1e-4
  #
      radial_base         35 5.0
      radial_multiplier   1
      angular_grids       specified
        division   0.2599   50
        division   0.4601  110
        division   0.5885  194
        division   0.6503  302
  #      division   0.6939  434
  #      division   0.7396  590
  #      division   0.7632  770
  #      division   0.8122  974
  #      division   1.1604 1202
  #      outer_grid  974
        outer_grid  302
  ################################################################################
  #
  #  Definition of "minimal" basis
  #
  ################################################################################
  #     valence basis states
      valence      2  s   2.
      valence      2  p   3.
  #     ion occupancy
      ion_occ      2  s   1.
      ion_occ      2  p   2.
  ################################################################################
  #
  #  Suggested additional basis functions. For production calculations,
  #  uncomment them one after another (the most important basis functions are
  #  listed first).
  #
  #  Constructed for dimers: 1.0 A, 1.1 A, 1.5 A, 2.0 A, 3.0 A
  #
  ################################################################################
  #  "First tier" - improvements: -1193.42 meV to -220.60 meV
       hydro 2 p 1.8
       hydro 3 d 6.8
       hydro 3 s 5.8
  #  "Second tier" - improvements: -80.21 meV to -6.86 meV
  #     hydro 4 f 10.8
  #     hydro 3 p 5.8
  #     hydro 1 s 0.8
  #     hydro 5 g 16
  #     hydro 3 d 4.9
  #  "Third tier" - improvements: -4.29 meV to -0.53 meV
  #     hydro 3 s 16
  #     ionic 2 p auto
  #     hydro 3 d 6.6
  #     hydro 4 f 11.6
  #  "Fourth tier" - improvements: -0.75 meV to -0.25 meV
  #     hydro 2 p 4.5
  #     hydro 2 s 2.4
  #     hydro 5 g 14.4
  #     hydro 4 d 14.4
  #     hydro 4 f 16.8
  # Further basis functions - -0.21 meV and below
  #     hydro 3 p 14.8
  #     hydro 3 s 4.4
  #     hydro 3 d 19.6
  #     hydro 5 g 12.8
  ################################################################################
  #
  #  FHI-aims code project
  #  VB, Fritz-Haber Institut, 2009
  #
  #  Suggested "light" defaults for O atom (to be pasted into control.in file)
  #  Be sure to double-check any results obtained with these settings for post-processing,
  #  e.g., with the "tight" defaults and larger basis sets.
  #
  ################################################################################
    species        O
  #     global species definitions
      nucleus             8
      mass                15.9994
  #
      l_hartree           4
  #
      cut_pot             3.5  1.5  1.0
      basis_dep_cutoff    1e-4
  #
      radial_base         36 5.0
      radial_multiplier   1
       angular_grids specified
        division   0.2659   50
        division   0.4451  110
        division   0.6052  194
        division   0.7543  302
  #      division   0.8014  434
  #      division   0.8507  590
  #      division   0.8762  770
  #      division   0.9023  974
  #      division   1.2339 1202
  #      outer_grid 974
        outer_grid 302
  ################################################################################
  #
  #  Definition of "minimal" basis
  #
  ################################################################################
  #     valence basis states
      valence      2  s   2.
      valence      2  p   4.
  #     ion occupancy
      ion_occ      2  s   1.
      ion_occ      2  p   3.
  ################################################################################
  #
  #  Suggested additional basis functions. For production calculations,
  #  uncomment them one after another (the most important basis functions are
  #  listed first).
  #
  #  Constructed for dimers: 1.0 A, 1.208 A, 1.5 A, 2.0 A, 3.0 A
  #
  ################################################################################
  #  "First tier" - improvements: -699.05 meV to -159.38 meV
       hydro 2 p 1.8
       hydro 3 d 7.6
       hydro 3 s 6.4
  #  "Second tier" - improvements: -49.91 meV to -5.39 meV
  #     hydro 4 f 11.6
  #     hydro 3 p 6.2
  #     hydro 3 d 5.6
  #     hydro 5 g 17.6
  #     hydro 1 s 0.75
  #  "Third tier" - improvements: -2.83 meV to -0.50 meV
  #     ionic 2 p auto
  #     hydro 4 f 10.8
  #     hydro 4 d 4.7
  #     hydro 2 s 6.8
  #  "Fourth tier" - improvements: -0.40 meV to -0.12 meV
  #     hydro 3 p 5
  #     hydro 3 s 3.3
  #     hydro 5 g 15.6
  #     hydro 4 f 17.6
  #     hydro 4 d 14
  # Further basis functions - -0.08 meV and below
  #     hydro 3 s 2.1
  #     hydro 4 d 11.6
  #     hydro 3 p 16
  #     hydro 2 s 17.2
  
  -----------------------------------------------------------------------
  Completed first pass over input file control.in .
  -----------------------------------------------------------------------
  
  
  -----------------------------------------------------------------------
  Parsing geometry.in (first pass over file, find array dimensions only).
  The contents of geometry.in will be repeated verbatim below
  unless switched off by setting 'verbatim_writeout .false.' .
  in the first line of geometry.in .
  -----------------------------------------------------------------------
  
  atom  0.00000 0.00000 0.00000 C
  atom  1.09300 0.00000 0.00000 H
  atom  -0.47961 0.00000 -1.41207 N
  atom  -1.01362 0.85425 -1.57613 H
  atom  0.32746 -0.03481 -2.03139 H
  atom  -0.49584 1.26211 0.72868 C
  atom  -1.58789 1.28919 0.74431 H
  atom  -0.13407 1.27425 1.75947 H
  atom  -0.13407 2.16087 0.22380 H
  atom  -0.39425 -1.28861 0.74398 C
  atom  -0.10189 -1.56493 1.88303 O
  atom  -1.10210 -2.13717 0.06896 O
  atom  -1.79207 -2.30597 0.73260 H
  
  -----------------------------------------------------------------------
  Completed first pass over input file geometry.in .
  -----------------------------------------------------------------------
  

  Basic array size parameters:
  | Number of species                 :        4
  | Number of atoms                   :       13
  | Max. basis fn. angular momentum   :        2
  | Max. atomic/ionic basis occupied n:        2
  | Max. number of basis fn. types    :        2
  | Max. radial fns per species/type  :        3
  | Max. logarithmic grid size        :     1301
  | Max. radial integration grid size :       36
  | Max. angular integration grid size:      302
  | Max. angular grid division number :        8
  | Radial grid for Hartree potential :     1301
  | Number of spin channels           :        1

------------------------------------------------------------
          Reading file control.in.
------------------------------------------------------------
  XC: Using PBE gradient-corrected functionals.
  Spin treatment: No spin polarisation.
  Non-relativistic treatment of kinetic energy.
  Charge =   0.000000E+00: Neutral system requested explicitly.
  Occupation type: Gaussian broadening, width =   0.100000E-01 eV.
  Using pulay charge density mixing.
  Pulay mixing - number of memorized iterations:   10
  Charge density mixing - mixing parameter:     0.2000
  Convergence accuracy of self-consistent charge density:  0.1000E-04
  Convergence accuracy of sum of eigenvalues:  0.1000E-02
  Convergence accuracy of total energy:  0.1000E-05
  Convergence accuracy of forces:  0.1000E-03
  Maximum number of s.-c. iterations  :   100
 
  Reading configuration options for species H                   .
  | Found nuclear charge :   1.0000
  | Found atomic mass :    1.00794000000000      amu
  | Found l_max for Hartree potential  :   4
  | Found cutoff potl. onset [A], width [A], scale factor :    3.50000    1.50000    1.00000
  | Threshold for basis-dependent cutoff potential is   0.100000E-03
  | Found data for basic radial integration grid :    24 points, outermost radius =    5.000 A
  | Found multiplier for basic radial grid :   1
  | Found angular grid specification: user-specified.
  | Specified grid contains     5 separate shells.
  | Check grid settings after all constraints further below.
  | Found free-atom valence shell :  1 s   1.000
  | No ionic wave fns used. Skipping ion_occ.
  | Found hydrogenic basis function :  2 s   2.100
  | Found hydrogenic basis function :  2 p   3.500
  Species H                   : Missing cutoff potential type.
  Defaulting to exp(1/x)/(1-x)^2 type cutoff potential.
  Species H : No 'logarithmic' tag. Using default grid for free atom:
  | Default logarithmic grid data [bohr] : 0.1000E-03 0.1000E+03 0.1012E+01
  Species H : On-site basis accuracy parameter (for Gram-Schmidt orthonormalisation) not specified.
  Using default value basis_acc =  0.1000000E-03.
  Species H                   : Using default innermost maximum threshold i_radial=  2 for radial functions.
  Species H                   : Default cutoff onset for free atom density etc. : 0.35000000E+01 AA.
  Species H                   : Basic radial grid will be enhanced according to radial_multiplier =   1, to contain    24 grid points.
 
  Reading configuration options for species C                   .
  | Found nuclear charge :   6.0000
  | Found atomic mass :    12.0107000000000      amu
  | Found l_max for Hartree potential  :   4
  | Found cutoff potl. onset [A], width [A], scale factor :    3.50000    1.50000    1.00000
  | Threshold for basis-dependent cutoff potential is   0.100000E-03
  | Found data for basic radial integration grid :    34 points, outermost radius =    5.000 A
  | Found multiplier for basic radial grid :   1
  | Found angular grid specification: user-specified.
  | Specified grid contains     5 separate shells.
  | Check grid settings after all constraints further below.
  | Found free-atom valence shell :  2 s   2.000
  | Found free-atom valence shell :  2 p   2.000
  | No ionic wave fns used. Skipping ion_occ.
  | No ionic wave fns used. Skipping ion_occ.
  | Found hydrogenic basis function :  2 p   1.700
  | Found hydrogenic basis function :  3 d   6.000
  | Found hydrogenic basis function :  2 s   4.900
  Species C                   : Missing cutoff potential type.
  Defaulting to exp(1/x)/(1-x)^2 type cutoff potential.
  Species C : No 'logarithmic' tag. Using default grid for free atom:
  | Default logarithmic grid data [bohr] : 0.1000E-03 0.1000E+03 0.1012E+01
  Species C : On-site basis accuracy parameter (for Gram-Schmidt orthonormalisation) not specified.
  Using default value basis_acc =  0.1000000E-03.
  Species C                   : Using default innermost maximum threshold i_radial=  2 for radial functions.
  Species C                   : Default cutoff onset for free atom density etc. : 0.35000000E+01 AA.
  Species C                   : Basic radial grid will be enhanced according to radial_multiplier =   1, to contain    34 grid points.
 
  Reading configuration options for species N                   .
  | Found nuclear charge :   7.0000
  | Found atomic mass :    14.0067000000000      amu
  | Found l_max for Hartree potential  :   4
  | Found cutoff potl. onset [A], width [A], scale factor :    3.50000    1.50000    1.00000
  | Threshold for basis-dependent cutoff potential is   0.100000E-03
  | Found data for basic radial integration grid :    35 points, outermost radius =    5.000 A
  | Found multiplier for basic radial grid :   1
  | Found angular grid specification: user-specified.
  | Specified grid contains     5 separate shells.
  | Check grid settings after all constraints further below.
  | Found free-atom valence shell :  2 s   2.000
  | Found free-atom valence shell :  2 p   3.000
  | No ionic wave fns used. Skipping ion_occ.
  | No ionic wave fns used. Skipping ion_occ.
  | Found hydrogenic basis function :  2 p   1.800
  | Found hydrogenic basis function :  3 d   6.800
  | Found hydrogenic basis function :  3 s   5.800
  Species N                   : Missing cutoff potential type.
  Defaulting to exp(1/x)/(1-x)^2 type cutoff potential.
  Species N : No 'logarithmic' tag. Using default grid for free atom:
  | Default logarithmic grid data [bohr] : 0.1000E-03 0.1000E+03 0.1012E+01
  Species N : On-site basis accuracy parameter (for Gram-Schmidt orthonormalisation) not specified.
  Using default value basis_acc =  0.1000000E-03.
  Species N                   : Using default innermost maximum threshold i_radial=  2 for radial functions.
  Species N                   : Default cutoff onset for free atom density etc. : 0.35000000E+01 AA.
  Species N                   : Basic radial grid will be enhanced according to radial_multiplier =   1, to contain    35 grid points.
 
  Reading configuration options for species O                   .
  | Found nuclear charge :   8.0000
  | Found atomic mass :    15.9994000000000      amu
  | Found l_max for Hartree potential  :   4
  | Found cutoff potl. onset [A], width [A], scale factor :    3.50000    1.50000    1.00000
  | Threshold for basis-dependent cutoff potential is   0.100000E-03
  | Found data for basic radial integration grid :    36 points, outermost radius =    5.000 A
  | Found multiplier for basic radial grid :   1
  | Found angular grid specification: user-specified.
  | Specified grid contains     5 separate shells.
  | Check grid settings after all constraints further below.
  | Found free-atom valence shell :  2 s   2.000
  | Found free-atom valence shell :  2 p   4.000
  | No ionic wave fns used. Skipping ion_occ.
  | No ionic wave fns used. Skipping ion_occ.
  | Found hydrogenic basis function :  2 p   1.800
  | Found hydrogenic basis function :  3 d   7.600
  | Found hydrogenic basis function :  3 s   6.400
  Species O                   : Missing cutoff potential type.
  Defaulting to exp(1/x)/(1-x)^2 type cutoff potential.
  Species O : No 'logarithmic' tag. Using default grid for free atom:
  | Default logarithmic grid data [bohr] : 0.1000E-03 0.1000E+03 0.1012E+01
  Species O : On-site basis accuracy parameter (for Gram-Schmidt orthonormalisation) not specified.
  Using default value basis_acc =  0.1000000E-03.
  Species O                   : Using default innermost maximum threshold i_radial=  2 for radial functions.
  Species O                   : Default cutoff onset for free atom density etc. : 0.35000000E+01 AA.
  Species O                   : Basic radial grid will be enhanced according to radial_multiplier =   1, to contain    36 grid points.
 
  Finished reading input file 'control.in'. Consistency checks are next.
 
  MPI_IN_PLACE appears to work with this MPI implementation.
  | Keeping use_mpi_in_place .true. (see manual).
  Target number of points in a grid batch is not set. Defaulting to  100
  Method for grid partitioning is not set. Defaulting to parallel hash+maxmin partitioning.
  Batch size limit is not set. Defaulting to    200
  By default, will store active basis functions for each batch.
  If in need of memory, prune_basis_once .false. can be used to disable this option.
  communication_type for Hartree potential was not specified.
  Defaulting to calc_hartree .
  Pulay mixer: Number of initial linear mixing iterations not set.
  Defaulting to    0 iterations.
  Work space size for distributed Hartree potential not set.
  Defaulting to   0.200000E+03 MB.
  Algorithm-dependent basis array size parameters:
  | n_max_pulay                         :       10
  Presetting      1001 iterations before the initial mixing cycle
  is restarted anyway using the sc_init_iter criterion / keyword.
  Presetting a factor      1.000 between actual scf density residual
  and density convergence criterion sc_accuracy_rho below which sc_init_iter
  takes no effect.
  Geometry relaxation not requested: no relaxation will be performed.
  Handling of forces: Unphysical translation and rotation will be removed from forces.
  No accuracy limit for integral partition fn. given. Defaulting to  0.1000E-14.
  No threshold value for u(r) in integrations given. Defaulting to  0.1000E-05.
  No accuracy for occupation numbers given. Defaulting to  0.1000E-12.
  No threshold value for occupation numbers given. Defaulting to  0.0000E+00.
  No accuracy for fermi level given. Defaulting to  0.1000E-19.
  Maximum # of iterations to find E_F not set. Defaulting to  200.
  Preferred method for the eigenvalue solver ('KS_method') not specified in 'control.in'.
  Defaulting to serial version, 'lapack_fast'.
  Will not use alltoall communication since running on < 1024 CPUs.
  Threshold for basis singularities not set.
  Default threshold for basis singularities:  0.1000E-04
  partition_type (choice of integration weights) for integrals was not specified.
  | Using a version of the partition function of Stratmann and coworkers ('stratmann_smoother').
  | At each grid point, the set of atoms used to build the partition table is smoothly restricted to
  | only those atoms whose free-atom density would be non-zero at that grid point.
  Partitioning for Hartree potential was not defined. Using partition_type for integrals.
  | Adjusted default value of keyword multip_moments_threshold to:       0.10000000E-11
  | This value may affect high angular momentum components of the Hartree potential in periodic systems.
  No q(lm)/r^(l+1) cutoff set for long-range Hartree potential.
  | Using default value of  0.100000E-09 .
  | Verify using the multipole_threshold keyword.
  Defaulting to new monopole extrapolation.
  Density update method: automatic selection selected.
------------------------------------------------------------


------------------------------------------------------------
          Reading geometry description geometry.in.
------------------------------------------------------------
  Input structure read successfully.
  The structure contains       13 atoms,  and a total of         48.000 electrons.

  Input geometry:
  | No unit cell requested.
  | Atomic structure:
  |       Atom                x [A]            y [A]            z [A]
  |    1: Species C             0.00000000        0.00000000        0.00000000
  |    2: Species H             1.09300000        0.00000000        0.00000000
  |    3: Species N            -0.47961000        0.00000000       -1.41207000
  |    4: Species H            -1.01362000        0.85425000       -1.57613000
  |    5: Species H             0.32746000       -0.03481000       -2.03139000
  |    6: Species C            -0.49584000        1.26211000        0.72868000
  |    7: Species H            -1.58789000        1.28919000        0.74431000
  |    8: Species H            -0.13407000        1.27425000        1.75947000
  |    9: Species H            -0.13407000        2.16087000        0.22380000
  |   10: Species C            -0.39425000       -1.28861000        0.74398000
  |   11: Species O            -0.10189000       -1.56493000        1.88303000
  |   12: Species O            -1.10210000       -2.13717000        0.06896000
  |   13: Species H            -1.79207000       -2.30597000        0.73260000
  |

  | The smallest distance between any two atoms is         0.97209572 AA.
  |
  | The first atom of this pair is atom number                     12 .
  | The second atom of this pair is atom number                    13 .

  Number of empty states per atom not set in control.in - providing a guess from actual geometry.
  | Total number of empty states used during s.c.f. cycle:       29
  If you use a very high smearing, use empty_states (per atom!) in control.in to increase this value.

  Structure-dependent array size parameters: 
  | Maximum number of distinct radial functions  :       21
  | Maximum number of basis functions            :      119
  | Number of Kohn-Sham states (occupied + empty):       53
------------------------------------------------------------

------------------------------------------------------------
          Preparing all fixed parts of the calculation.
------------------------------------------------------------
  Determining machine precision:
    2.225073858507201E-308
  Setting up grids for atomic and cluster calculations.

  Creating wave function, potential, and density for free atoms.

  Species: H

  List of occupied orbitals and eigenvalues:
    n    l              occ      energy [Ha]    energy [eV]
    1    0           1.0000        -0.237589        -6.4651


  Species: C

  List of occupied orbitals and eigenvalues:
    n    l              occ      energy [Ha]    energy [eV]
    1    0           2.0000       -10.038835      -273.1706
    2    0           2.0000        -0.502696       -13.6791
    2    1           2.0000        -0.191971        -5.2238


  Species: N

  List of occupied orbitals and eigenvalues:
    n    l              occ      energy [Ha]    energy [eV]
    1    0           2.0000       -14.128000      -384.4424
    2    0           2.0000        -0.681077       -18.5330
    2    1           3.0000        -0.259788        -7.0692


  Species: O

  List of occupied orbitals and eigenvalues:
    n    l              occ      energy [Ha]    energy [eV]
    1    0           2.0000       -18.898188      -514.2459
    2    0           2.0000        -0.878505       -23.9053
    2    1           4.0000        -0.331779        -9.0282

  Creating fixed part of basis set: Ionic, confined, hydrogenic.
 
  H                    hydrogenic:
 
  List of hydrogenic basis orbitals: 
    n    l      effective z      eigenvalue [eV]  inner max. [A]     outer max. [A]     outer radius [A]   
    2    0         2.100000       -14.9728           0.193243           1.317208           4.583499
    2    1         3.500000       -41.6669           0.602369           0.602369           3.723403
 
 
  C                    hydrogenic:
 
  List of hydrogenic basis orbitals: 
    n    l      effective z      eigenvalue [eV]  inner max. [A]     outer max. [A]     outer radius [A]   
    2    1         1.700000        -9.7616           1.230570           1.230570           4.607917
    3    2         6.000000       -54.4224           0.792453           0.792453           3.883070
    2    0         4.900000       -81.6679           0.082559           0.562749           3.078220
 
 
  N                    hydrogenic:
 
  List of hydrogenic basis orbitals: 
    n    l      effective z      eigenvalue [eV]  inner max. [A]     outer max. [A]     outer radius [A]   
    2    1         1.800000       -10.9749           1.177451           1.177451           4.573712
    3    2         6.800000       -69.9026           0.704619           0.704619           3.538137
    3    0         5.800000       -50.8545           0.067388           1.191934           4.250239
 
 
  O                    hydrogenic:
 
  List of hydrogenic basis orbitals: 
    n    l      effective z      eigenvalue [eV]  inner max. [A]     outer max. [A]     outer radius [A]   
    2    1         1.800000       -10.9749           1.164242           1.164242           4.578029
    3    2         7.600000       -87.3180           0.624125           0.624125           3.251020
    3    0         6.400000       -61.9207           0.061167           1.081902           4.001998
 

  Adding cutoff potential to free-atom effective potential.
  Creating atomic-like basis functions for current effective potential.

  Species H                   :

  List of atomic basis orbitals and eigenvalues:
    n    l      energy [Ha]    energy [eV]    outer radius [A]
    1    0        -0.237589        -6.4651       4.527807


  Species C                   :

  List of atomic basis orbitals and eigenvalues:
    n    l      energy [Ha]    energy [eV]    outer radius [A]
    1    0       -10.038835      -273.1706       1.934409
    2    0        -0.502696       -13.6791       4.496620
    2    1        -0.191971        -5.2238       4.551928


  Species N                   :

  List of atomic basis orbitals and eigenvalues:
    n    l      energy [Ha]    energy [eV]    outer radius [A]
    1    0       -14.128000      -384.4424       1.637919
    2    0        -0.681077       -18.5330       4.463241
    2    1        -0.259788        -7.0692       4.518138


  Species O                   :

  List of atomic basis orbitals and eigenvalues:
    n    l      energy [Ha]    energy [eV]    outer radius [A]
    1    0       -18.898188      -514.2459       1.415765
    2    0        -0.878505       -23.9053       4.413171
    2    1        -0.331779        -9.0282       4.522403

  Assembling full basis from fixed parts.
  | Species H :   atomic orbital   1 s accepted.
  | Species H :    hydro orbital   2 s accepted.
  | Species H :    hydro orbital   2 p accepted.
  | Species C :   atomic orbital   1 s accepted.
  | Species C :    hydro orbital   2 s accepted.
  | Species C :   atomic orbital   2 s accepted.
  | Species C :   atomic orbital   2 p accepted.
  | Species C :    hydro orbital   2 p accepted.
  | Species C :    hydro orbital   3 d accepted.
  | Species N :   atomic orbital   1 s accepted.
  | Species N :    hydro orbital   3 s accepted.
  | Species N :   atomic orbital   2 s accepted.
  | Species N :   atomic orbital   2 p accepted.
  | Species N :    hydro orbital   2 p accepted.
  | Species N :    hydro orbital   3 d accepted.
  | Species O :   atomic orbital   1 s accepted.
  | Species O :    hydro orbital   3 s accepted.
  | Species O :   atomic orbital   2 s accepted.
  | Species O :   atomic orbital   2 p accepted.
  | Species O :    hydro orbital   2 p accepted.
  | Species O :    hydro orbital   3 d accepted.
 
  Basis size parameters after reduction:
  | Total number of radial functions:       21
  | Total number of basis functions :      119
 
  Per-task memory consumption for arrays in subroutine allocate_ext:
  |           5.250512MB.
  Testing on-site integration grid accuracy.
  |  Species  Function  <phi|h_atom|phi> (log., in eV)  <phi|h_atom|phi> (rad., in eV)
           1        1                 -6.4663192853                 -6.4651273558
           1        2                 13.7111246313                 13.7170609718
           1        3                 25.2673269279                 25.2674696378
           2        4               -273.1705927641               -273.1705631568
           2        5                -10.7109323383                -10.7107120029
           2        6                 17.4381822266                 17.4352413244
           2        7                 -5.2255326521                 -5.2270484734
           2        8                  8.6835629259                  8.6603288385
           2        9                 27.4952418996                 27.4953360207
           3       10               -384.4424306495               -384.4423701208
           3       11                 12.5842251816                 12.5842222903
           3       12                -15.7264628251                -15.7264433455
           3       13                 -7.0696854293                 -7.0701769954
           3       14                  8.8090390882                  8.7901077751
           3       15                 35.9586762123                 35.9588528632
           4       16               -514.2458688638               -514.2457643834
           4       17                 15.1795651126                 15.1795290741
           4       18                -21.5359799773                -21.5360846186
           4       19                 -9.0283069236                 -9.0284644067
           4       20                  8.3027758564                  8.2834874195
           4       21                 45.8339351984                 45.8338762259

  Preparing densities etc. for the partition functions (integrals / Hartree potential).

  Preparations completed.
  max(cpu_time)          :      0.149 s.
  Wall clock time (cpu1) :      0.151 s.
------------------------------------------------------------

------------------------------------------------------------
          Begin self-consistency loop: Initialization.

          Date     :  20200805, Time     :  182944.659
------------------------------------------------------------

  Initializing index lists of integration centers etc. from given atomic structure:
  | Number of centers in hartree potential         :        13
  | Number of centers in hartree multipole         :        13
  | Number of centers in electron density summation:        13
  | Number of centers in basis integrals           :        13
  | Number of centers in integrals                 :        13
  | Number of centers in hamiltonian               :        13
  Partitioning the integration grid into batches with parallel hashing+maxmin method.
  | Number of batches:      950
  | Maximal batch size:     139
  | Minimal batch size:      66
  | Average batch size:      73.312
  | Standard deviation of batch sizes:      18.264

  Integration load balanced across     1 MPI tasks.
  Work distribution over tasks is as follows:
  Task     0 has      69646 integration points.
  Initializing partition tables, free-atom densities, potentials, etc. across the integration grid (initialize_grid_storage).
  | initialize_grid_storage: Actual outermost partition radius vs. multipole_radius_free
  | (-- VB: in principle, multipole_radius_free should be larger, hence this output)
  | Species        1: Confinement radius =              4.999999999999999 AA, multipole_radius_free =              5.054417573612229 AA.
  | Species        1: outer_partition_radius set to              5.054417573612229 AA .
  | Species        2: Confinement radius =              4.999999999999999 AA, multipole_radius_free =              5.019602836301480 AA.
  | Species        2: outer_partition_radius set to              5.019602836301480 AA .
  | Species        3: Confinement radius =              4.999999999999999 AA, multipole_radius_free =              5.043624274424571 AA.
  | Species        3: outer_partition_radius set to              5.043624274424571 AA .
  | Species        4: Confinement radius =              4.999999999999999 AA, multipole_radius_free =              5.048384829883283 AA.
  | Species        4: outer_partition_radius set to              5.048384829883283 AA .
  | Original list of interatomic distances with          13 x         13 entries is created.
  | Net number of integration points:    69646
  | of which are non-zero points    :    59618
  Renormalizing the initial density to the exact electron count on the 3D integration grid.
  | Initial density: Formal number of electrons (from input files) :      48.0000000000
  | Integrated number of electrons on 3D grid     :      47.9999069061
  | Charge integration error                      :      -0.0000930939
  | Normalization factor for density and gradient :       1.0000019395
  Obtaining max. number of non-zero basis functions in each batch (get_n_compute_maxes).
  | Maximal number of non-zero basis functions:      119 in task     0
  Selecting the method for density update.
  Loop over occupied states selected for charge density update.
  Allocating        0.050 MB for KS_eigenvector
  Integrating Hamiltonian matrix: batch-based integration.
  Time summed over all CPUs for integration: real work        0.500 s, elapsed        0.500 s
  Integrating overlap matrix.
  Time summed over all CPUs for integration: real work        0.213 s, elapsed        0.213 s

  Updating Kohn-Sham eigenvalues and eigenvectors using ELSI and the ELPA eigensolver.
  Overlap matrix is nonsingular
  | Lowest eigenvalue of overlap  :  0.44E-02
  | Highest eigenvalue of overlap :  0.61E+01
  Finished singularity check of overlap matrix
  | Time :     0.002 s
  Finished Cholesky decomposition
  | Time :     0.000 s
  Finished transformation to standard eigenproblem
  | Time :     0.000 s
  Starting LAPACK eigensolver
  Finished solving standard eigenproblem
  | Time :     0.002 s
  Finished back-transformation of eigenvectors
  | Time :     0.000 s

  Obtaining occupation numbers and chemical potential using ELSI.
  | Chemical potential (Fermi level):   -10.09680515eV
  Writing Kohn-Sham eigenvalues.

  State    Occupation    Eigenvalue [Ha]    Eigenvalue [eV]
      1       2.00000         -19.007487         -517.22005
      2       2.00000         -18.977797         -516.41213
      3       2.00000         -14.245791         -387.64769
      4       2.00000         -10.166905         -276.65557
      5       2.00000         -10.141250         -275.95745
      6       2.00000         -10.131884         -275.70259
      7       2.00000          -1.185922          -32.27059
      8       2.00000          -1.094103          -29.77205
      9       2.00000          -0.992050          -26.99505
     10       2.00000          -0.859405          -23.38560
     11       2.00000          -0.762555          -20.75017
     12       2.00000          -0.676190          -18.40008
     13       2.00000          -0.621855          -16.92154
     14       2.00000          -0.604968          -16.46202
     15       2.00000          -0.590788          -16.07616
     16       2.00000          -0.575281          -15.65419
     17       2.00000          -0.551336          -15.00262
     18       2.00000          -0.525032          -14.28685
     19       2.00000          -0.518161          -14.09988
     20       2.00000          -0.501870          -13.65658
     21       2.00000          -0.461981          -12.57115
     22       2.00000          -0.428705          -11.66565
     23       2.00000          -0.414199          -11.27093
     24       2.00000          -0.380083          -10.34257
     25       0.00000          -0.158038           -4.30043
     26       0.00000          -0.061667           -1.67804
     27       0.00000          -0.032018           -0.87125
     28       0.00000          -0.022068           -0.60049
     29       0.00000          -0.008141           -0.22153
     30       0.00000           0.009120            0.24817
     31       0.00000           0.018814            0.51194
     32       0.00000           0.028360            0.77173
     33       0.00000           0.037989            1.03373
     34       0.00000           0.081973            2.23061
     35       0.00000           0.095985            2.61190
     36       0.00000           0.135380            3.68387
     37       0.00000           0.154897            4.21497
     38       0.00000           0.196033            5.33432
     39       0.00000           0.207005            5.63290
     40       0.00000           0.230866            6.28218
     41       0.00000           0.257840            7.01618
     42       0.00000           0.270504            7.36078
     43       0.00000           0.296681            8.07309
     44       0.00000           0.309131            8.41188
     45       0.00000           0.323576            8.80495
     46       0.00000           0.355234            9.66641
     47       0.00000           0.375345           10.21366
     48       0.00000           0.405369           11.03065
     49       0.00000           0.463215           12.60473
     50       0.00000           0.484538           13.18494
     51       0.00000           0.510070           13.87970
     52       0.00000           0.519393           14.13341
     53       0.00000           0.545495           14.84368

  Highest occupied state (VBM) at    -10.34257188 eV
  | Occupation number:      2.00000000

  Lowest unoccupied state (CBM) at    -4.30043216 eV
  | Occupation number:      0.00000000

  Overall HOMO-LUMO gap:      6.04213972 eV.
  Calculating total energy contributions from superposition of free atom densities.

  Total energy components:
  | Sum of eigenvalues            :        -188.83119508 Ha       -5138.35825498 eV
  | XC energy correction          :         -41.78437384 Ha       -1137.01066264 eV
  | XC potential correction       :          53.71388052 Ha        1461.62905579 eV
  | Free-atom electrostatic energy:        -146.86140632 Ha       -3996.30219563 eV
  | Hartree energy correction     :           0.00000000 Ha           0.00000000 eV
  | vdW energy correction         :           0.00000000 Ha           0.00000000 eV
  | Entropy correction            :          -0.00000000 Ha          -0.00000000 eV
  | ---------------------------
  | Total energy                  :        -323.76309472 Ha       -8810.04205745 eV
  | Total energy, T -> 0          :        -323.76309472 Ha       -8810.04205745 eV  <-- do not rely on this value for anything but (periodic) metals
  | Electronic free energy        :        -323.76309472 Ha       -8810.04205745 eV

  Derived energy quantities:
  | Kinetic energy                :         320.48473791 Ha        8720.83342961 eV
  | Electrostatic energy          :        -602.46345879 Ha      -16393.86482442 eV
  | Energy correction for multipole
  | error in Hartree potential    :           0.00000000 Ha           0.00000000 eV
  | Sum of eigenvalues per atom                           :        -395.25832731 eV
  | Total energy (T->0) per atom                          :        -677.69554288 eV  <-- do not rely on this value for anything but (periodic) metals
  | Electronic free energy per atom                       :        -677.69554288 eV
  Initialize hartree_potential_storage
  Max. number of atoms included in rho_multipole:           13

  End scf initialization - timings             :  max(cpu_time)    wall_clock(cpu1)
  | Time for scf. initialization               :        1.161 s           1.163 s
  | Boundary condition initialization          :        0.000 s           0.000 s
  | Integration                                :        0.714 s           0.714 s
  | Solution of K.-S. eqns.                    :        0.004 s           0.005 s
  | Grid partitioning                          :        0.112 s           0.113 s
  | Preloading free-atom quantities on grid    :        0.002 s           0.003 s
  | Free-atom superposition energy             :        0.085 s           0.085 s
  | Total energy evaluation                    :        0.000 s           0.000 s

  Partial memory accounting:
  | Current value for overall tracked memory usage on task 0  :           0.165 MB
  | Peak value for overall tracked memory usage on task 0     :           0.678 MB after allocating wave
  | Largest tracked array allocation on task 0 so far         :           0.132 MB  when allocating H_times_psi
  Note:  These values currently only include a subset of arrays which are explicitly tracked.
  The "true" memory usage will be greater.
------------------------------------------------------------

------------------------------------------------------------
          Begin self-consistency iteration #    1

  Date     :  20200805, Time     :  182945.822
------------------------------------------------------------
  Evaluating new KS density.
  Integration grid: deviation in total charge (<rho> - N_e) =   6.394885E-14
  Pulay mixing of updated and previous charge densities.

  Evaluating partitioned Hartree potential by multipole expansion.
  | Analytical far-field extrapolation by fixed multipoles:
  | Hartree multipole sum: apparent total charge =  -0.202303E-03
  Summing up the Hartree potential.
  Time summed over all CPUs for potential: real work        0.286 s, elapsed        0.286 s
  | RMS charge density error from multipole expansion :   0.582162E-02

  Integrating Hamiltonian matrix: batch-based integration.
  Time summed over all CPUs for integration: real work        0.495 s, elapsed        0.495 s

  Updating Kohn-Sham eigenvalues and eigenvectors using ELSI and the ELPA eigensolver.
  Finished Cholesky decomposition
  | Time :     0.000 s
  Finished transformation to standard eigenproblem
  | Time :     0.000 s
  Starting LAPACK eigensolver
  Finished solving standard eigenproblem
  | Time :     0.002 s
  Finished back-transformation of eigenvectors
  | Time :     0.000 s

  Obtaining occupation numbers and chemical potential using ELSI.
  | Chemical potential (Fermi level):    -4.91212628eV
  Writing Kohn-Sham eigenvalues.

  State    Occupation    Eigenvalue [Ha]    Eigenvalue [eV]
      1       2.00000         -18.894242         -514.13847
      2       2.00000         -18.837598         -512.59713
      3       2.00000         -14.094500         -383.53085
      4       2.00000         -10.112675         -275.17988
      5       2.00000         -10.061813         -273.79588
      6       2.00000         -10.034300         -273.04721
      7       2.00000          -1.132022          -30.80390
      8       2.00000          -1.028801          -27.99510
      9       2.00000          -0.920921          -25.05953
     10       2.00000          -0.793887          -21.60277
     11       2.00000          -0.710862          -19.34353
     12       2.00000          -0.626715          -17.05379
     13       2.00000          -0.563115          -15.32315
     14       2.00000          -0.545403          -14.84116
     15       2.00000          -0.529442          -14.40685
     16       2.00000          -0.514968          -14.01298
     17       2.00000          -0.489042          -13.30751
     18       2.00000          -0.465928          -12.67855
     19       2.00000          -0.454620          -12.37085
     20       2.00000          -0.443576          -12.07031
     21       2.00000          -0.403290          -10.97408
     22       2.00000          -0.365422           -9.94363
     23       2.00000          -0.340096           -9.25448
     24       2.00000          -0.306368           -8.33669
     25       0.00000          -0.120180           -3.27027
     26       0.00000          -0.035075           -0.95444
     27       0.00000          -0.007915           -0.21537
     28       0.00000           0.016202            0.44087
     29       0.00000           0.023584            0.64174
     30       0.00000           0.048652            1.32388
     31       0.00000           0.055901            1.52115
     32       0.00000           0.065549            1.78367
     33       0.00000           0.078916            2.14743
     34       0.00000           0.123252            3.35386
     35       0.00000           0.137851            3.75113
     36       0.00000           0.164565            4.47805
     37       0.00000           0.183539            4.99436
     38       0.00000           0.226377            6.16003
     39       0.00000           0.234797            6.38914
     40       0.00000           0.268994            7.31969
     41       0.00000           0.295853            8.05058
     42       0.00000           0.302232            8.22416
     43       0.00000           0.334738            9.10867
     44       0.00000           0.346906            9.43980
     45       0.00000           0.364939            9.93050
     46       0.00000           0.397974           10.82943
     47       0.00000           0.416838           11.34273
     48       0.00000           0.445140           12.11288
     49       0.00000           0.498885           13.57535
     50       0.00000           0.519062           14.12440
     51       0.00000           0.543646           14.79337
     52       0.00000           0.557575           15.17239
     53       0.00000           0.580203           15.78813

  Highest occupied state (VBM) at     -8.33669072 eV
  | Occupation number:      2.00000000

  Lowest unoccupied state (CBM) at    -3.27027319 eV
  | Occupation number:      0.00000000

  Overall HOMO-LUMO gap:      5.06641754 eV.

  Total energy components:
  | Sum of eigenvalues            :        -185.33921205 Ha       -5043.33656192 eV
  | XC energy correction          :         -42.11549991 Ha       -1146.02106140 eV
  | XC potential correction       :          54.14464055 Ha        1473.35063254 eV
  | Free-atom electrostatic energy:        -146.86140632 Ha       -3996.30219563 eV
  | Hartree energy correction     :          -3.40800884 Ha         -92.73663903 eV
  | vdW energy correction         :           0.00000000 Ha           0.00000000 eV
  | Entropy correction            :           0.00000000 Ha           0.00000000 eV
  | ---------------------------
  | Total energy                  :        -323.57948657 Ha       -8805.04582543 eV
  | Total energy, T -> 0          :        -323.57948657 Ha       -8805.04582543 eV  <-- do not rely on this value for anything but (periodic) metals
  | Electronic free energy        :        -323.57948657 Ha       -8805.04582543 eV

  Derived energy quantities:
  | Kinetic energy                :         322.29031026 Ha        8769.96555315 eV
  | Electrostatic energy          :        -603.75429693 Ha      -16428.99031718 eV
  | Energy correction for multipole
  | error in Hartree potential    :           0.01229664 Ha           0.33460871 eV
  | Sum of eigenvalues per atom                           :        -387.94896630 eV
  | Total energy (T->0) per atom                          :        -677.31121734 eV  <-- do not rely on this value for anything but (periodic) metals
  | Electronic free energy per atom                       :        -677.31121734 eV

  Self-consistency convergence accuracy:
  | Change of charge density      :  0.5862E+00
  | Change of sum of eigenvalues  :  0.9502E+02 eV
  | Change of total energy        :  0.4996E+01 eV

  End self-consistency iteration #     1       :  max(cpu_time)    wall_clock(cpu1)
  | Time for this iteration                    :        1.193 s           1.194 s
  | Charge density update                      :        0.394 s           0.395 s
  | Density mixing                             :        0.005 s           0.005 s
  | Hartree multipole update                   :        0.009 s           0.009 s
  | Hartree multipole summation                :        0.287 s           0.288 s
  | Integration                                :        0.495 s           0.494 s
  | Solution of K.-S. eqns.                    :        0.002 s           0.003 s
  | Total energy evaluation                    :        0.000 s           0.000 s

  Partial memory accounting:
  | Current value for overall tracked memory usage on task 0  :           0.165 MB
  | Peak value for overall tracked memory usage on task 0     :           0.695 MB after allocating gradient_basis_wave
  | Largest tracked array allocation on task 0 so far         :           0.397 MB  when allocating gradient_basis_wave
  Note:  These values currently only include a subset of arrays which are explicitly tracked.
  The "true" memory usage will be greater.
------------------------------------------------------------

------------------------------------------------------------
          Begin self-consistency iteration #    2

  Date     :  20200805, Time     :  182947.018
------------------------------------------------------------
  Evaluating new KS density.
  Integration grid: deviation in total charge (<rho> - N_e) =  -1.421085E-14
  Pulay mixing of updated and previous charge densities.

  Evaluating partitioned Hartree potential by multipole expansion.
  | Analytical far-field extrapolation by fixed multipoles:
  | Hartree multipole sum: apparent total charge =  -0.343435E-03
  Summing up the Hartree potential.
  Time summed over all CPUs for potential: real work        0.286 s, elapsed        0.286 s
  | RMS charge density error from multipole expansion :   0.138751E-01

  Integrating Hamiltonian matrix: batch-based integration.
  Time summed over all CPUs for integration: real work        0.495 s, elapsed        0.495 s

  Updating Kohn-Sham eigenvalues and eigenvectors using ELSI and the ELPA eigensolver.
  Finished Cholesky decomposition
  | Time :     0.000 s
  Finished transformation to standard eigenproblem
  | Time :     0.000 s
  Starting LAPACK eigensolver
  Finished solving standard eigenproblem
  | Time :     0.001 s
  Finished back-transformation of eigenvectors
  | Time :     0.000 s

  Obtaining occupation numbers and chemical potential using ELSI.
  | Chemical potential (Fermi level):    -3.65458705eV
  Highest occupied state (VBM) at     -6.29116222 eV
  | Occupation number:      2.00000000

  Lowest unoccupied state (CBM) at    -1.96572906 eV
  | Occupation number:      0.00000000

  Overall HOMO-LUMO gap:      4.32543316 eV.

  Checking to see if s.c.f. parameters should be adjusted.

  Total energy components:
  | Sum of eigenvalues            :        -181.65065234 Ha       -4942.96574542 eV
  | XC energy correction          :         -42.47972059 Ha       -1155.93201039 eV
  | XC potential correction       :          54.61693228 Ha        1486.20234454 eV
  | Free-atom electrostatic energy:        -146.86140632 Ha       -3996.30219563 eV
  | Hartree energy correction     :          -7.12490158 Ha        -193.87843646 eV
  | vdW energy correction         :           0.00000000 Ha           0.00000000 eV
  | Entropy correction            :           0.00000000 Ha           0.00000000 eV
  | ---------------------------
  | Total energy                  :        -323.49974855 Ha       -8802.87604336 eV
  | Total energy, T -> 0          :        -323.49974855 Ha       -8802.87604336 eV  <-- do not rely on this value for anything but (periodic) metals
  | Electronic free energy        :        -323.49974855 Ha       -8802.87604336 eV

  Derived energy quantities:
  | Kinetic energy                :         323.62464376 Ha        8806.27461499 eV
  | Electrostatic energy          :        -604.64467172 Ha      -16453.21864796 eV
  | Energy correction for multipole
  | error in Hartree potential    :           0.02721810 Ha           0.74064216 eV
  | Sum of eigenvalues per atom                           :        -380.22813426 eV
  | Total energy (T->0) per atom                          :        -677.14431103 eV  <-- do not rely on this value for anything but (periodic) metals
  | Electronic free energy per atom                       :        -677.14431103 eV

  Self-consistency convergence accuracy:
  | Change of charge density      :  0.3657E+00
  | Change of sum of eigenvalues  :  0.1004E+03 eV
  | Change of total energy        :  0.2170E+01 eV

  End self-consistency iteration #     2       :  max(cpu_time)    wall_clock(cpu1)
  | Time for this iteration                    :        1.186 s           1.188 s
  | Charge density update                      :        0.387 s           0.387 s
  | Density mixing                             :        0.007 s           0.008 s
  | Hartree multipole update                   :        0.009 s           0.008 s
  | Hartree multipole summation                :        0.287 s           0.287 s
  | Integration                                :        0.495 s           0.495 s
  | Solution of K.-S. eqns.                    :        0.002 s           0.002 s
  | Total energy evaluation                    :        0.000 s           0.000 s

  Partial memory accounting:
  | Current value for overall tracked memory usage on task 0  :           0.166 MB
  | Peak value for overall tracked memory usage on task 0     :           0.695 MB after allocating gradient_basis_wave
  | Largest tracked array allocation on task 0 so far         :           0.397 MB  when allocating gradient_basis_wave
  Note:  These values currently only include a subset of arrays which are explicitly tracked.
  The "true" memory usage will be greater.
------------------------------------------------------------

------------------------------------------------------------
          Begin self-consistency iteration #    3

  Date     :  20200805, Time     :  182948.208
------------------------------------------------------------
  Evaluating new KS density.
  Integration grid: deviation in total charge (<rho> - N_e) =   6.394885E-14
  Pulay mixing of updated and previous charge densities.

  Evaluating partitioned Hartree potential by multipole expansion.
  | Analytical far-field extrapolation by fixed multipoles:
  | Hartree multipole sum: apparent total charge =  -0.446890E-03
  Summing up the Hartree potential.
  Time summed over all CPUs for potential: real work        0.286 s, elapsed        0.286 s
  | RMS charge density error from multipole expansion :   0.220562E-01

  Integrating Hamiltonian matrix: batch-based integration.
  Time summed over all CPUs for integration: real work        0.494 s, elapsed        0.494 s

  Updating Kohn-Sham eigenvalues and eigenvectors using ELSI and the ELPA eigensolver.
  Finished Cholesky decomposition
  | Time :     0.000 s
  Finished transformation to standard eigenproblem
  | Time :     0.000 s
  Starting LAPACK eigensolver
  Finished solving standard eigenproblem
  | Time :     0.002 s
  Finished back-transformation of eigenvectors
  | Time :     0.000 s

  Obtaining occupation numbers and chemical potential using ELSI.
  | Chemical potential (Fermi level):    -2.96481948eV
  Highest occupied state (VBM) at     -5.60990575 eV
  | Occupation number:      2.00000000

  Lowest unoccupied state (CBM) at    -1.24267621 eV
  | Occupation number:      0.00000000

  Overall HOMO-LUMO gap:      4.36722954 eV.

  Total energy components:
  | Sum of eigenvalues            :        -180.33453928 Ha       -4907.15248687 eV
  | XC energy correction          :         -42.62945753 Ha       -1160.00655989 eV
  | XC potential correction       :          54.80783580 Ha        1491.39709369 eV
  | Free-atom electrostatic energy:        -146.86140632 Ha       -3996.30219563 eV
  | Hartree energy correction     :          -8.46917652 Ha        -230.45801856 eV
  | vdW energy correction         :           0.00000000 Ha           0.00000000 eV
  | Entropy correction            :           0.00000000 Ha           0.00000000 eV
  | ---------------------------
  | Total energy                  :        -323.48674384 Ha       -8802.52216726 eV
  | Total energy, T -> 0          :        -323.48674384 Ha       -8802.52216726 eV  <-- do not rely on this value for anything but (periodic) metals
  | Electronic free energy        :        -323.48674384 Ha       -8802.52216726 eV

  Derived energy quantities:
  | Kinetic energy                :         323.14898298 Ha        8793.33122657 eV
  | Electrostatic energy          :        -604.00626929 Ha      -16435.84683395 eV
  | Energy correction for multipole
  | error in Hartree potential    :           0.03871955 Ha           1.05361264 eV
  | Sum of eigenvalues per atom                           :        -377.47326822 eV
  | Total energy (T->0) per atom                          :        -677.11708979 eV  <-- do not rely on this value for anything but (periodic) metals
  | Electronic free energy per atom                       :        -677.11708979 eV

  Self-consistency convergence accuracy:
  | Change of charge density      :  0.2038E+00
  | Change of sum of eigenvalues  :  0.3581E+02 eV
  | Change of total energy        :  0.3539E+00 eV

  End self-consistency iteration #     3       :  max(cpu_time)    wall_clock(cpu1)
  | Time for this iteration                    :        1.188 s           1.189 s
  | Charge density update                      :        0.387 s           0.388 s
  | Density mixing                             :        0.009 s           0.009 s
  | Hartree multipole update                   :        0.009 s           0.009 s
  | Hartree multipole summation                :        0.286 s           0.286 s
  | Integration                                :        0.494 s           0.495 s
  | Solution of K.-S. eqns.                    :        0.002 s           0.002 s
  | Total energy evaluation                    :        0.000 s           0.000 s

  Partial memory accounting:
  | Current value for overall tracked memory usage on task 0  :           0.166 MB
  | Peak value for overall tracked memory usage on task 0     :           0.695 MB after allocating gradient_basis_wave
  | Largest tracked array allocation on task 0 so far         :           0.397 MB  when allocating gradient_basis_wave
  Note:  These values currently only include a subset of arrays which are explicitly tracked.
  The "true" memory usage will be greater.
------------------------------------------------------------

------------------------------------------------------------
          Begin self-consistency iteration #    4

  Date     :  20200805, Time     :  182949.400
------------------------------------------------------------
  Evaluating new KS density.
  Integration grid: deviation in total charge (<rho> - N_e) =   1.421085E-14
  Pulay mixing of updated and previous charge densities.

  Evaluating partitioned Hartree potential by multipole expansion.
  | Analytical far-field extrapolation by fixed multipoles:
  | Hartree multipole sum: apparent total charge =  -0.479470E-03
  Summing up the Hartree potential.
  Time summed over all CPUs for potential: real work        0.286 s, elapsed        0.286 s
  | RMS charge density error from multipole expansion :   0.251908E-01

  Integrating Hamiltonian matrix: batch-based integration.
  Time summed over all CPUs for integration: real work        0.496 s, elapsed        0.496 s

  Updating Kohn-Sham eigenvalues and eigenvectors using ELSI and the ELPA eigensolver.
  Finished Cholesky decomposition
  | Time :     0.000 s
  Finished transformation to standard eigenproblem
  | Time :     0.000 s
  Starting LAPACK eigensolver
  Finished solving standard eigenproblem
  | Time :     0.002 s
  Finished back-transformation of eigenvectors
  | Time :     0.000 s

  Obtaining occupation numbers and chemical potential using ELSI.
  | Chemical potential (Fermi level):    -2.86561645eV
  Highest occupied state (VBM) at     -5.42004083 eV
  | Occupation number:      2.00000000

  Lowest unoccupied state (CBM) at    -1.15851847 eV
  | Occupation number:      0.00000000

  Overall HOMO-LUMO gap:      4.26152235 eV.

  Total energy components:
  | Sum of eigenvalues            :        -180.17196143 Ha       -4902.72851853 eV
  | XC energy correction          :         -42.66586560 Ha       -1160.99727392 eV
  | XC potential correction       :          54.85381194 Ha        1492.64816812 eV
  | Free-atom electrostatic energy:        -146.86140632 Ha       -3996.30219563 eV
  | Hartree energy correction     :          -8.64050443 Ha        -235.12008829 eV
  | vdW energy correction         :           0.00000000 Ha           0.00000000 eV
  | Entropy correction            :           0.00000000 Ha           0.00000000 eV
  | ---------------------------
  | Total energy                  :        -323.48592584 Ha       -8802.49990825 eV
  | Total energy, T -> 0          :        -323.48592584 Ha       -8802.49990825 eV  <-- do not rely on this value for anything but (periodic) metals
  | Electronic free energy        :        -323.48592584 Ha       -8802.49990825 eV

  Derived energy quantities:
  | Kinetic energy                :         322.80182288 Ha        8783.88451962 eV
  | Electrostatic energy          :        -603.62188311 Ha      -16425.38715395 eV
  | Energy correction for multipole
  | error in Hartree potential    :           0.04271300 Ha           1.16227979 eV
  | Sum of eigenvalues per atom                           :        -377.13296296 eV
  | Total energy (T->0) per atom                          :        -677.11537756 eV  <-- do not rely on this value for anything but (periodic) metals
  | Electronic free energy per atom                       :        -677.11537756 eV

  Self-consistency convergence accuracy:
  | Change of charge density      :  0.6007E-01
  | Change of sum of eigenvalues  :  0.4424E+01 eV
  | Change of total energy        :  0.2226E-01 eV

  End self-consistency iteration #     4       :  max(cpu_time)    wall_clock(cpu1)
  | Time for this iteration                    :        1.195 s           1.197 s
  | Charge density update                      :        0.392 s           0.392 s
  | Density mixing                             :        0.010 s           0.010 s
  | Hartree multipole update                   :        0.009 s           0.009 s
  | Hartree multipole summation                :        0.286 s           0.287 s
  | Integration                                :        0.496 s           0.496 s
  | Solution of K.-S. eqns.                    :        0.002 s           0.002 s
  | Total energy evaluation                    :        0.000 s           0.001 s

  Partial memory accounting:
  | Current value for overall tracked memory usage on task 0  :           0.166 MB
  | Peak value for overall tracked memory usage on task 0     :           0.696 MB after allocating gradient_basis_wave
  | Largest tracked array allocation on task 0 so far         :           0.397 MB  when allocating gradient_basis_wave
  Note:  These values currently only include a subset of arrays which are explicitly tracked.
  The "true" memory usage will be greater.
------------------------------------------------------------

------------------------------------------------------------
          Begin self-consistency iteration #    5

  Date     :  20200805, Time     :  182950.599
------------------------------------------------------------
  Evaluating new KS density.
  Integration grid: deviation in total charge (<rho> - N_e) =   7.105427E-14
  Pulay mixing of updated and previous charge densities.

  Evaluating partitioned Hartree potential by multipole expansion.
  | Analytical far-field extrapolation by fixed multipoles:
  | Hartree multipole sum: apparent total charge =  -0.473023E-03
  Summing up the Hartree potential.
  Time summed over all CPUs for potential: real work        0.286 s, elapsed        0.286 s
  | RMS charge density error from multipole expansion :   0.249437E-01

  Integrating Hamiltonian matrix: batch-based integration.
  Time summed over all CPUs for integration: real work        0.495 s, elapsed        0.495 s

  Updating Kohn-Sham eigenvalues and eigenvectors using ELSI and the ELPA eigensolver.
  Finished Cholesky decomposition
  | Time :     0.000 s
  Finished transformation to standard eigenproblem
  | Time :     0.000 s
  Starting LAPACK eigensolver
  Finished solving standard eigenproblem
  | Time :     0.002 s
  Finished back-transformation of eigenvectors
  | Time :     0.000 s

  Obtaining occupation numbers and chemical potential using ELSI.
  | Chemical potential (Fermi level):    -2.94322914eV
  Highest occupied state (VBM) at     -5.52010680 eV
  | Occupation number:      2.00000000

  Lowest unoccupied state (CBM) at    -1.25744191 eV
  | Occupation number:      0.00000000

  Overall HOMO-LUMO gap:      4.26266489 eV.

  Total energy components:
  | Sum of eigenvalues            :        -180.39450009 Ha       -4908.78410355 eV
  | XC energy correction          :         -42.63949213 Ha       -1160.27961526 eV
  | XC potential correction       :          54.81958870 Ha        1491.71690616 eV
  | Free-atom electrostatic energy:        -146.86140632 Ha       -3996.30219563 eV
  | Hartree energy correction     :          -8.40981347 Ha        -228.84266798 eV
  | vdW energy correction         :           0.00000000 Ha           0.00000000 eV
  | Entropy correction            :           0.00000000 Ha           0.00000000 eV
  | ---------------------------
  | Total energy                  :        -323.48562332 Ha       -8802.49167627 eV
  | Total energy, T -> 0          :        -323.48562332 Ha       -8802.49167627 eV  <-- do not rely on this value for anything but (periodic) metals
  | Electronic free energy        :        -323.48562332 Ha       -8802.49167627 eV

  Derived energy quantities:
  | Kinetic energy                :         322.67716515 Ha        8780.49241015 eV
  | Electrostatic energy          :        -603.52329633 Ha      -16422.70447115 eV
  | Energy correction for multipole
  | error in Hartree potential    :           0.04204473 Ha           1.14409528 eV
  | Sum of eigenvalues per atom                           :        -377.59877720 eV
  | Total energy (T->0) per atom                          :        -677.11474433 eV  <-- do not rely on this value for anything but (periodic) metals
  | Electronic free energy per atom                       :        -677.11474433 eV

  Self-consistency convergence accuracy:
  | Change of charge density      :  0.1988E-01
  | Change of sum of eigenvalues  : -0.6056E+01 eV
  | Change of total energy        :  0.8232E-02 eV

  End self-consistency iteration #     5       :  max(cpu_time)    wall_clock(cpu1)
  | Time for this iteration                    :        1.200 s           1.208 s
  | Charge density update                      :        0.397 s           0.403 s
  | Density mixing                             :        0.011 s           0.011 s
  | Hartree multipole update                   :        0.009 s           0.009 s
  | Hartree multipole summation                :        0.287 s           0.287 s
  | Integration                                :        0.495 s           0.495 s
  | Solution of K.-S. eqns.                    :        0.002 s           0.003 s
  | Total energy evaluation                    :        0.000 s           0.000 s

  Partial memory accounting:
  | Current value for overall tracked memory usage on task 0  :           0.166 MB
  | Peak value for overall tracked memory usage on task 0     :           0.696 MB after allocating gradient_basis_wave
  | Largest tracked array allocation on task 0 so far         :           0.397 MB  when allocating gradient_basis_wave
  Note:  These values currently only include a subset of arrays which are explicitly tracked.
  The "true" memory usage will be greater.
------------------------------------------------------------

------------------------------------------------------------
          Begin self-consistency iteration #    6

  Date     :  20200805, Time     :  182951.809
------------------------------------------------------------
  Evaluating new KS density.
  Integration grid: deviation in total charge (<rho> - N_e) =   0.000000E+00
  Pulay mixing of updated and previous charge densities.

  Evaluating partitioned Hartree potential by multipole expansion.
  | Analytical far-field extrapolation by fixed multipoles:
  | Hartree multipole sum: apparent total charge =  -0.477501E-03
  Summing up the Hartree potential.
  Time summed over all CPUs for potential: real work        0.286 s, elapsed        0.286 s
  | RMS charge density error from multipole expansion :   0.253693E-01

  Integrating Hamiltonian matrix: batch-based integration.
  Time summed over all CPUs for integration: real work        0.496 s, elapsed        0.496 s

  Updating Kohn-Sham eigenvalues and eigenvectors using ELSI and the ELPA eigensolver.
  Finished Cholesky decomposition
  | Time :     0.000 s
  Finished transformation to standard eigenproblem
  | Time :     0.000 s
  Starting LAPACK eigensolver
  Finished solving standard eigenproblem
  | Time :     0.002 s
  Finished back-transformation of eigenvectors
  | Time :     0.000 s

  Obtaining occupation numbers and chemical potential using ELSI.
  | Chemical potential (Fermi level):    -2.93612638eV
  Highest occupied state (VBM) at     -5.48296015 eV
  | Occupation number:      2.00000000

  Lowest unoccupied state (CBM) at    -1.25681593 eV
  | Occupation number:      0.00000000

  Overall HOMO-LUMO gap:      4.22614422 eV.

  Total energy components:
  | Sum of eigenvalues            :        -180.37102888 Ha       -4908.14541961 eV
  | XC energy correction          :         -42.64096975 Ha       -1160.31982324 eV
  | XC potential correction       :          54.82149065 Ha        1491.76866092 eV
  | Free-atom electrostatic energy:        -146.86140632 Ha       -3996.30219563 eV
  | Hartree energy correction     :          -8.43367523 Ha        -229.49197954 eV
  | vdW energy correction         :           0.00000000 Ha           0.00000000 eV
  | Entropy correction            :           0.00000000 Ha           0.00000000 eV
  | ---------------------------
  | Total energy                  :        -323.48558954 Ha       -8802.49075710 eV
  | Total energy, T -> 0          :        -323.48558954 Ha       -8802.49075710 eV  <-- do not rely on this value for anything but (periodic) metals
  | Electronic free energy        :        -323.48558954 Ha       -8802.49075710 eV

  Derived energy quantities:
  | Kinetic energy                :         322.61345652 Ha        8778.75881015 eV
  | Electrostatic energy          :        -603.45807631 Ha      -16420.92974402 eV
  | Energy correction for multipole
  | error in Hartree potential    :           0.04247587 Ha           1.15582726 eV
  | Sum of eigenvalues per atom                           :        -377.54964766 eV
  | Total energy (T->0) per atom                          :        -677.11467362 eV  <-- do not rely on this value for anything but (periodic) metals
  | Electronic free energy per atom                       :        -677.11467362 eV

  Self-consistency convergence accuracy:
  | Change of charge density      :  0.9905E-02
  | Change of sum of eigenvalues  :  0.6387E+00 eV
  | Change of total energy        :  0.9192E-03 eV

  End self-consistency iteration #     6       :  max(cpu_time)    wall_clock(cpu1)
  | Time for this iteration                    :        1.201 s           1.202 s
  | Charge density update                      :        0.395 s           0.395 s
  | Density mixing                             :        0.012 s           0.013 s
  | Hartree multipole update                   :        0.009 s           0.009 s
  | Hartree multipole summation                :        0.287 s           0.287 s
  | Integration                                :        0.496 s           0.496 s
  | Solution of K.-S. eqns.                    :        0.002 s           0.002 s
  | Total energy evaluation                    :        0.000 s           0.000 s

  Partial memory accounting:
  | Current value for overall tracked memory usage on task 0  :           0.166 MB
  | Peak value for overall tracked memory usage on task 0     :           0.696 MB after allocating gradient_basis_wave
  | Largest tracked array allocation on task 0 so far         :           0.397 MB  when allocating gradient_basis_wave
  Note:  These values currently only include a subset of arrays which are explicitly tracked.
  The "true" memory usage will be greater.
------------------------------------------------------------

------------------------------------------------------------
          Begin self-consistency iteration #    7

  Date     :  20200805, Time     :  182953.013
------------------------------------------------------------
  Evaluating new KS density.
  Integration grid: deviation in total charge (<rho> - N_e) =   2.842171E-14
  Pulay mixing of updated and previous charge densities.

  Evaluating partitioned Hartree potential by multipole expansion.
  | Analytical far-field extrapolation by fixed multipoles:
  | Hartree multipole sum: apparent total charge =  -0.478687E-03
  Summing up the Hartree potential.
  Time summed over all CPUs for potential: real work        0.286 s, elapsed        0.286 s
  | RMS charge density error from multipole expansion :   0.254901E-01

  Integrating Hamiltonian matrix: batch-based integration.
  Time summed over all CPUs for integration: real work        0.495 s, elapsed        0.495 s

  Updating Kohn-Sham eigenvalues and eigenvectors using ELSI and the ELPA eigensolver.
  Finished Cholesky decomposition
  | Time :     0.000 s
  Finished transformation to standard eigenproblem
  | Time :     0.000 s
  Starting LAPACK eigensolver
  Finished solving standard eigenproblem
  | Time :     0.002 s
  Finished back-transformation of eigenvectors
  | Time :     0.000 s

[...]
  |   Hirshfeld dipole moment :      0.06469042
  |   Hirshfeld second moments:      0.01453539      -0.02113344      -0.01481172
  |                                 -0.02113344      -0.02298779       0.00495251
  |                                 -0.01481172       0.00495251      -0.02559930
  ----------------------------------------------------------------------
  | Atom    12: O
  |   Hirshfeld charge        :     -0.15851403
  |   Free atom volume        :     23.61338643
  |   Hirshfeld volume        :     21.13849380
  |   Hirshfeld dipole vector :      0.00752365       0.01207473       0.04570610
  |   Hirshfeld dipole moment :      0.04786911
  |   Hirshfeld second moments:      0.09068448       0.02114201      -0.02885603
  |                                  0.02114201       0.04846460       0.00186848
  |                                 -0.02885603       0.00186848       0.01495115
  ----------------------------------------------------------------------
  | Atom    13: H
  |   Hirshfeld charge        :      0.17868180
  |   Free atom volume        :      9.95071624
  |   Hirshfeld volume        :      6.26940843
  |   Hirshfeld dipole vector :     -0.10474721      -0.02311756       0.06478587
  |   Hirshfeld dipole moment :      0.12531404
  |   Hirshfeld second moments:      0.12042567       0.00340400      -0.00862094
  |                                  0.00340400       0.12304096       0.00234892
  |                                 -0.00862094       0.00234892       0.09220854
  ----------------------------------------------------------------------


  Total energy components:
  | Sum of eigenvalues            :        -180.37016823 Ha       -4908.12199995 eV
  | XC energy correction          :         -42.63759939 Ha       -1160.22811114 eV
  | XC potential correction       :          54.81721188 Ha        1491.65222963 eV
  | Free-atom electrostatic energy:        -146.86140632 Ha       -3996.30219563 eV
  | Hartree energy correction     :          -8.43360229 Ha        -229.48999476 eV
  | vdW energy correction         :          -0.00330146 Ha          -0.08983718 eV
  | Entropy correction            :           0.00000000 Ha           0.00000000 eV
  | ---------------------------
  | Total energy                  :        -323.48886581 Ha       -8802.57990903 eV
  | Total energy, T -> 0          :        -323.48886581 Ha       -8802.57990903 eV  <-- do not rely on this value for anything but (periodic) metals
  | Electronic free energy        :        -323.48886581 Ha       -8802.57990903 eV

  Derived energy quantities:
  | Kinetic energy                :         322.57253540 Ha        8777.64528986 eV
  | Electrostatic energy          :        -603.42050036 Ha      -16419.90725057 eV
  | Energy correction for multipole
  | error in Hartree potential    :           0.04253814 Ha           1.15752167 eV
  | Sum of eigenvalues per atom                           :        -377.54784615 eV
  | Total energy (T->0) per atom                          :        -677.12153146 eV  <-- do not rely on this value for anything but (periodic) metals
  | Electronic free energy per atom                       :        -677.12153146 eV

  atomic forces [eV/Ang]:
  -----------------------
  atom #    1
   Hellmann-Feynman              :  0.999055E+00 -0.108652E+00  0.416135E+00
   Ionic forces                  :  0.000000E+00  0.000000E+00  0.000000E+00
   Multipole                     :  0.123007E+00  0.535301E+00 -0.252110E+00
   Pulay + GGA                   : -0.125190E+01 -0.219368E+00 -0.100341E+01
   Van der Waals                 :  0.442320E-02  0.391329E-02 -0.248828E-02
   ----------------------------------------------------------------
   Total forces(   1)            : -0.125412E+00  0.211195E+00 -0.841873E+00
  atom #    2
   Hellmann-Feynman              :  0.302048E+00  0.368214E-01  0.105400E+00
   Ionic forces                  :  0.000000E+00  0.000000E+00  0.000000E+00
   Multipole                     :  0.181136E+00  0.410875E-01  0.661116E-02
   Pulay + GGA                   : -0.127335E+00  0.840046E-02  0.375371E-01
   Van der Waals                 :  0.572489E-02 -0.437899E-02 -0.541413E-02
   ----------------------------------------------------------------
   Total forces(   2)            :  0.361573E+00  0.819304E-01  0.144134E+00
  atom #    3
   Hellmann-Feynman              : -0.660066E+01 -0.927129E+01 -0.734647E+00
   Ionic forces                  :  0.000000E+00  0.000000E+00  0.000000E+00
   Multipole                     : -0.159925E+00  0.118400E+00 -0.851217E+00
   Pulay + GGA                   :  0.693966E+01  0.900933E+01  0.227694E+01
   Van der Waals                 :  0.197752E-02 -0.817532E-02 -0.583833E-02
   ----------------------------------------------------------------
   Total forces(   3)            :  0.181057E+00 -0.151734E+00  0.685238E+00
  atom #    4
   Hellmann-Feynman              :  0.166741E+00  0.124850E+00 -0.182818E+00
   Ionic forces                  :  0.000000E+00  0.000000E+00  0.000000E+00
   Multipole                     : -0.435169E-01  0.681143E-01 -0.846595E-01
   Pulay + GGA                   :  0.430901E-01 -0.227966E+00  0.345405E-01
   Van der Waals                 : -0.101007E-02 -0.801230E-02 -0.509185E-02
   ----------------------------------------------------------------
   Total forces(   4)            :  0.165304E+00 -0.430141E-01 -0.238029E+00
  atom #    5
   Hellmann-Feynman              :  0.176119E-01  0.216882E+00 -0.230273E+00
   Ionic forces                  :  0.000000E+00  0.000000E+00  0.000000E+00
   Multipole                     :  0.395692E-01  0.134543E-01 -0.116001E+00
   Pulay + GGA                   : -0.193401E+00 -0.738189E-01  0.122290E+00
   Van der Waals                 : -0.388226E-02  0.154415E-03  0.601364E-02
   ----------------------------------------------------------------
   Total forces(   5)            : -0.140102E+00  0.156672E+00 -0.217970E+00
  atom #    6
   Hellmann-Feynman              :  0.852602E-01 -0.554520E+00  0.384239E+00
   Ionic forces                  :  0.000000E+00  0.000000E+00  0.000000E+00
   Multipole                     : -0.336066E-01  0.604927E+00  0.263028E+00
   Pulay + GGA                   :  0.182302E+00 -0.565751E+00 -0.368577E+00
   Van der Waals                 : -0.278431E-02  0.468557E-02 -0.248799E-02
   ----------------------------------------------------------------
   Total forces(   6)            :  0.231172E+00 -0.510659E+00  0.276202E+00
  atom #    7
   Hellmann-Feynman              : -0.252830E+00 -0.514342E-01 -0.379133E-01
   Ionic forces                  :  0.000000E+00  0.000000E+00  0.000000E+00
   Multipole                     : -0.120601E+00  0.483794E-01  0.270270E-01
   Pulay + GGA                   :  0.108515E+00  0.620051E-02  0.154461E-01
   Van der Waals                 : -0.319308E-02  0.290205E-02  0.925264E-02
   ----------------------------------------------------------------
   Total forces(   7)            : -0.268109E+00  0.604781E-02  0.138124E-01
  atom #    8
   Hellmann-Feynman              :  0.839720E-02  0.709206E-02  0.200371E+00
   Ionic forces                  :  0.000000E+00  0.000000E+00  0.000000E+00
   Multipole                     :  0.179683E-01  0.625122E-01  0.115970E+00
   Pulay + GGA                   : -0.447606E-01 -0.496013E-01 -0.114950E+00
   Van der Waals                 : -0.300782E-02  0.113721E-01  0.663472E-03
   ----------------------------------------------------------------
   Total forces(   8)            : -0.214029E-01  0.313750E-01  0.202055E+00
  atom #    9
   Hellmann-Feynman              :  0.129272E+00  0.405020E-01 -0.183898E+00
   Ionic forces                  :  0.000000E+00  0.000000E+00  0.000000E+00
   Multipole                     :  0.157004E-01  0.127837E+00 -0.105221E-01
   Pulay + GGA                   : -0.295878E-01 -0.877838E-01  0.568953E-01
   Van der Waals                 :  0.364512E-05  0.593574E-02  0.700845E-02
   ----------------------------------------------------------------
   Total forces(   9)            :  0.115389E+00  0.864912E-01 -0.130516E+00
  atom #   10
   Hellmann-Feynman              :  0.282465E+01  0.509130E+01  0.804823E+00
   Ionic forces                  :  0.000000E+00  0.000000E+00  0.000000E+00
   Multipole                     :  0.275335E-01 -0.201002E+00  0.279551E+00
   Pulay + GGA                   : -0.113613E+01 -0.317045E+01 -0.384331E+00
   Van der Waals                 :  0.231630E-02 -0.112176E-01 -0.243478E-02
   ----------------------------------------------------------------
   Total forces(  10)            :  0.171837E+01  0.170864E+01  0.697608E+00
  atom #   11
   Hellmann-Feynman              :  0.428867E+01 -0.219340E+01  0.141072E+02
   Ionic forces                  :  0.000000E+00  0.000000E+00  0.000000E+00
   Multipole                     : -0.298505E-01 -0.640314E+00  0.805163E+00
   Pulay + GGA                   : -0.358826E+01  0.367263E+01 -0.132699E+02
   Van der Waals                 : -0.257405E-02 -0.119785E-01  0.276324E-02
   ----------------------------------------------------------------
   Total forces(  11)            :  0.667981E+00  0.826946E+00  0.164516E+01
  atom #   12
   Hellmann-Feynman              : -0.111996E+01 -0.448467E+01 -0.158689E+02
   Ionic forces                  :  0.000000E+00  0.000000E+00  0.000000E+00
   Multipole                     : -0.600654E+00 -0.116934E+01 -0.643754E+00
   Pulay + GGA                   : -0.903595E+00  0.453934E+01  0.143181E+02
   Van der Waals                 :  0.193667E-02  0.107039E-01  0.518995E-03
   ----------------------------------------------------------------
   Total forces(  12)            : -0.262227E+01 -0.110397E+01 -0.219401E+01
  atom #   13
   Hellmann-Feynman              : -0.482940E+00 -0.136448E+01  0.179131E+00
   Ionic forces                  :  0.000000E+00  0.000000E+00  0.000000E+00
   Multipole                     : -0.713265E-01 -0.140656E-01  0.431575E-01
   Pulay + GGA                   :  0.287170E+00  0.730885E-01 -0.262331E+00
   Van der Waals                 :  0.693704E-04  0.409570E-02 -0.246508E-02
   ----------------------------------------------------------------
   Total forces(  13)            : -0.267027E+00 -0.130136E+01 -0.425079E-01

  Timings for VdW correction (Tkatchenko-Scheffler 2009 or later):
  | CPU time:        0.090 s, Wall clock time:        0.091 s.
  Removing unitary transformations (pure translations, rotations) from forces on atoms.
  Atomic forces before filtering:
  | Net force on center of mass :  -0.347814E-02 -0.144366E-02 -0.697244E-03 eV/A
  | Net torque on center of mass:  -0.102455E-01  0.422684E-02  0.820942E-03 eV
  Atomic forces after filtering:
  | Net force on center of mass :  -0.312211E-15  0.713624E-15  0.853004E-15 eV/A
  | Net torque on center of mass:   0.113290E-14 -0.105029E-14 -0.755268E-15 eV

  Energy and forces in a compact form:
  | Total energy uncorrected      :         -0.880257990902944E+04 eV
  | Total energy corrected        :         -0.880257990902944E+04 eV  <-- do not rely on this value for anything but (periodic) metals
  | Electronic free energy        :         -0.880257990902944E+04 eV
  Total atomic forces (unitary forces cleaned) [eV/Ang]:
  |   1         -0.125122877013756E+00          0.211329016313708E+00         -0.841747330490168E+00
  |   2          0.361861816816874E+00          0.820373781714240E-01          0.144414445997847E+00
  |   3          0.181545569674675E+00         -0.151252243699033E+00          0.685296122855806E+00
  |   4          0.165837149688141E+00         -0.424800094874705E-01         -0.237842875965942E+00
  |   5         -0.139526899863548E+00          0.157280958811261E+00         -0.217805873965115E+00
  |   6          0.231388628919549E+00         -0.510686075215697E+00          0.276557812010073E+00
  |   7         -0.267893597176340E+00          0.604425416240478E-02          0.140204142734146E-01
  |   8         -0.213312755356671E-01          0.310939369938472E-01          0.202465204912731E+00
  |   9          0.115699322067610E+00          0.865753716614738E-01         -0.129895573382976E+00
  |  10          0.171852245578767E+01          0.170860379765990E+01          0.697372036827777E+00
  |  11          0.667964409320993E+00          0.826634766006772E+00          0.164489442653242E+01
  |  12         -0.262204525464779E+01         -0.110382309818980E+01         -0.219454485634775E+01
  |  13         -0.266899448038411E+00         -0.130135805318879E+01         -0.431839532581110E-01

  ------------------------------------ 
  Start decomposition of the XC Energy 
  ------------------------------------ 
  X and C from original XC functional choice 
  Hartree-Fock Energy :          0.000000000 Ha              0.000000000 eV
  X Energy            :        -41.037316620 Ha          -1116.682201398 eV
  C Energy            :         -1.600282769 Ha            -43.545909745 eV
  Total XC Energy     :        -42.637599389 Ha          -1160.228111143 eV
  ------------------------------------ 
  LDA X and C from self-consistent density 
  X Energy LDA        :        -37.255536146 Ha          -1013.774718813 eV
  C Energy LDA        :         -3.138519814 Ha            -85.403469413 eV
  ------------------------------------ 
  End decomposition of the XC Energy 
  ------------------------------------ 

------------------------------------------------------------

------------------------------------------------------------------------------
  Final output of selected total energy values:

  The following output summarizes some interesting total energy values
  at the end of a run (AFTER all relaxation, molecular dynamics, etc.).

  | Total energy of the DFT / Hartree-Fock s.c.f. calculation      :          -8802.579909029 eV
  | Final zero-broadening corrected energy (caution - metals only) :          -8802.579909029 eV
  | For reference only, the value of 1 Hartree used in FHI-aims is :             27.211384500 eV

  Before relying on these values, please be sure to understand exactly which
  total energy value is referred to by a given number. Different objects may
  all carry the same name 'total energy'. Definitions:

  Total energy of the DFT / Hartree-Fock s.c.f. calculation:
  | Note that this energy does not include ANY quantities calculated after the
  | s.c.f. cycle, in particular not ANY RPA, MP2, etc. many-body perturbation terms.

  Final zero-broadening corrected energy:
  | For metallic systems only, a broadening of the occupation numbers at the Fermi
  | level can be extrapolated back to zero broadening by an electron-gas inspired
  | formula. For all systems that are not real metals, this value can be
  | meaningless and should be avoided.

------------------------------------------------------------------------------
  Methods described in the following list of references were used in this FHI-aims run.
  If you publish the results, please make sure to cite these reference if they apply.
  FHI-aims is an academic code, and for our developers (often, Ph.D. students
  and postdocs), scientific credit in the community is essential.
  Thank you for helping us!

  For any use of FHI-aims, please cite:

    Volker Blum, Ralf Gehrke, Felix Hanke, Paula Havu, Ville Havu,
    Xinguo Ren, Karsten Reuter, and Matthias Scheffler
    'Ab initio molecular simulations with numeric atom-centered orbitals'
    Computer Physics Communications 180, 2175-2196 (2009)
    http://dx.doi.org/10.1016/j.cpc.2009.06.022


  The scalable eigensolver library ELPA was used in your run.
  ELPA is essential especially for large systems on hundreds or thousands of CPUs.
  For ELPA, please cite:

    Andreas Marek, Volker Blum, Rainer Johanni, Ville Havu, Bruno Lang,
    Thomas Auckenthaler, Alexander Heinecke, Hans-Joachim Bungartz, and Hermann Lederer,
    'The ELPA Library - Scalable Parallel Eigenvalue Solutions
    for Electronic Structure Theory and Computational Science'
    The Journal of Physics: Condensed Matter 26, 213201 (2014).
    http://dx.doi.org/10.1088/0953-8984/26/21/213201


  The ELSI infrastructure was used in your run to solve the Kohn-Sham electronic structure.
  Please check out http://elsi-interchange.org to learn more.
  If scalability is important for your project, please acknowledge ELSI by citing:

    V. W-z. Yu, F. Corsetti, A. Garcia, W. P. Huhn, M. Jacquelin, W. Jia,
    B. Lange, L. Lin, J. Lu, W. Mi, A. Seifitokaldani, A. Vazquez-Mayagoitia,
    C. Yang, H. Yang, and V. Blum
    'ELSI: A unified software interface for Kohn-Sham electronic structure solvers'
    Computer Physics Communications 222, 267-285 (2018).
    http://dx.doi.org/10.1016/j.cpc.2017.09.007


  For the real-space grid partitioning and parallelization used in this calculation, please cite:

    Ville Havu, Volker Blum, Paula Havu, and Matthias Scheffler,
    'Efficient O(N) integration for all-electron electronic structure calculation'
    'using numerically tabulated basis functions'
    Journal of Computational Physics 228, 8367-8379 (2009).
    http://dx.doi.org/10.1016/j.jcp.2009.08.008

  Of course, there are many other important community references, e.g., those cited in the
  above references. Our list is limited to references that describe implementations in the
  FHI-aims code. The reason is purely practical (length of this list) - please credit others as well.

------------------------------------------------------------
          Leaving FHI-aims.
          Date     :  20200805, Time     :  183006.300

          Computational steps:
          | Number of self-consistency cycles          :           15
          | Number of SCF (re)initializations          :            1

          Detailed time accounting                     :  max(cpu_time)    wall_clock(cpu1)
          | Total time                                 :       21.730 s          21.811 s
          | Preparation time                           :        0.149 s           0.151 s
          | Boundary condition initalization           :        0.000 s           0.000 s
          | Grid partitioning                          :        0.112 s           0.113 s
          | Preloading free-atom quantities on grid    :        0.002 s           0.003 s
          | Free-atom superposition energy             :        0.085 s           0.085 s
          | Total time for integrations                :        8.141 s           8.146 s
          | Total time for solution of K.-S. equations :        0.035 s           0.041 s
          | Total time for density & force components  :        6.885 s           6.902 s
          | Total time for mixing                      :        0.203 s           0.206 s
          | Total time for Hartree multipole update    :        0.132 s           0.132 s
          | Total time for Hartree multipole sum       :        5.584 s           5.594 s
          | Total time for total energy evaluation     :        0.002 s           0.002 s
          | Total time for vdW correction              :        0.090 s           0.091 s

          Partial memory accounting:
          | Residual value for overall tracked memory usage across tasks :           0.000 MB (should be 0.000 MB)
          | Peak values for overall tracked memory usage (after allocating hessian_basis_wave):
          |   Minimum:        1.622 MB (on task 1)
          |   Maximum:        1.622 MB (on task 1)
          |   Average:        1.622 MB
          | Largest tracked array allocation (hessian_basis_wave):
          |   Minimum:        0.794 MB (on task 1)
          |   Maximum:        0.794 MB (on task 1)
          |   Average:        0.794 MB
          Note:  These values currently only include a subset of arrays which are explicitly tracked.
          The "true" memory usage will be greater.

          Have a nice day.
------------------------------------------------------------
