  MPI-parallelism will be employed.
------------------------------------------------------------
          Invoking FHI-aims ...
          Version 171221_1
          Compiled on 2019/09/09 at 14:39:39 on host puhti-login2.bullx.

          When using FHI-aims, please cite the following reference:

          Volker Blum, Ralf Gehrke, Felix Hanke, Paula Havu,
          Ville Havu, Xinguo Ren, Karsten Reuter, and Matthias Scheffler,
          'Ab Initio Molecular Simulations with Numeric Atom-Centered Orbitals',
          Computer Physics Communications 180, 2175-2196 (2009)

          For any questions about FHI-aims, please visit the aimsclub website
          with its forums and wiki. Contributions to both the forums and the
          wiki are warmly encouraged - they are for you, and everyone is welcome there.

------------------------------------------------------------



  Date     :  20200601, Time     :  005416.709
  Time zero on CPU 1             :   0.423360000000000E-01  s.
  Internal wall clock time zero  :           360204856.709  s.

  FHI-aims created a unique identifier for this run for later identification
  aims_uuid : 6FD1692D-3BED-4110-A083-398E9F42BB1D

  Using       20 parallel tasks.
  Task        0 on host r04c26.bullx reporting.
  Task        1 on host r04c26.bullx reporting.
  Task        2 on host r04c26.bullx reporting.
  Task        3 on host r04c26.bullx reporting.
  Task        4 on host r04c26.bullx reporting.
  Task        5 on host r04c26.bullx reporting.
  Task        6 on host r04c26.bullx reporting.
  Task        7 on host r04c26.bullx reporting.
  Task        8 on host r04c26.bullx reporting.
  Task        9 on host r04c26.bullx reporting.
  Task       10 on host r04c26.bullx reporting.
  Task       11 on host r04c26.bullx reporting.
  Task       12 on host r04c26.bullx reporting.
  Task       13 on host r04c26.bullx reporting.
  Task       14 on host r04c26.bullx reporting.
  Task       15 on host r04c26.bullx reporting.
  Task       16 on host r04c26.bullx reporting.
  Task       17 on host r04c26.bullx reporting.
  Task       18 on host r04c26.bullx reporting.
  Task       19 on host r04c26.bullx reporting.

  Performing system and environment tests:
  | Environment variable OMP_NUM_THREADS correctly set to 1.
  | Stacksize not measured: no C compiler
  | Checking for scalapack...
  | Testing pdtran()...
  | All pdtran() tests passed.

  Obtaining array dimensions for all initial allocations:
  
  -----------------------------------------------------------------------
  Parsing control.in (first pass over file, find array dimensions only).
  The contents of control.in will be repeated verbatim below
  unless switched off by setting 'verbatim_writeout .false.' .
  in the first line of control.in .
  -----------------------------------------------------------------------
  
  #########################################################################################
  #
  #  Volker Blum, FHI 2009 : Test run input file control.in for simple H2O
  #
  #########################################################################################
  #
  #  Physical model
  #
    xc                 pbe
    vdw_correction_hirshfeld
    spin               none
    relativistic       none
    charge             0.
  #
  #  SCF convergence
  #
    occupation_type    gaussian 0.01
    mixer              pulay
      n_max_pulay        10
      charge_mix_param   0.2
    sc_accuracy_rho    1E-5
    sc_accuracy_eev    1E-3
    sc_accuracy_etot   1E-6
    sc_accuracy_forces 1E-4
    sc_iter_limit      100
  #
  #  Relaxation
  #
  #  relax_geometry   bfgs 1.e-3
  #
  ################################################################################
  #
  #  FHI-aims code project
  #  VB, Fritz-Haber Institut, 2009
  #
  #  Suggested "light" defaults for H atom (to be pasted into control.in file)
  #  Be sure to double-check any results obtained with these settings for post-processing,
  #  e.g., with the "tight" defaults and larger basis sets.
  #
  ################################################################################
    species        H
  #     global species definitions
      nucleus             1
      mass                1.00794
  #
      l_hartree           4
  #
      cut_pot             3.5  1.5  1.0
      basis_dep_cutoff    1e-4
  #
      radial_base         24 5.0
      radial_multiplier   1
      angular_grids       specified
        division   0.2421   50
        division   0.3822  110
        division   0.4799  194
        division   0.5341  302
  #      division   0.5626  434
  #      division   0.5922  590
  #      division   0.6542  770
  #      division   0.6868 1202
  #      outer_grid  770
        outer_grid  302
  ################################################################################
  #
  #  Definition of "minimal" basis
  #
  ################################################################################
  #     valence basis states
      valence      1  s   1.
  #     ion occupancy
      ion_occ      1  s   0.5
  ################################################################################
  #
  #  Suggested additional basis functions. For production calculations,
  #  uncomment them one after another (the most important basis functions are
  #  listed first).
  #
  #  Basis constructed for dimers: 0.5 A, 0.7 A, 1.0 A, 1.5 A, 2.5 A
  #
  ################################################################################
  #  "First tier" - improvements: -1014.90 meV to -62.69 meV
       hydro 2 s 2.1
       hydro 2 p 3.5
  #  "Second tier" - improvements: -12.89 meV to -1.83 meV
  #     hydro 1 s 0.85
  #     hydro 2 p 3.7
  #     hydro 2 s 1.2
  #     hydro 3 d 7
  #  "Third tier" - improvements: -0.25 meV to -0.12 meV
  #     hydro 4 f 11.2
  #     hydro 3 p 4.8
  #     hydro 4 d 9
  #     hydro 3 s 3.2
  ################################################################################
  #
  #  FHI-aims code project
  #  VB, Fritz-Haber Institut, 2009
  #
  #  Suggested "light" defaults for C atom (to be pasted into control.in file)
  #  Be sure to double-check any results obtained with these settings for post-processing,
  #  e.g., with the "tight" defaults and larger basis sets.
  #
  ################################################################################
    species        C
  #     global species definitions
      nucleus             6
      mass                12.0107
  #
      l_hartree           4
  #
      cut_pot             3.5  1.5  1.0
      basis_dep_cutoff    1e-4
  #
      radial_base         34 5.0
      radial_multiplier   1
      angular_grids specified
        division   0.3326   50
        division   0.5710  110
        division   0.7727  194
        division   0.8772  302
  #      division   0.9334  434
  #      division   0.9625  590
  #      division   0.9924  770
  #      division   1.0230  974
  #      division   1.4589 1202
  #     outer_grid  974
       outer_grid 302
  ################################################################################
  #
  #  Definition of "minimal" basis
  #
  ################################################################################
  #     valence basis states
      valence      2  s   2.
      valence      2  p   2.
  #     ion occupancy
      ion_occ      2  s   1.
      ion_occ      2  p   1.
  ################################################################################
  #
  #  Suggested additional basis functions. For production calculations,
  #  uncomment them one after another (the most important basis functions are
  #  listed first).
  #
  #  Constructed for dimers: 1.0 A, 1.25 A, 1.5 A, 2.0 A, 3.0 A
  #
  ################################################################################
  #  "First tier" - improvements: -1214.57 meV to -155.61 meV
       hydro 2 p 1.7
       hydro 3 d 6
       hydro 2 s 4.9
  #  "Second tier" - improvements: -67.75 meV to -5.23 meV
  #     hydro 4 f 9.8
  #     hydro 3 p 5.2
  #     hydro 3 s 4.3
  #     hydro 5 g 14.4
  #     hydro 3 d 6.2
  #  "Third tier" - improvements: -2.43 meV to -0.60 meV
  #     hydro 2 p 5.6
  #     hydro 2 s 1.4
  #     hydro 3 d 4.9
  #     hydro 4 f 11.2
  #  "Fourth tier" - improvements: -0.39 meV to -0.18 meV
  #     hydro 2 p 2.1
  #     hydro 5 g 16.4
  #     hydro 4 d 13.2
  #     hydro 3 s 13.6
  #     hydro 4 f 17.6
  #  Further basis functions - improvements: -0.08 meV and below
  #     hydro 3 s 2
  #     hydro 3 p 6
  #     hydro 4 d 20
  ################################################################################
  #
  #  FHI-aims code project
  #  VB, Fritz-Haber Institut, 2009
  #
  #  Suggested "light" defaults for N atom (to be pasted into control.in file)
  #  Be sure to double-check any results obtained with these settings for post-processing,
  #  e.g., with the "tight" defaults and larger basis sets.
  #
  ################################################################################
    species        N
  #     global species definitions
      nucleus             7
      mass                14.0067
  #
      l_hartree           4
  #
      cut_pot             3.5  1.5  1.0
      basis_dep_cutoff    1e-4
  #
      radial_base         35 5.0
      radial_multiplier   1
      angular_grids       specified
        division   0.2599   50
        division   0.4601  110
        division   0.5885  194
        division   0.6503  302
  #      division   0.6939  434
  #      division   0.7396  590
  #      division   0.7632  770
  #      division   0.8122  974
  #      division   1.1604 1202
  #      outer_grid  974
        outer_grid  302
  ################################################################################
  #
  #  Definition of "minimal" basis
  #
  ################################################################################
  #     valence basis states
      valence      2  s   2.
      valence      2  p   3.
  #     ion occupancy
      ion_occ      2  s   1.
      ion_occ      2  p   2.
  ################################################################################
  #
  #  Suggested additional basis functions. For production calculations,
  #  uncomment them one after another (the most important basis functions are
  #  listed first).
  #
  #  Constructed for dimers: 1.0 A, 1.1 A, 1.5 A, 2.0 A, 3.0 A
  #
  ################################################################################
  #  "First tier" - improvements: -1193.42 meV to -220.60 meV
       hydro 2 p 1.8
       hydro 3 d 6.8
       hydro 3 s 5.8
  #  "Second tier" - improvements: -80.21 meV to -6.86 meV
  #     hydro 4 f 10.8
  #     hydro 3 p 5.8
  #     hydro 1 s 0.8
  #     hydro 5 g 16
  #     hydro 3 d 4.9
  #  "Third tier" - improvements: -4.29 meV to -0.53 meV
  #     hydro 3 s 16
  #     ionic 2 p auto
  #     hydro 3 d 6.6
  #     hydro 4 f 11.6
  #  "Fourth tier" - improvements: -0.75 meV to -0.25 meV
  #     hydro 2 p 4.5
  #     hydro 2 s 2.4
  #     hydro 5 g 14.4
  #     hydro 4 d 14.4
  #     hydro 4 f 16.8
  # Further basis functions - -0.21 meV and below
  #     hydro 3 p 14.8
  #     hydro 3 s 4.4
  #     hydro 3 d 19.6
  #     hydro 5 g 12.8
  ################################################################################
  #
  #  FHI-aims code project
  #  VB, Fritz-Haber Institut, 2009
  #
  #  Suggested "light" defaults for O atom (to be pasted into control.in file)
  #  Be sure to double-check any results obtained with these settings for post-processing,
  #  e.g., with the "tight" defaults and larger basis sets.
  #
  ################################################################################
    species        O
  #     global species definitions
      nucleus             8
      mass                15.9994
  #
      l_hartree           4
  #
      cut_pot             3.5  1.5  1.0
      basis_dep_cutoff    1e-4
  #
      radial_base         36 5.0
      radial_multiplier   1
       angular_grids specified
        division   0.2659   50
        division   0.4451  110
        division   0.6052  194
        division   0.7543  302
  #      division   0.8014  434
  #      division   0.8507  590
  #      division   0.8762  770
  #      division   0.9023  974
  #      division   1.2339 1202
  #      outer_grid 974
        outer_grid 302
  ################################################################################
  #
  #  Definition of "minimal" basis
  #
  ################################################################################
  #     valence basis states
      valence      2  s   2.
      valence      2  p   4.
  #     ion occupancy
      ion_occ      2  s   1.
      ion_occ      2  p   3.
  ################################################################################
  #
  #  Suggested additional basis functions. For production calculations,
  #  uncomment them one after another (the most important basis functions are
  #  listed first).
  #
  #  Constructed for dimers: 1.0 A, 1.208 A, 1.5 A, 2.0 A, 3.0 A
  #
  ################################################################################
  #  "First tier" - improvements: -699.05 meV to -159.38 meV
       hydro 2 p 1.8
       hydro 3 d 7.6
       hydro 3 s 6.4
  #  "Second tier" - improvements: -49.91 meV to -5.39 meV
  #     hydro 4 f 11.6
  #     hydro 3 p 6.2
  #     hydro 3 d 5.6
  #     hydro 5 g 17.6
  #     hydro 1 s 0.75
  #  "Third tier" - improvements: -2.83 meV to -0.50 meV
  #     ionic 2 p auto
  #     hydro 4 f 10.8
  #     hydro 4 d 4.7
  #     hydro 2 s 6.8
  #  "Fourth tier" - improvements: -0.40 meV to -0.12 meV
  #     hydro 3 p 5
  #     hydro 3 s 3.3
  #     hydro 5 g 15.6
  #     hydro 4 f 17.6
  #     hydro 4 d 14
  # Further basis functions - -0.08 meV and below
  #     hydro 3 s 2.1
  #     hydro 4 d 11.6
  #     hydro 3 p 16
  #     hydro 2 s 17.2
  
  -----------------------------------------------------------------------
  Completed first pass over input file control.in .
  -----------------------------------------------------------------------
  
  
  -----------------------------------------------------------------------
  Parsing geometry.in (first pass over file, find array dimensions only).
  The contents of geometry.in will be repeated verbatim below
  unless switched off by setting 'verbatim_writeout .false.' .
  in the first line of geometry.in .
  -----------------------------------------------------------------------
  
  atom  0.00000 0.00000 0.00000 C
  atom  1.09300 0.00000 0.00000 H
  atom  -0.47961 0.00000 -1.41207 N
  atom  -0.39995 -0.94696 -1.78456 H
  atom  -1.45109 0.30351 -1.42731 H
  atom  -0.49584 1.26211 0.72868 C
  atom  0.03277 2.14574 0.36354 H
  atom  -1.56589 1.40413 0.56021 H
  atom  -0.32291 1.17444 1.80384 H
  atom  -0.39425 -1.28861 0.74398 C
  atom  -1.52214 -1.65956 0.96651 O
  atom  0.58699 -2.02463 1.15897 O
  atom  0.07117 -2.79053 1.46280 H
  
  -----------------------------------------------------------------------
  Completed first pass over input file geometry.in .
  -----------------------------------------------------------------------
  

  Basic array size parameters:
  | Number of species                 :        4
  | Number of atoms                   :       13
  | Max. basis fn. angular momentum   :        2
  | Max. atomic/ionic basis occupied n:        2
  | Max. number of basis fn. types    :        2
  | Max. radial fns per species/type  :        3
  | Max. logarithmic grid size        :     1301
  | Max. radial integration grid size :       36
  | Max. angular integration grid size:      302
  | Max. angular grid division number :        8
  | Radial grid for Hartree potential :     1301
  | Number of spin channels           :        1

------------------------------------------------------------
          Reading file control.in.
------------------------------------------------------------
  XC: Using PBE gradient-corrected functionals.
  Spin treatment: No spin polarisation.
  Non-relativistic treatment of kinetic energy.
  Charge =   0.000000E+00: Neutral system requested explicitly.
  Occupation type: Gaussian broadening, width =   0.100000E-01 eV.
  Using pulay charge density mixing.
  Pulay mixing - number of memorized iterations:   10
  Charge density mixing - mixing parameter:     0.2000
  Convergence accuracy of self-consistent charge density:  0.1000E-04
  Convergence accuracy of sum of eigenvalues:  0.1000E-02
  Convergence accuracy of total energy:  0.1000E-05
  Convergence accuracy of forces:  0.1000E-03
  Maximum number of s.-c. iterations  :   100
 
  Reading configuration options for species H                   .
  | Found nuclear charge :   1.0000
  | Found atomic mass :    1.00794000000000      amu
  | Found l_max for Hartree potential  :   4
  | Found cutoff potl. onset [A], width [A], scale factor :    3.50000    1.50000    1.00000
  | Threshold for basis-dependent cutoff potential is   0.100000E-03
  | Found data for basic radial integration grid :    24 points, outermost radius =    5.000 A
  | Found multiplier for basic radial grid :   1
  | Found angular grid specification: user-specified.
  | Specified grid contains     5 separate shells.
  | Check grid settings after all constraints further below.
  | Found free-atom valence shell :  1 s   1.000
  | No ionic wave fns used. Skipping ion_occ.
  | Found hydrogenic basis function :  2 s   2.100
  | Found hydrogenic basis function :  2 p   3.500
  Species H                   : Missing cutoff potential type.
  Defaulting to exp(1/x)/(1-x)^2 type cutoff potential.
  Species H : No 'logarithmic' tag. Using default grid for free atom:
  | Default logarithmic grid data [bohr] : 0.1000E-03 0.1000E+03 0.1012E+01
  Species H : On-site basis accuracy parameter (for Gram-Schmidt orthonormalisation) not specified.
  Using default value basis_acc =  0.1000000E-03.
  Species H                   : Using default innermost maximum threshold i_radial=  2 for radial functions.
  Species H                   : Default cutoff onset for free atom density etc. : 0.35000000E+01 AA.
  Species H                   : Basic radial grid will be enhanced according to radial_multiplier =   1, to contain    24 grid points.
 
  Reading configuration options for species C                   .
  | Found nuclear charge :   6.0000
  | Found atomic mass :    12.0107000000000      amu
  | Found l_max for Hartree potential  :   4
  | Found cutoff potl. onset [A], width [A], scale factor :    3.50000    1.50000    1.00000
  | Threshold for basis-dependent cutoff potential is   0.100000E-03
  | Found data for basic radial integration grid :    34 points, outermost radius =    5.000 A
  | Found multiplier for basic radial grid :   1
  | Found angular grid specification: user-specified.
  | Specified grid contains     5 separate shells.
  | Check grid settings after all constraints further below.
  | Found free-atom valence shell :  2 s   2.000
  | Found free-atom valence shell :  2 p   2.000
  | No ionic wave fns used. Skipping ion_occ.
  | No ionic wave fns used. Skipping ion_occ.
  | Found hydrogenic basis function :  2 p   1.700
  | Found hydrogenic basis function :  3 d   6.000
  | Found hydrogenic basis function :  2 s   4.900
  Species C                   : Missing cutoff potential type.
  Defaulting to exp(1/x)/(1-x)^2 type cutoff potential.
  Species C : No 'logarithmic' tag. Using default grid for free atom:
  | Default logarithmic grid data [bohr] : 0.1000E-03 0.1000E+03 0.1012E+01
  Species C : On-site basis accuracy parameter (for Gram-Schmidt orthonormalisation) not specified.
  Using default value basis_acc =  0.1000000E-03.
  Species C                   : Using default innermost maximum threshold i_radial=  2 for radial functions.
  Species C                   : Default cutoff onset for free atom density etc. : 0.35000000E+01 AA.
  Species C                   : Basic radial grid will be enhanced according to radial_multiplier =   1, to contain    34 grid points.
 
  Reading configuration options for species N                   .
  | Found nuclear charge :   7.0000
  | Found atomic mass :    14.0067000000000      amu
  | Found l_max for Hartree potential  :   4
  | Found cutoff potl. onset [A], width [A], scale factor :    3.50000    1.50000    1.00000
  | Threshold for basis-dependent cutoff potential is   0.100000E-03
  | Found data for basic radial integration grid :    35 points, outermost radius =    5.000 A
  | Found multiplier for basic radial grid :   1
  | Found angular grid specification: user-specified.
  | Specified grid contains     5 separate shells.
  | Check grid settings after all constraints further below.
  | Found free-atom valence shell :  2 s   2.000
  | Found free-atom valence shell :  2 p   3.000
  | No ionic wave fns used. Skipping ion_occ.
  | No ionic wave fns used. Skipping ion_occ.
  | Found hydrogenic basis function :  2 p   1.800
  | Found hydrogenic basis function :  3 d   6.800
  | Found hydrogenic basis function :  3 s   5.800
  Species N                   : Missing cutoff potential type.
  Defaulting to exp(1/x)/(1-x)^2 type cutoff potential.
  Species N : No 'logarithmic' tag. Using default grid for free atom:
  | Default logarithmic grid data [bohr] : 0.1000E-03 0.1000E+03 0.1012E+01
  Species N : On-site basis accuracy parameter (for Gram-Schmidt orthonormalisation) not specified.
  Using default value basis_acc =  0.1000000E-03.
  Species N                   : Using default innermost maximum threshold i_radial=  2 for radial functions.
  Species N                   : Default cutoff onset for free atom density etc. : 0.35000000E+01 AA.
  Species N                   : Basic radial grid will be enhanced according to radial_multiplier =   1, to contain    35 grid points.
 
  Reading configuration options for species O                   .
  | Found nuclear charge :   8.0000
  | Found atomic mass :    15.9994000000000      amu
  | Found l_max for Hartree potential  :   4
  | Found cutoff potl. onset [A], width [A], scale factor :    3.50000    1.50000    1.00000
  | Threshold for basis-dependent cutoff potential is   0.100000E-03
  | Found data for basic radial integration grid :    36 points, outermost radius =    5.000 A
  | Found multiplier for basic radial grid :   1
  | Found angular grid specification: user-specified.
  | Specified grid contains     5 separate shells.
  | Check grid settings after all constraints further below.
  | Found free-atom valence shell :  2 s   2.000
  | Found free-atom valence shell :  2 p   4.000
  | No ionic wave fns used. Skipping ion_occ.
  | No ionic wave fns used. Skipping ion_occ.
  | Found hydrogenic basis function :  2 p   1.800
  | Found hydrogenic basis function :  3 d   7.600
  | Found hydrogenic basis function :  3 s   6.400
  Species O                   : Missing cutoff potential type.
  Defaulting to exp(1/x)/(1-x)^2 type cutoff potential.
  Species O : No 'logarithmic' tag. Using default grid for free atom:
  | Default logarithmic grid data [bohr] : 0.1000E-03 0.1000E+03 0.1012E+01
  Species O : On-site basis accuracy parameter (for Gram-Schmidt orthonormalisation) not specified.
  Using default value basis_acc =  0.1000000E-03.
  Species O                   : Using default innermost maximum threshold i_radial=  2 for radial functions.
  Species O                   : Default cutoff onset for free atom density etc. : 0.35000000E+01 AA.
  Species O                   : Basic radial grid will be enhanced according to radial_multiplier =   1, to contain    36 grid points.
 
  Finished reading input file 'control.in'. Consistency checks are next.
 
  MPI_IN_PLACE appears to work with this MPI implementation.
  | Keeping use_mpi_in_place .true. (see manual).
  Target number of points in a grid batch is not set. Defaulting to  100
  Method for grid partitioning is not set. Defaulting to parallel hash+maxmin partitioning.
  Batch size limit is not set. Defaulting to    200
  By default, will store active basis functions for each batch.
  If in need of memory, prune_basis_once .false. can be used to disable this option.
  communication_type for Hartree potential was not specified.
  Defaulting to calc_hartree .
  Pulay mixer: Number of initial linear mixing iterations not set.
  Defaulting to    0 iterations.
  Work space size for distributed Hartree potential not set.
  Defaulting to   0.200000E+03 MB.
  Algorithm-dependent basis array size parameters:
  | n_max_pulay                         :       10
  Presetting      1001 iterations before the initial mixing cycle
  is restarted anyway using the sc_init_iter criterion / keyword.
  Presetting a factor      1.000 between actual scf density residual
  and density convergence criterion sc_accuracy_rho below which sc_init_iter
  takes no effect.
  Geometry relaxation not requested: no relaxation will be performed.
  Handling of forces: Unphysical translation and rotation will be removed from forces.
  No accuracy limit for integral partition fn. given. Defaulting to  0.1000E-14.
  No threshold value for u(r) in integrations given. Defaulting to  0.1000E-05.
  No accuracy for occupation numbers given. Defaulting to  0.1000E-12.
  No threshold value for occupation numbers given. Defaulting to  0.0000E+00.
  No accuracy for fermi level given. Defaulting to  0.1000E-19.
  Maximum # of iterations to find E_F not set. Defaulting to  200.
  Preferred method for the eigenvalue solver ('KS_method') not specified in 'control.in'.
  Calling BLACS routine to test compilation state
  Since ScaLAPACK support is enabled, defaulting to 'elsi'.
  Will not use alltoall communication since running on < 1024 CPUs.
  Threshold for basis singularities not set.
  Default threshold for basis singularities:  0.1000E-04
  partition_type (choice of integration weights) for integrals was not specified.
  | Using a version of the partition function of Stratmann and coworkers ('stratmann_smoother').
  | At each grid point, the set of atoms used to build the partition table is smoothly restricted to
  | only those atoms whose free-atom density would be non-zero at that grid point.
  Partitioning for Hartree potential was not defined. Using partition_type for integrals.
  | Adjusted default value of keyword multip_moments_threshold to:       0.10000000E-11
  | This value may affect high angular momentum components of the Hartree potential in periodic systems.
  No q(lm)/r^(l+1) cutoff set for long-range Hartree potential.
  | Using default value of  0.100000E-09 .
  | Verify using the multipole_threshold keyword.
  Defaulting to new monopole extrapolation.
  Density update method: automatic selection selected.
------------------------------------------------------------


------------------------------------------------------------
          Reading geometry description geometry.in.
------------------------------------------------------------
  Input structure read successfully.
  The structure contains       13 atoms,  and a total of         48.000 electrons.

  Input geometry:
  | No unit cell requested.
  | Atomic structure:
  |       Atom                x [A]            y [A]            z [A]
  |    1: Species C             0.00000000        0.00000000        0.00000000
  |    2: Species H             1.09300000        0.00000000        0.00000000
  |    3: Species N            -0.47961000        0.00000000       -1.41207000
  |    4: Species H            -0.39995000       -0.94696000       -1.78456000
  |    5: Species H            -1.45109000        0.30351000       -1.42731000
  |    6: Species C            -0.49584000        1.26211000        0.72868000
  |    7: Species H             0.03277000        2.14574000        0.36354000
  |    8: Species H            -1.56589000        1.40413000        0.56021000
  |    9: Species H            -0.32291000        1.17444000        1.80384000
  |   10: Species C            -0.39425000       -1.28861000        0.74398000
  |   11: Species O            -1.52214000       -1.65956000        0.96651000
  |   12: Species O             0.58699000       -2.02463000        1.15897000
  |   13: Species H             0.07117000       -2.79053000        1.46280000
  |

  | The smallest distance between any two atoms is         0.97210378 AA.
  |
  | The first atom of this pair is atom number                     12 .
  | The second atom of this pair is atom number                    13 .

  Number of empty states per atom not set in control.in - providing a guess from actual geometry.
  | Total number of empty states used during s.c.f. cycle:       29
  If you use a very high smearing, use empty_states (per atom!) in control.in to increase this value.

  Structure-dependent array size parameters: 
  | Maximum number of distinct radial functions  :       21
  | Maximum number of basis functions            :      119
  | Number of Kohn-Sham states (occupied + empty):       53
------------------------------------------------------------

------------------------------------------------------------
          Preparing all fixed parts of the calculation.
------------------------------------------------------------
  Determining machine precision:
    2.225073858507201E-308
  Setting up grids for atomic and cluster calculations.

  Creating wave function, potential, and density for free atoms.

  Species: H

  List of occupied orbitals and eigenvalues:
    n    l              occ      energy [Ha]    energy [eV]
    1    0           1.0000        -0.237589        -6.4651


  Species: C

  List of occupied orbitals and eigenvalues:
    n    l              occ      energy [Ha]    energy [eV]
    1    0           2.0000       -10.038835      -273.1706
    2    0           2.0000        -0.502696       -13.6791
    2    1           2.0000        -0.191971        -5.2238


  Species: N

  List of occupied orbitals and eigenvalues:
    n    l              occ      energy [Ha]    energy [eV]
    1    0           2.0000       -14.128000      -384.4424
    2    0           2.0000        -0.681077       -18.5330
    2    1           3.0000        -0.259788        -7.0692


  Species: O

  List of occupied orbitals and eigenvalues:
    n    l              occ      energy [Ha]    energy [eV]
    1    0           2.0000       -18.898188      -514.2459
    2    0           2.0000        -0.878505       -23.9053
    2    1           4.0000        -0.331779        -9.0282

  Creating fixed part of basis set: Ionic, confined, hydrogenic.
 
  H                    hydrogenic:
 
  List of hydrogenic basis orbitals: 
    n    l      effective z      eigenvalue [eV]  inner max. [A]     outer max. [A]     outer radius [A]   
    2    0         2.100000       -14.9728           0.193243           1.317208           4.583499
    2    1         3.500000       -41.6669           0.602369           0.602369           3.723403
 
 
  C                    hydrogenic:
 
  List of hydrogenic basis orbitals: 
    n    l      effective z      eigenvalue [eV]  inner max. [A]     outer max. [A]     outer radius [A]   
    2    1         1.700000        -9.7616           1.230570           1.230570           4.607917
    3    2         6.000000       -54.4224           0.792453           0.792453           3.883070
    2    0         4.900000       -81.6679           0.082559           0.562749           3.078220
 
 
  N                    hydrogenic:
 
  List of hydrogenic basis orbitals: 
    n    l      effective z      eigenvalue [eV]  inner max. [A]     outer max. [A]     outer radius [A]   
    2    1         1.800000       -10.9749           1.177451           1.177451           4.573712
    3    2         6.800000       -69.9026           0.704619           0.704619           3.538137
    3    0         5.800000       -50.8545           0.067388           1.191934           4.250239
 
 
  O                    hydrogenic:
 
  List of hydrogenic basis orbitals: 
    n    l      effective z      eigenvalue [eV]  inner max. [A]     outer max. [A]     outer radius [A]   
    2    1         1.800000       -10.9749           1.164242           1.164242           4.578029
    3    2         7.600000       -87.3180           0.624125           0.624125           3.251020
    3    0         6.400000       -61.9207           0.061167           1.081902           4.001998
 

  Adding cutoff potential to free-atom effective potential.
  Creating atomic-like basis functions for current effective potential.

  Species H                   :

  List of atomic basis orbitals and eigenvalues:
    n    l      energy [Ha]    energy [eV]    outer radius [A]
    1    0        -0.237589        -6.4651       4.527807


  Species C                   :

  List of atomic basis orbitals and eigenvalues:
    n    l      energy [Ha]    energy [eV]    outer radius [A]
    1    0       -10.038835      -273.1706       1.934409
    2    0        -0.502696       -13.6791       4.496620
    2    1        -0.191971        -5.2238       4.551928


  Species N                   :

  List of atomic basis orbitals and eigenvalues:
    n    l      energy [Ha]    energy [eV]    outer radius [A]
    1    0       -14.128000      -384.4424       1.637919
    2    0        -0.681077       -18.5330       4.463241
    2    1        -0.259788        -7.0692       4.518138


  Species O                   :

  List of atomic basis orbitals and eigenvalues:
    n    l      energy [Ha]    energy [eV]    outer radius [A]
    1    0       -18.898188      -514.2459       1.415765
    2    0        -0.878505       -23.9053       4.413171
    2    1        -0.331779        -9.0282       4.522403

  Assembling full basis from fixed parts.
  | Species H :   atomic orbital   1 s accepted.
  | Species H :    hydro orbital   2 s accepted.
  | Species H :    hydro orbital   2 p accepted.
  | Species C :   atomic orbital   1 s accepted.
  | Species C :    hydro orbital   2 s accepted.
  | Species C :   atomic orbital   2 s accepted.
  | Species C :   atomic orbital   2 p accepted.
  | Species C :    hydro orbital   2 p accepted.
  | Species C :    hydro orbital   3 d accepted.
  | Species N :   atomic orbital   1 s accepted.
  | Species N :    hydro orbital   3 s accepted.
  | Species N :   atomic orbital   2 s accepted.
  | Species N :   atomic orbital   2 p accepted.
  | Species N :    hydro orbital   2 p accepted.
  | Species N :    hydro orbital   3 d accepted.
  | Species O :   atomic orbital   1 s accepted.
  | Species O :    hydro orbital   3 s accepted.
  | Species O :   atomic orbital   2 s accepted.
  | Species O :   atomic orbital   2 p accepted.
  | Species O :    hydro orbital   2 p accepted.
  | Species O :    hydro orbital   3 d accepted.
 
  Basis size parameters after reduction:
  | Total number of radial functions:       21
  | Total number of basis functions :      119
 
  Per-task memory consumption for arrays in subroutine allocate_ext:
  |           5.250512MB.
  Testing on-site integration grid accuracy.
  |  Species  Function  <phi|h_atom|phi> (log., in eV)  <phi|h_atom|phi> (rad., in eV)
           1        1                 -6.4663192853                 -6.4651273558
           1        2                 13.7111246313                 13.7170609718
           1        3                 25.2673269279                 25.2674696378
           2        4               -273.1705927641               -273.1705631568
           2        5                -10.7109323383                -10.7107120029
           2        6                 17.4381822266                 17.4352413244
           2        7                 -5.2255326521                 -5.2270484734
           2        8                  8.6835629259                  8.6603288385
           2        9                 27.4952418996                 27.4953360207
           3       10               -384.4424306495               -384.4423701208
           3       11                 12.5842251816                 12.5842222903
           3       12                -15.7264628251                -15.7264433455
           3       13                 -7.0696854293                 -7.0701769954
           3       14                  8.8090390882                  8.7901077751
           3       15                 35.9586762123                 35.9588528632
           4       16               -514.2458688638               -514.2457643834
           4       17                 15.1795651126                 15.1795290741
           4       18                -21.5359799773                -21.5360846186
           4       19                 -9.0283069236                 -9.0284644067
           4       20                  8.3027758564                  8.2834874195
           4       21                 45.8339351984                 45.8338762259

  Preparing densities etc. for the partition functions (integrals / Hartree potential).

  Preparations completed.
  max(cpu_time)          :      0.166 s.
  Wall clock time (cpu1) :      0.167 s.
------------------------------------------------------------

------------------------------------------------------------
          Begin self-consistency loop: Initialization.

          Date     :  20200601, Time     :  005416.922
------------------------------------------------------------

  Initializing index lists of integration centers etc. from given atomic structure:
  | Number of centers in hartree potential         :        13
  | Number of centers in hartree multipole         :        13
  | Number of centers in electron density summation:        13
  | Number of centers in basis integrals           :        13
  | Number of centers in integrals                 :        13
  | Number of centers in hamiltonian               :        13
  * Using 20 tasks for Scalapack Eigenvalue solver.
  Detailed listing of tasks and assigned k-points:
  (for non-periodic systems, the "k-point" denotes an internal label only)
   Task     0 k-point     1 on r04c26.bullx
   Task     1 k-point     1 on r04c26.bullx
   Task     2 k-point     1 on r04c26.bullx
   Task     3 k-point     1 on r04c26.bullx
   Task     4 k-point     1 on r04c26.bullx
   Task     5 k-point     1 on r04c26.bullx
   Task     6 k-point     1 on r04c26.bullx
   Task     7 k-point     1 on r04c26.bullx
   Task     8 k-point     1 on r04c26.bullx
   Task     9 k-point     1 on r04c26.bullx
   Task    10 k-point     1 on r04c26.bullx
   Task    11 k-point     1 on r04c26.bullx
   Task    12 k-point     1 on r04c26.bullx
   Task    13 k-point     1 on r04c26.bullx
   Task    14 k-point     1 on r04c26.bullx
   Task    15 k-point     1 on r04c26.bullx
   Task    16 k-point     1 on r04c26.bullx
   Task    17 k-point     1 on r04c26.bullx
   Task    18 k-point     1 on r04c26.bullx
   Task    19 k-point     1 on r04c26.bullx
  Tasks:    20 split into      5 X      4 BLACS grid
  Calculating block size based on n_basis =          119  max_nprow =            5  max_npcol =            4
  ScaLAPACK block size set to:           16
  Allocating        0.008 MB for ovlp
  Allocating        0.008 MB for ham
  Allocating        0.008 MB for eigenvec
  Required Scalapack workspace - INTEGER:            1  REAL:             1
  Partitioning the integration grid into batches with parallel hashing+maxmin method.
  | Number of batches:      847
  | Maximal batch size:     191
  | Minimal batch size:      50
  | Average batch size:      82.227
  | Standard deviation of batch sizes:      19.203

  Integration load balanced across    20 MPI tasks.
  Work distribution over tasks is as follows:
  Task     0 has       3520 integration points.
  Task     1 has       3503 integration points.
  Task     2 has       3441 integration points.
  Task     3 has       3515 integration points.
  Task     4 has       3416 integration points.
  Task     5 has       3422 integration points.
  Task     6 has       3474 integration points.
  Task     7 has       3508 integration points.
  Task     8 has       3474 integration points.
  Task     9 has       3448 integration points.
  Task    10 has       3468 integration points.
  Task    11 has       3447 integration points.
  Task    12 has       3513 integration points.
  Task    13 has       3447 integration points.
  Task    14 has       3568 integration points.
  Task    15 has       3451 integration points.
  Task    16 has       3587 integration points.
  Task    17 has       3467 integration points.
  Task    18 has       3499 integration points.
  Task    19 has       3478 integration points.
  Initializing partition tables, free-atom densities, potentials, etc. across the integration grid (initialize_grid_storage).
  | initialize_grid_storage: Actual outermost partition radius vs. multipole_radius_free
  | (-- VB: in principle, multipole_radius_free should be larger, hence this output)
  | Species        1: Confinement radius =              4.999999999999999 AA, multipole_radius_free =              5.054417573612229 AA.
  | Species        1: outer_partition_radius set to              5.054417573612229 AA .
  | Species        2: Confinement radius =              4.999999999999999 AA, multipole_radius_free =              5.019602836301480 AA.
  | Species        2: outer_partition_radius set to              5.019602836301480 AA .
  | Species        3: Confinement radius =              4.999999999999999 AA, multipole_radius_free =              5.043624274424571 AA.
  | Species        3: outer_partition_radius set to              5.043624274424571 AA .
  | Species        4: Confinement radius =              4.999999999999999 AA, multipole_radius_free =              5.048384829883283 AA.
  | Species        4: outer_partition_radius set to              5.048384829883283 AA .
  | Original list of interatomic distances with          13 x         13 entries is created.
  | Net number of integration points:    69646
  | of which are non-zero points    :    59564
  Renormalizing the initial density to the exact electron count on the 3D integration grid.
  | Initial density: Formal number of electrons (from input files) :      48.0000000000
  | Integrated number of electrons on 3D grid     :      47.9999833098
  | Charge integration error                      :      -0.0000166902
  | Normalization factor for density and gradient :       1.0000003477
  Obtaining max. number of non-zero basis functions in each batch (get_n_compute_maxes).
  | Maximal number of non-zero basis functions:      117 in task     0
  | Maximal number of non-zero basis functions:      118 in task     1
  | Maximal number of non-zero basis functions:      118 in task     2
  | Maximal number of non-zero basis functions:      118 in task     3
  | Maximal number of non-zero basis functions:      118 in task     4
  | Maximal number of non-zero basis functions:      118 in task     5
  | Maximal number of non-zero basis functions:      118 in task     6
  | Maximal number of non-zero basis functions:      118 in task     7
  | Maximal number of non-zero basis functions:      118 in task     8
  | Maximal number of non-zero basis functions:      118 in task     9
  | Maximal number of non-zero basis functions:      118 in task    10
  | Maximal number of non-zero basis functions:      118 in task    11
  | Maximal number of non-zero basis functions:      118 in task    12
  | Maximal number of non-zero basis functions:      118 in task    13
  | Maximal number of non-zero basis functions:      119 in task    14
  | Maximal number of non-zero basis functions:      118 in task    15
  | Maximal number of non-zero basis functions:      118 in task    16
  | Maximal number of non-zero basis functions:      117 in task    17
  | Maximal number of non-zero basis functions:      119 in task    18
  | Maximal number of non-zero basis functions:      118 in task    19
  Selecting the method for density update.
  Loop over occupied states selected for charge density update.
  Allocating        0.050 MB for KS_eigenvector
  Integrating Hamiltonian matrix: batch-based integration.
  Time summed over all CPUs for integration: real work        0.514 s, elapsed        0.539 s
  Integrating overlap matrix.
  Time summed over all CPUs for integration: real work        0.214 s, elapsed        0.223 s
  Deallocating overlap matrix.

  Updating Kohn-Sham eigenvalues and eigenvectors using ELSI and the ELPA eigensolver.
  ELPA settings:
  | ELPA solver          1
  | Time full => band           :     0.001 s
  | Time band => tridiagonal    :     0.001 s
  | Time solve tridiagonal      :     0.001 s
  Overlap matrix is nonsingular
  | Lowest eigenvalue of overlap  :  0.57E-02
  | Highest eigenvalue of overlap :  0.61E+01
  Finished singularity check of overlap matrix
  | Time :     0.003 s
  Finished Cholesky decomposition
  | Time :     0.001 s
  Finished transformation to standard eigenproblem
  | Time :     0.001 s
  Starting ELPA eigensolver
  | Time full => tridiagonal    :     0.002 s
  | Time solve tridiagonal      :     0.000 s
  | Time ev tridiagonal => full :     0.000 s
  Finished solving standard eigenproblem
  | Time :     0.003 s
  Finished back-transformation of eigenvectors
  | Time :     0.000 s

  Obtaining occupation numbers and chemical potential using ELSI.
  | Chemical potential (Fermi level):    -9.85043682eV
  Writing Kohn-Sham eigenvalues.

  State    Occupation    Eigenvalue [Ha]    Eigenvalue [eV]
      1       2.00000         -19.007645         -517.22433
      2       2.00000         -18.978295         -516.42569
      3       2.00000         -14.245733         -387.64613
      4       2.00000         -10.166747         -276.65127
      5       2.00000         -10.141235         -275.95704
      6       2.00000         -10.132105         -275.70859
      7       2.00000          -1.188225          -32.33324
      8       2.00000          -1.092814          -29.73699
      9       2.00000          -0.991222          -26.97253
     10       2.00000          -0.861323          -23.43778
     11       2.00000          -0.763908          -20.78700
     12       2.00000          -0.675463          -18.38027
     13       2.00000          -0.616400          -16.77309
     14       2.00000          -0.606706          -16.50932
     15       2.00000          -0.595182          -16.19573
     16       2.00000          -0.573100          -15.59486
     17       2.00000          -0.538997          -14.66686
     18       2.00000          -0.529916          -14.41976
     19       2.00000          -0.512655          -13.95005
     20       2.00000          -0.492669          -13.40620
     21       2.00000          -0.489551          -13.32137
     22       2.00000          -0.429987          -11.70053
     23       2.00000          -0.413447          -11.25048
     24       2.00000          -0.380708          -10.35959
     25       0.00000          -0.156731           -4.26485
     26       0.00000          -0.053213           -1.44800
     27       0.00000          -0.024119           -0.65631
     28       0.00000          -0.016961           -0.46153
     29       0.00000          -0.010265           -0.27932
     30       0.00000           0.009475            0.25784
     31       0.00000           0.017495            0.47606
     32       0.00000           0.021280            0.57906
     33       0.00000           0.047488            1.29221
     34       0.00000           0.072016            1.95966
     35       0.00000           0.097509            2.65334
     36       0.00000           0.122853            3.34301
     37       0.00000           0.140516            3.82363
     38       0.00000           0.212174            5.77356
     39       0.00000           0.218312            5.94056
     40       0.00000           0.226604            6.16621
     41       0.00000           0.244260            6.64666
     42       0.00000           0.273286            7.43648
     43       0.00000           0.284402            7.73897
     44       0.00000           0.304896            8.29665
     45       0.00000           0.318175            8.65799
     46       0.00000           0.344745            9.38100
     47       0.00000           0.375635           10.22156
     48       0.00000           0.420255           11.43572
     49       0.00000           0.447647           12.18110
     50       0.00000           0.467945           12.73342
     51       0.00000           0.485313           13.20605
     52       0.00000           0.518973           14.12196
     53       0.00000           0.555002           15.10238

  Highest occupied state (VBM) at    -10.35958802 eV
  | Occupation number:      2.00000000

  Lowest unoccupied state (CBM) at    -4.26485477 eV
  | Occupation number:      0.00000000

  Overall HOMO-LUMO gap:      6.09473325 eV.
  Calculating total energy contributions from superposition of free atom densities.

  Total energy components:
  | Sum of eigenvalues            :        -188.84806810 Ha       -5138.81739314 eV
  | XC energy correction          :         -41.78589294 Ha       -1137.05199948 eV
  | XC potential correction       :          53.71592682 Ha        1461.68473835 eV
  | Free-atom electrostatic energy:        -146.85414097 Ha       -3996.10449534 eV
  | Hartree energy correction     :           0.00000000 Ha           0.00000000 eV
  | vdW energy correction         :           0.00000000 Ha           0.00000000 eV
  | Entropy correction            :           0.00000000 Ha           0.00000000 eV
  | ---------------------------
  | Total energy                  :        -323.77217519 Ha       -8810.28914961 eV
  | Total energy, T -> 0          :        -323.77217519 Ha       -8810.28914961 eV  <-- do not rely on this value for anything but (periodic) metals
  | Electronic free energy        :        -323.77217519 Ha       -8810.28914961 eV

  Derived energy quantities:
  | Kinetic energy                :         320.47980179 Ha        8720.69911091 eV
  | Electrostatic energy          :        -602.46608404 Ha      -16393.93626103 eV
  | Energy correction for multipole
  | error in Hartree potential    :           0.00000000 Ha           0.00000000 eV
  | Sum of eigenvalues per atom                           :        -395.29364563 eV
  | Total energy (T->0) per atom                          :        -677.71454997 eV  <-- do not rely on this value for anything but (periodic) metals
  | Electronic free energy per atom                       :        -677.71454997 eV
  Initialize hartree_potential_storage
  Max. number of atoms included in rho_multipole:           13

  End scf initialization - timings             :  max(cpu_time)    wall_clock(cpu1)
  | Time for scf. initialization               :        0.094 s           0.094 s
  | Boundary condition initialization          :        0.000 s           0.000 s
  | Integration                                :        0.039 s           0.040 s
  | Solution of K.-S. eqns.                    :        0.010 s           0.010 s
  | Grid partitioning                          :        0.021 s           0.021 s
  | Preloading free-atom quantities on grid    :        0.003 s           0.003 s
  | Free-atom superposition energy             :        0.005 s           0.004 s
  | Total energy evaluation                    :        0.000 s           0.001 s

  Partial memory accounting:
  | Current value for overall tracked memory usage on task 0  :           0.133 MB
  | Peak value for overall tracked memory usage on task 0     :           0.839 MB after allocating wave
  | Largest tracked array allocation on task 0 so far         :           0.179 MB  when allocating H_times_psi
  Note:  These values currently only include a subset of arrays which are explicitly tracked.
  The "true" memory usage will be greater.
------------------------------------------------------------

------------------------------------------------------------
          Begin self-consistency iteration #    1

  Date     :  20200601, Time     :  005417.016
------------------------------------------------------------
  Evaluating new KS density.
  Integration grid: deviation in total charge (<rho> - N_e) =   1.421085E-14
  Pulay mixing of updated and previous charge densities.

  Evaluating partitioned Hartree potential by multipole expansion.
  | Analytical far-field extrapolation by fixed multipoles:
  | Hartree multipole sum: apparent total charge =  -0.119953E-03
  Summing up the Hartree potential.
  Time summed over all CPUs for potential: real work        0.421 s, elapsed        0.429 s
  | RMS charge density error from multipole expansion :   0.593842E-02

  Integrating Hamiltonian matrix: batch-based integration.
  Time summed over all CPUs for integration: real work        0.502 s, elapsed        0.529 s

  Updating Kohn-Sham eigenvalues and eigenvectors using ELSI and the ELPA eigensolver.
  ELPA settings:
  | ELPA solver          1
  Finished transformation to standard eigenproblem
  | Time :     0.000 s
  Starting ELPA eigensolver
  | Time full => tridiagonal    :     0.002 s
  | Time solve tridiagonal      :     0.000 s
  | Time ev tridiagonal => full :     0.000 s
  Finished solving standard eigenproblem
  | Time :     0.003 s
  Finished back-transformation of eigenvectors
  | Time :     0.000 s

  Obtaining occupation numbers and chemical potential using ELSI.
  | Chemical potential (Fermi level):    -4.74402646eV
  Writing Kohn-Sham eigenvalues.

  State    Occupation    Eigenvalue [Ha]    Eigenvalue [eV]
      1       2.00000         -18.910300         -514.57545
      2       2.00000         -18.838261         -512.61517
      3       2.00000         -14.096141         -383.57552
      4       2.00000         -10.115006         -275.24331
      5       2.00000         -10.060820         -273.76884
      6       2.00000         -10.031198         -272.96278
      7       2.00000          -1.141349          -31.05769
      8       2.00000          -1.031700          -28.07399
      9       2.00000          -0.920011          -25.03476
     10       2.00000          -0.795351          -21.64260
     11       2.00000          -0.714378          -19.43920
     12       2.00000          -0.626122          -17.03766
     13       2.00000          -0.556550          -15.14449
     14       2.00000          -0.551448          -15.00566
     15       2.00000          -0.535275          -14.56559
     16       2.00000          -0.514413          -13.99789
     17       2.00000          -0.484690          -13.18909
     18       2.00000          -0.473856          -12.89428
     19       2.00000          -0.447298          -12.17159
     20       2.00000          -0.434169          -11.81435
     21       2.00000          -0.432551          -11.77030
     22       2.00000          -0.370589          -10.08424
     23       2.00000          -0.340305           -9.26018
     24       2.00000          -0.310650           -8.45321
     25       0.00000          -0.117192           -3.18895
     26       0.00000          -0.028251           -0.76874
     27       0.00000          -0.002724           -0.07413
     28       0.00000           0.019464            0.52965
     29       0.00000           0.024672            0.67135
     30       0.00000           0.043593            1.18622
     31       0.00000           0.060919            1.65768
     32       0.00000           0.062512            1.70104
     33       0.00000           0.084262            2.29287
     34       0.00000           0.111249            3.02723
     35       0.00000           0.144738            3.93852
     36       0.00000           0.150983            4.10847
     37       0.00000           0.165621            4.50679
     38       0.00000           0.240210            6.53644
     39       0.00000           0.249836            6.79837
     40       0.00000           0.259425            7.05932
     41       0.00000           0.282693            7.69246
     42       0.00000           0.308223            8.38717
     43       0.00000           0.317360            8.63581
     44       0.00000           0.341005            9.27922
     45       0.00000           0.352099            9.58109
     46       0.00000           0.387830           10.55340
     47       0.00000           0.411397           11.19469
     48       0.00000           0.459296           12.49809
     49       0.00000           0.487257           13.25893
     50       0.00000           0.503901           13.71186
     51       0.00000           0.520735           14.16992
     52       0.00000           0.555956           15.12833
     53       0.00000           0.587285           15.98083

  Highest occupied state (VBM) at     -8.45321366 eV
  | Occupation number:      2.00000000

  Lowest unoccupied state (CBM) at    -3.18895205 eV
  | Occupation number:      0.00000000

  Overall HOMO-LUMO gap:      5.26426162 eV.

  Total energy components:
  | Sum of eigenvalues            :        -185.46486126 Ha       -5046.75565106 eV
  | XC energy correction          :         -42.11351865 Ha       -1145.96714855 eV
  | XC potential correction       :          54.14204220 Ha        1473.27992797 eV
  | Free-atom electrostatic energy:        -146.85414097 Ha       -3996.10449534 eV
  | Hartree energy correction     :          -3.30431839 Ha         -89.91507824 eV
  | vdW energy correction         :           0.00000000 Ha           0.00000000 eV
  | Entropy correction            :           0.00000000 Ha           0.00000000 eV
  | ---------------------------
  | Total energy                  :        -323.59479707 Ha       -8805.46244522 eV
  | Total energy, T -> 0          :        -323.59479707 Ha       -8805.46244522 eV  <-- do not rely on this value for anything but (periodic) metals
  | Electronic free energy        :        -323.59479707 Ha       -8805.46244522 eV

  Derived energy quantities:
  | Kinetic energy                :         322.25961286 Ha        8769.13023431 eV
  | Electrostatic energy          :        -603.74089128 Ha      -16428.62553097 eV
  | Energy correction for multipole
  | error in Hartree potential    :           0.01210940 Ha           0.32951367 eV
  | Sum of eigenvalues per atom                           :        -388.21197316 eV
  | Total energy (T->0) per atom                          :        -677.34326502 eV  <-- do not rely on this value for anything but (periodic) metals
  | Electronic free energy per atom                       :        -677.34326502 eV

  Self-consistency convergence accuracy:
  | Change of charge density      :  0.5788E+00
  | Change of sum of eigenvalues  :  0.9206E+02 eV
  | Change of total energy        :  0.4827E+01 eV

  End self-consistency iteration #     1       :  max(cpu_time)    wall_clock(cpu1)
  | Time for this iteration                    :        0.077 s           0.077 s
  | Charge density update                      :        0.021 s           0.021 s
  | Density mixing                             :        0.000 s           0.001 s
  | Hartree multipole update                   :        0.001 s           0.001 s
  | Hartree multipole summation                :        0.022 s           0.022 s
  | Integration                                :        0.027 s           0.027 s
  | Solution of K.-S. eqns.                    :        0.004 s           0.004 s
  | Total energy evaluation                    :        0.000 s           0.000 s

  Partial memory accounting:
  | Current value for overall tracked memory usage on task 0  :           0.133 MB
  | Peak value for overall tracked memory usage on task 0     :           0.848 MB after allocating gradient_basis_wave
  | Largest tracked array allocation on task 0 so far         :           0.536 MB  when allocating gradient_basis_wave
  Note:  These values currently only include a subset of arrays which are explicitly tracked.
  The "true" memory usage will be greater.
------------------------------------------------------------

------------------------------------------------------------
          Begin self-consistency iteration #    2

  Date     :  20200601, Time     :  005417.098
------------------------------------------------------------
  Evaluating new KS density.
  Integration grid: deviation in total charge (<rho> - N_e) =   7.105427E-15
  Pulay mixing of updated and previous charge densities.

  Evaluating partitioned Hartree potential by multipole expansion.
  | Analytical far-field extrapolation by fixed multipoles:
  | Hartree multipole sum: apparent total charge =  -0.252463E-03
  Summing up the Hartree potential.
  Time summed over all CPUs for potential: real work        0.420 s, elapsed        0.427 s
  | RMS charge density error from multipole expansion :   0.142229E-01

  Integrating Hamiltonian matrix: batch-based integration.
  Time summed over all CPUs for integration: real work        0.503 s, elapsed        0.527 s

  Updating Kohn-Sham eigenvalues and eigenvectors using ELSI and the ELPA eigensolver.
  ELPA settings:
  | ELPA solver          1
  Finished transformation to standard eigenproblem
  | Time :     0.000 s
  Starting ELPA eigensolver
  | Time full => tridiagonal    :     0.002 s
  | Time solve tridiagonal      :     0.000 s
  | Time ev tridiagonal => full :     0.000 s
  Finished solving standard eigenproblem
  | Time :     0.003 s
  Finished back-transformation of eigenvectors
  | Time :     0.000 s

  Obtaining occupation numbers and chemical potential using ELSI.
  | Chemical potential (Fermi level):    -3.56937029eV
  Highest occupied state (VBM) at     -6.50301452 eV
  | Occupation number:      2.00000000

  Lowest unoccupied state (CBM) at    -1.82935903 eV
  | Occupation number:      0.00000000

  Overall HOMO-LUMO gap:      4.67365549 eV.

  Checking to see if s.c.f. parameters should be adjusted.

  Total energy components:
  | Sum of eigenvalues            :        -181.86498384 Ha       -4948.79800242 eV
  | XC energy correction          :         -42.47687667 Ha       -1155.85462334 eV
  | XC potential correction       :          54.61309711 Ha        1486.09798426 eV
  | Free-atom electrostatic energy:        -146.85414097 Ha       -3996.10449534 eV
  | Hartree energy correction     :          -6.93567518 Ha        -188.72932412 eV
  | vdW energy correction         :           0.00000000 Ha           0.00000000 eV
  | Entropy correction            :           0.00000000 Ha           0.00000000 eV
  | ---------------------------
  | Total energy                  :        -323.51857955 Ha       -8803.38846096 eV
  | Total energy, T -> 0          :        -323.51857955 Ha       -8803.38846096 eV  <-- do not rely on this value for anything but (periodic) metals
  | Electronic free energy        :        -323.51857955 Ha       -8803.38846096 eV

  Derived energy quantities:
  | Kinetic energy                :         323.59522774 Ha        8805.47416436 eV
  | Electrostatic energy          :        -604.63693062 Ha      -16453.00800199 eV
  | Energy correction for multipole
  | error in Hartree potential    :           0.02702147 Ha           0.73529158 eV
  | Sum of eigenvalues per atom                           :        -380.67676942 eV
  | Total energy (T->0) per atom                          :        -677.18372777 eV  <-- do not rely on this value for anything but (periodic) metals
  | Electronic free energy per atom                       :        -677.18372777 eV

  Self-consistency convergence accuracy:
  | Change of charge density      :  0.3620E+00
  | Change of sum of eigenvalues  :  0.9796E+02 eV
  | Change of total energy        :  0.2074E+01 eV

  End self-consistency iteration #     2       :  max(cpu_time)    wall_clock(cpu1)
  | Time for this iteration                    :        0.080 s           0.079 s
  | Charge density update                      :        0.024 s           0.023 s
  | Density mixing                             :        0.001 s           0.001 s
  | Hartree multipole update                   :        0.001 s           0.001 s
  | Hartree multipole summation                :        0.022 s           0.022 s
  | Integration                                :        0.027 s           0.027 s
  | Solution of K.-S. eqns.                    :        0.004 s           0.004 s
  | Total energy evaluation                    :        0.000 s           0.000 s

  Partial memory accounting:
  | Current value for overall tracked memory usage on task 0  :           0.134 MB
  | Peak value for overall tracked memory usage on task 0     :           0.848 MB after allocating gradient_basis_wave
  | Largest tracked array allocation on task 0 so far         :           0.536 MB  when allocating gradient_basis_wave
  Note:  These values currently only include a subset of arrays which are explicitly tracked.
  The "true" memory usage will be greater.
------------------------------------------------------------

------------------------------------------------------------
          Begin self-consistency iteration #    3

  Date     :  20200601, Time     :  005417.181
------------------------------------------------------------
  Evaluating new KS density.
  Integration grid: deviation in total charge (<rho> - N_e) =   7.105427E-15
  Pulay mixing of updated and previous charge densities.

  Evaluating partitioned Hartree potential by multipole expansion.
  | Analytical far-field extrapolation by fixed multipoles:
  | Hartree multipole sum: apparent total charge =  -0.342511E-03
  Summing up the Hartree potential.
  Time summed over all CPUs for potential: real work        0.420 s, elapsed        0.428 s
  | RMS charge density error from multipole expansion :   0.225083E-01

  Integrating Hamiltonian matrix: batch-based integration.
  Time summed over all CPUs for integration: real work        0.504 s, elapsed        0.527 s

  Updating Kohn-Sham eigenvalues and eigenvectors using ELSI and the ELPA eigensolver.
  ELPA settings:
  | ELPA solver          1
  Finished transformation to standard eigenproblem
  | Time :     0.000 s
  Starting ELPA eigensolver
  | Time full => tridiagonal    :     0.002 s
  | Time solve tridiagonal      :     0.000 s
  | Time ev tridiagonal => full :     0.000 s
  Finished solving standard eigenproblem
  | Time :     0.003 s
  Finished back-transformation of eigenvectors
  | Time :     0.000 s

  Obtaining occupation numbers and chemical potential using ELSI.
  | Chemical potential (Fermi level):    -2.90836677eV
  Highest occupied state (VBM) at     -5.87555138 eV
  | Occupation number:      2.00000000

  Lowest unoccupied state (CBM) at    -1.10336776 eV
  | Occupation number:      0.00000000

  Overall HOMO-LUMO gap:      4.77218362 eV.

  Total energy components:
  | Sum of eigenvalues            :        -180.58485349 Ha       -4913.96388329 eV
  | XC energy correction          :         -42.62590054 Ha       -1159.90976919 eV
  | XC potential correction       :          54.80304895 Ha        1491.26683684 eV
  | Free-atom electrostatic energy:        -146.85414097 Ha       -3996.10449534 eV
  | Hartree energy correction     :          -8.24487247 Ha        -224.35439504 eV
  | vdW energy correction         :           0.00000000 Ha           0.00000000 eV
  | Entropy correction            :           0.00000000 Ha           0.00000000 eV
  | ---------------------------
  | Total energy                  :        -323.50671852 Ha       -8803.06570602 eV
  | Total energy, T -> 0          :        -323.50671852 Ha       -8803.06570602 eV  <-- do not rely on this value for anything but (periodic) metals
  | Electronic free energy        :        -323.50671852 Ha       -8803.06570602 eV

  Derived energy quantities:
  | Kinetic energy                :         323.16047333 Ha        8793.64389498 eV
  | Electrostatic energy          :        -604.04129131 Ha      -16436.79983180 eV
  | Energy correction for multipole
  | error in Hartree potential    :           0.03862411 Ha           1.05101542 eV
  | Sum of eigenvalues per atom                           :        -377.99722179 eV
  | Total energy (T->0) per atom                          :        -677.15890046 eV  <-- do not rely on this value for anything but (periodic) metals
  | Electronic free energy per atom                       :        -677.15890046 eV

  Self-consistency convergence accuracy:
  | Change of charge density      :  0.2005E+00
  | Change of sum of eigenvalues  :  0.3483E+02 eV
  | Change of total energy        :  0.3228E+00 eV

  End self-consistency iteration #     3       :  max(cpu_time)    wall_clock(cpu1)
  | Time for this iteration                    :        0.082 s           0.082 s
  | Charge density update                      :        0.027 s           0.026 s
  | Density mixing                             :        0.001 s           0.001 s
  | Hartree multipole update                   :        0.001 s           0.002 s
  | Hartree multipole summation                :        0.022 s           0.022 s
  | Integration                                :        0.027 s           0.026 s
  | Solution of K.-S. eqns.                    :        0.004 s           0.004 s
  | Total energy evaluation                    :        0.000 s           0.001 s

  Partial memory accounting:
  | Current value for overall tracked memory usage on task 0  :           0.134 MB
  | Peak value for overall tracked memory usage on task 0     :           0.849 MB after allocating gradient_basis_wave
  | Largest tracked array allocation on task 0 so far         :           0.536 MB  when allocating gradient_basis_wave
  Note:  These values currently only include a subset of arrays which are explicitly tracked.
  The "true" memory usage will be greater.
------------------------------------------------------------

------------------------------------------------------------
          Begin self-consistency iteration #    4

  Date     :  20200601, Time     :  005417.268
------------------------------------------------------------
  Evaluating new KS density.
  Integration grid: deviation in total charge (<rho> - N_e) =   1.421085E-14
  Pulay mixing of updated and previous charge densities.

  Evaluating partitioned Hartree potential by multipole expansion.
  | Analytical far-field extrapolation by fixed multipoles:
  | Hartree multipole sum: apparent total charge =  -0.370838E-03
  Summing up the Hartree potential.
  Time summed over all CPUs for potential: real work        0.418 s, elapsed        0.426 s
  | RMS charge density error from multipole expansion :   0.258943E-01

  Integrating Hamiltonian matrix: batch-based integration.
  Time summed over all CPUs for integration: real work        0.503 s, elapsed        0.526 s

  Updating Kohn-Sham eigenvalues and eigenvectors using ELSI and the ELPA eigensolver.
  ELPA settings:
  | ELPA solver          1
  Finished transformation to standard eigenproblem
  | Time :     0.000 s
  Starting ELPA eigensolver
  | Time full => tridiagonal    :     0.002 s
  | Time solve tridiagonal      :     0.000 s
  | Time ev tridiagonal => full :     0.000 s
  Finished solving standard eigenproblem
  | Time :     0.003 s
  Finished back-transformation of eigenvectors
  | Time :     0.000 s

  Obtaining occupation numbers and chemical potential using ELSI.
  | Chemical potential (Fermi level):    -2.81708677eV
  Highest occupied state (VBM) at     -5.68777650 eV
  | Occupation number:      2.00000000

  Lowest unoccupied state (CBM) at    -1.03298534 eV
  | Occupation number:      0.00000000

  Overall HOMO-LUMO gap:      4.65479116 eV.

  Total energy components:
  | Sum of eigenvalues            :        -180.44553974 Ha       -4910.17296311 eV
  | XC energy correction          :         -42.66201748 Ha       -1160.89256111 eV
  | XC potential correction       :          54.84848772 Ha        1492.50328862 eV
  | Free-atom electrostatic energy:        -146.85414097 Ha       -3996.10449534 eV
  | Hartree energy correction     :          -8.39270029 Ha        -228.37699458 eV
  | vdW energy correction         :           0.00000000 Ha           0.00000000 eV
  | Entropy correction            :           0.00000000 Ha           0.00000000 eV
  | ---------------------------
  | Total energy                  :        -323.50591075 Ha       -8803.04372552 eV
  | Total energy, T -> 0          :        -323.50591075 Ha       -8803.04372552 eV  <-- do not rely on this value for anything but (periodic) metals
  | Electronic free energy        :        -323.50591075 Ha       -8803.04372552 eV

  Derived energy quantities:
  | Kinetic energy                :         322.78712540 Ha        8783.48458093 eV
  | Electrostatic energy          :        -603.63101868 Ha      -16425.63574534 eV
  | Energy correction for multipole
  | error in Hartree potential    :           0.04289760 Ha           1.16730305 eV
  | Sum of eigenvalues per atom                           :        -377.70561255 eV
  | Total energy (T->0) per atom                          :        -677.15720966 eV  <-- do not rely on this value for anything but (periodic) metals
  | Electronic free energy per atom                       :        -677.15720966 eV

  Self-consistency convergence accuracy:
  | Change of charge density      :  0.6164E-01
  | Change of sum of eigenvalues  :  0.3791E+01 eV
  | Change of total energy        :  0.2198E-01 eV

  End self-consistency iteration #     4       :  max(cpu_time)    wall_clock(cpu1)
  | Time for this iteration                    :        0.081 s           0.078 s
  | Charge density update                      :        0.026 s           0.023 s
  | Density mixing                             :        0.001 s           0.001 s
  | Hartree multipole update                   :        0.001 s           0.001 s
  | Hartree multipole summation                :        0.022 s           0.022 s
  | Integration                                :        0.027 s           0.027 s
  | Solution of K.-S. eqns.                    :        0.004 s           0.004 s
  | Total energy evaluation                    :        0.000 s           0.000 s

  Partial memory accounting:
  | Current value for overall tracked memory usage on task 0  :           0.134 MB
  | Peak value for overall tracked memory usage on task 0     :           0.849 MB after allocating gradient_basis_wave
  | Largest tracked array allocation on task 0 so far         :           0.536 MB  when allocating gradient_basis_wave
  Note:  These values currently only include a subset of arrays which are explicitly tracked.
  The "true" memory usage will be greater.
------------------------------------------------------------

------------------------------------------------------------
          Begin self-consistency iteration #    5

  Date     :  20200601, Time     :  005417.351
------------------------------------------------------------
  Evaluating new KS density.
  Integration grid: deviation in total charge (<rho> - N_e) =   0.000000E+00
  Pulay mixing of updated and previous charge densities.

  Evaluating partitioned Hartree potential by multipole expansion.
  | Analytical far-field extrapolation by fixed multipoles:
  | Hartree multipole sum: apparent total charge =  -0.364860E-03
  Summing up the Hartree potential.
  Time summed over all CPUs for potential: real work        0.419 s, elapsed        0.427 s
  | RMS charge density error from multipole expansion :   0.256164E-01

  Integrating Hamiltonian matrix: batch-based integration.
  Time summed over all CPUs for integration: real work        0.504 s, elapsed        0.528 s

  Updating Kohn-Sham eigenvalues and eigenvectors using ELSI and the ELPA eigensolver.
  ELPA settings:
  | ELPA solver          1
  Finished transformation to standard eigenproblem
  | Time :     0.000 s
  Starting ELPA eigensolver
  | Time full => tridiagonal    :     0.002 s
  | Time solve tridiagonal      :     0.000 s
  | Time ev tridiagonal => full :     0.000 s
  Finished solving standard eigenproblem
  | Time :     0.003 s
  Finished back-transformation of eigenvectors
  | Time :     0.000 s

  Obtaining occupation numbers and chemical potential using ELSI.
  | Chemical potential (Fermi level):    -2.87842893eV
  Highest occupied state (VBM) at     -5.77613755 eV
  | Occupation number:      2.00000000

  Lowest unoccupied state (CBM) at    -1.12167652 eV
  | Occupation number:      0.00000000

  Overall HOMO-LUMO gap:      4.65446103 eV.

  Total energy components:
  | Sum of eigenvalues            :        -180.63385820 Ha       -4915.29736921 eV
  | XC energy correction          :         -42.63930226 Ha       -1160.27444862 eV
  | XC potential correction       :          54.81903902 Ha        1491.70194880 eV
  | Free-atom electrostatic energy:        -146.85414097 Ha       -3996.10449534 eV
  | Hartree energy correction     :          -8.19735673 Ha        -223.06142577 eV
  | vdW energy correction         :           0.00000000 Ha           0.00000000 eV
  | Entropy correction            :           0.00000000 Ha           0.00000000 eV
  | ---------------------------
  | Total energy                  :        -323.50561913 Ha       -8803.03579014 eV
  | Total energy, T -> 0          :        -323.50561913 Ha       -8803.03579014 eV  <-- do not rely on this value for anything but (periodic) metals
  | Electronic free energy        :        -323.50561913 Ha       -8803.03579014 eV

  Derived energy quantities:
  | Kinetic energy                :         322.68983426 Ha        8780.83715432 eV
  | Electrostatic energy          :        -603.55615113 Ha      -16423.59849584 eV
  | Energy correction for multipole
  | error in Hartree potential    :           0.04226391 Ha           1.15005952 eV
  | Sum of eigenvalues per atom                           :        -378.09979763 eV
  | Total energy (T->0) per atom                          :        -677.15659924 eV  <-- do not rely on this value for anything but (periodic) metals
  | Electronic free energy per atom                       :        -677.15659924 eV

  Self-consistency convergence accuracy:
  | Change of charge density      :  0.2021E-01
  | Change of sum of eigenvalues  : -0.5124E+01 eV
  | Change of total energy        :  0.7935E-02 eV

  End self-consistency iteration #     5       :  max(cpu_time)    wall_clock(cpu1)
  | Time for this iteration                    :        0.079 s           0.078 s
  | Charge density update                      :        0.023 s           0.022 s
  | Density mixing                             :        0.001 s           0.000 s
  | Hartree multipole update                   :        0.001 s           0.002 s
  | Hartree multipole summation                :        0.022 s           0.022 s
  | Integration                                :        0.027 s           0.027 s
  | Solution of K.-S. eqns.                    :        0.004 s           0.004 s
  | Total energy evaluation                    :        0.000 s           0.000 s

  Partial memory accounting:
  | Current value for overall tracked memory usage on task 0  :           0.134 MB
  | Peak value for overall tracked memory usage on task 0     :           0.849 MB after allocating gradient_basis_wave
  | Largest tracked array allocation on task 0 so far         :           0.536 MB  when allocating gradient_basis_wave
  Note:  These values currently only include a subset of arrays which are explicitly tracked.
  The "true" memory usage will be greater.
------------------------------------------------------------

------------------------------------------------------------
          Begin self-consistency iteration #    6

  Date     :  20200601, Time     :  005417.433
------------------------------------------------------------
  Evaluating new KS density.
  Integration grid: deviation in total charge (<rho> - N_e) =   2.842171E-14
  Pulay mixing of updated and previous charge densities.

[...]
  |   Hirshfeld dipole moment :      0.06684851
  |   Hirshfeld second moments:     -0.03011929      -0.00255845      -0.00057015
  |                                 -0.00255845      -0.01058982       0.02032199
  |                                 -0.00057015       0.02032199       0.00867854
  ----------------------------------------------------------------------
  | Atom    12: O
  |   Hirshfeld charge        :     -0.14564966
  |   Free atom volume        :     23.61338643
  |   Hirshfeld volume        :     20.78070836
  |   Hirshfeld dipole vector :     -0.04589395      -0.00283138       0.00107244
  |   Hirshfeld dipole moment :      0.04599371
  |   Hirshfeld second moments:      0.01937505       0.00423280      -0.00160788
  |                                  0.00423280       0.09770292      -0.01678966
  |                                 -0.00160788      -0.01678966       0.06446206
  ----------------------------------------------------------------------
  | Atom    13: H
  |   Hirshfeld charge        :      0.16812470
  |   Free atom volume        :      9.95071624
  |   Hirshfeld volume        :      6.46265788
  |   Hirshfeld dipole vector :     -0.02674541      -0.10104393       0.03926739
  |   Hirshfeld dipole moment :      0.11165626
  |   Hirshfeld second moments:      0.07438750      -0.00474612       0.00297314
  |                                 -0.00474612       0.12077279      -0.00071836
  |                                  0.00297314      -0.00071836       0.12003591
  ----------------------------------------------------------------------


  Total energy components:
  | Sum of eigenvalues            :        -180.64847795 Ha       -4915.69519281 eV
  | XC energy correction          :         -42.63358154 Ha       -1160.11877993 eV
  | XC potential correction       :          54.81167597 Ha        1491.50158985 eV
  | Free-atom electrostatic energy:        -146.85414097 Ha       -3996.10449534 eV
  | Hartree energy correction     :          -8.18102795 Ha        -222.61709720 eV
  | vdW energy correction         :          -0.00340512 Ha          -0.09265803 eV
  | Entropy correction            :           0.00000000 Ha           0.00000000 eV
  | ---------------------------
  | Total energy                  :        -323.50895756 Ha       -8803.12663347 eV
  | Total energy, T -> 0          :        -323.50895756 Ha       -8803.12663347 eV  <-- do not rely on this value for anything but (periodic) metals
  | Electronic free energy        :        -323.50895756 Ha       -8803.12663347 eV

  Derived energy quantities:
  | Kinetic energy                :         322.56487477 Ha        8777.43683346 eV
  | Electrostatic energy          :        -603.43684567 Ha      -16420.35202896 eV
  | Energy correction for multipole
  | error in Hartree potential    :           0.04269911 Ha           1.16190199 eV
  | Sum of eigenvalues per atom                           :        -378.13039945 eV
  | Total energy (T->0) per atom                          :        -677.16358719 eV  <-- do not rely on this value for anything but (periodic) metals
  | Electronic free energy per atom                       :        -677.16358719 eV

  atomic forces [eV/Ang]:
  -----------------------
  atom #    1
   Hellmann-Feynman              :  0.162896E+01 -0.294240E+00  0.182235E+01
   Ionic forces                  :  0.000000E+00  0.000000E+00  0.000000E+00
   Multipole                     : -0.114196E+00  0.452077E+00 -0.430571E+00
   Pulay + GGA                   : -0.167798E+01 -0.160635E+00 -0.166859E+01
   Van der Waals                 :  0.170140E-02  0.897299E-03 -0.168658E-02
   ----------------------------------------------------------------
   Total forces(   1)            : -0.161518E+00 -0.189979E-02 -0.278492E+00
  atom #    2
   Hellmann-Feynman              :  0.237138E+00  0.287784E-01 -0.111976E+00
   Ionic forces                  :  0.000000E+00  0.000000E+00  0.000000E+00
   Multipole                     :  0.193420E+00  0.436696E-01 -0.297919E-01
   Pulay + GGA                   : -0.124299E+00  0.372448E-01 -0.252058E-01
   Van der Waals                 :  0.167134E-02 -0.421667E-02 -0.334318E-03
   ----------------------------------------------------------------
   Total forces(   2)            :  0.307931E+00  0.105476E+00 -0.167308E+00
  atom #    3
   Hellmann-Feynman              :  0.702973E+01  0.769917E+01 -0.514986E+01
   Ionic forces                  :  0.000000E+00  0.000000E+00  0.000000E+00
   Multipole                     : -0.203782E+00  0.114539E+00 -0.875985E+00
   Pulay + GGA                   : -0.610667E+01 -0.766416E+01  0.680161E+01
   Van der Waals                 :  0.560102E-02 -0.608963E-02 -0.106522E-01
   ----------------------------------------------------------------
   Total forces(   3)            :  0.724872E+00  0.143457E+00  0.765112E+00
  atom #    4
   Hellmann-Feynman              : -0.195377E+00 -0.969828E-01 -0.178917E+00
   Ionic forces                  :  0.000000E+00  0.000000E+00  0.000000E+00
   Multipole                     : -0.374750E-01 -0.820587E-01 -0.685376E-01
   Pulay + GGA                   :  0.201699E-01  0.236348E+00  0.329623E-01
   Van der Waals                 : -0.256781E-02  0.106933E-02  0.234083E-02
   ----------------------------------------------------------------
   Total forces(   4)            : -0.215250E+00  0.583759E-01 -0.212152E+00
  atom #    5
   Hellmann-Feynman              : -0.399219E+00 -0.255158E+00  0.174711E-01
   Ionic forces                  :  0.000000E+00  0.000000E+00  0.000000E+00
   Multipole                     : -0.102854E+00 -0.473111E-03 -0.411811E-01
   Pulay + GGA                   :  0.238310E+00 -0.286156E-01 -0.256340E-01
   Van der Waals                 :  0.973254E-05  0.168928E-02 -0.526344E-02
   ----------------------------------------------------------------
   Total forces(   5)            : -0.263753E+00 -0.282557E+00 -0.546074E-01
  atom #    6
   Hellmann-Feynman              :  0.911236E-02 -0.430829E+00 -0.151943E+00
   Ionic forces                  :  0.000000E+00  0.000000E+00  0.000000E+00
   Multipole                     : -0.168111E+00  0.619626E+00  0.257336E+00
   Pulay + GGA                   :  0.330401E+00 -0.627867E+00 -0.229071E+00
   Van der Waals                 :  0.594300E-02  0.512983E-02  0.217269E-02
   ----------------------------------------------------------------
   Total forces(   6)            :  0.177345E+00 -0.433939E+00 -0.121505E+00
  atom #    7
   Hellmann-Feynman              :  0.104316E+00  0.500421E-01 -0.155320E+00
   Ionic forces                  :  0.000000E+00  0.000000E+00  0.000000E+00
   Multipole                     :  0.357530E-01  0.134726E+00  0.871427E-02
   Pulay + GGA                   : -0.549742E-01 -0.102467E+00  0.132824E-01
   Van der Waals                 : -0.279605E-02  0.138775E-02  0.302989E-02
   ----------------------------------------------------------------
   Total forces(   7)            :  0.822987E-01  0.836887E-01 -0.130294E+00
  atom #    8
   Hellmann-Feynman              : -0.231183E+00 -0.713864E-01 -0.222287E-01
   Ionic forces                  :  0.000000E+00  0.000000E+00  0.000000E+00
   Multipole                     : -0.118845E+00  0.624314E-01  0.198736E-01
   Pulay + GGA                   :  0.105872E+00 -0.248014E-01  0.616027E-01
   Van der Waals                 : -0.266989E-02  0.624778E-02  0.529686E-02
   ----------------------------------------------------------------
   Total forces(   8)            : -0.246827E+00 -0.275086E-01  0.645444E-01
  atom #    9
   Hellmann-Feynman              :  0.557754E-01 -0.306116E-01  0.156014E+00
   Ionic forces                  :  0.000000E+00  0.000000E+00  0.000000E+00
   Multipole                     : -0.627783E-02  0.562313E-01  0.134140E+00
   Pulay + GGA                   : -0.363939E-01  0.210547E-01 -0.106678E+00
   Van der Waals                 : -0.347034E-02 -0.840591E-03  0.985004E-04
   ----------------------------------------------------------------
   Total forces(   9)            :  0.963335E-02  0.458338E-01  0.183575E+00
  atom #   10
   Hellmann-Feynman              : -0.221838E+01  0.578157E+01 -0.242197E+01
   Ionic forces                  :  0.000000E+00  0.000000E+00  0.000000E+00
   Multipole                     : -0.185390E+00 -0.207345E+00  0.125414E+00
   Pulay + GGA                   :  0.107453E+01 -0.326801E+01  0.150501E+01
   Van der Waals                 :  0.556540E-02 -0.153104E-01  0.876512E-02
   ----------------------------------------------------------------
   Total forces(  10)            : -0.132367E+01  0.229090E+01 -0.782775E+00
  atom #   11
   Hellmann-Feynman              : -0.145513E+02 -0.398664E+01  0.231548E+01
   Ionic forces                  :  0.000000E+00  0.000000E+00  0.000000E+00
   Multipole                     : -0.735794E+00 -0.485745E+00  0.236544E+00
   Pulay + GGA                   :  0.132703E+02  0.441199E+01 -0.273071E+01
   Van der Waals                 : -0.338962E-02 -0.615019E-02  0.535114E-02
   ----------------------------------------------------------------
   Total forces(  11)            : -0.202019E+01 -0.665390E-01 -0.173333E+00
  atom #   12
   Hellmann-Feynman              :  0.159031E+02  0.234868E+01 -0.606157E+00
   Ionic forces                  :  0.000000E+00  0.000000E+00  0.000000E+00
   Multipole                     :  0.116198E+01 -0.740274E+00  0.485008E+00
   Pulay + GGA                   : -0.143397E+02 -0.272304E+01  0.411162E+00
   Van der Waals                 : -0.595349E-02  0.109621E-01 -0.618221E-02
   ----------------------------------------------------------------
   Total forces(  12)            :  0.271944E+01 -0.110367E+01  0.283830E+00
  atom #   13
   Hellmann-Feynman              :  0.132149E+00 -0.105833E+01  0.722086E+00
   Ionic forces                  :  0.000000E+00  0.000000E+00  0.000000E+00
   Multipole                     : -0.836870E-01 -0.695597E-01  0.200733E-01
   Pulay + GGA                   :  0.154449E+00  0.304653E+00 -0.117248E+00
   Van der Waals                 :  0.355303E-03  0.522416E-02 -0.293628E-02
   ----------------------------------------------------------------
   Total forces(  13)            :  0.203267E+00 -0.818013E+00  0.621976E+00

  Timings for VdW correction (Tkatchenko-Scheffler 2009 or later):
  | CPU time:        0.010 s, Wall clock time:        0.008 s.
  Removing unitary transformations (pure translations, rotations) from forces on atoms.
  Atomic forces before filtering:
  | Net force on center of mass :  -0.641537E-02 -0.639163E-02 -0.142812E-02 eV/A
  | Net torque on center of mass:  -0.551139E-03 -0.408012E-02 -0.398970E-02 eV
  Atomic forces after filtering:
  | Net force on center of mass :   0.000000E+00  0.178406E-15 -0.892031E-16 eV/A
  | Net torque on center of mass:   0.755268E-15 -0.236021E-15 -0.849676E-15 eV

  Energy and forces in a compact form:
  | Total energy uncorrected      :         -0.880312663346587E+04 eV
  | Total energy corrected        :         -0.880312663346587E+04 eV  <-- do not rely on this value for anything but (periodic) metals
  | Electronic free energy        :         -0.880312663346587E+04 eV
  Total atomic forces (unitary forces cleaned) [eV/Ang]:
  |   1         -0.161084071517619E+00         -0.136663764043003E-02         -0.278442037142718E+00
  |   2          0.308364952867863E+00          0.106125026033355E+00         -0.167436892778209E+00
  |   3          0.725074594443906E+00          0.143950961051851E+00          0.765241152463974E+00
  |   4         -0.215008079601869E+00          0.588814470529405E-01         -0.212043530887006E+00
  |   5         -0.263585011864546E+00         -0.282166046064500E+00         -0.543169853849599E-01
  |   6          0.177765032601763E+00         -0.433464654385641E+00         -0.121363054894815E+00
  |   7          0.825648856138170E-01          0.842222849226715E-01         -0.130230980373438E+00
  |   8         -0.246449561406729E+00         -0.271458717879225E-01          0.648627179384010E-01
  |   9          0.102382393773283E-01          0.463179092686930E-01          0.183687570372456E+00
  |  10         -0.132297839261065E+01          0.229138472039075E+01         -0.782670411685960E+00
  |  11         -0.201941749626406E+01         -0.661749310330765E-01         -0.173046891627722E+00
  |  12          0.272027912775854E+01         -0.110307964195736E+01          0.283767647006169E+00
  |  13          0.204235780602261E+00         -0.817484565851327E+00          0.621991696993827E+00

  ------------------------------------ 
  Start decomposition of the XC Energy 
  ------------------------------------ 
  X and C from original XC functional choice 
  Hartree-Fock Energy :          0.000000000 Ha              0.000000000 eV
  X Energy            :        -41.034379868 Ha          -1116.602288309 eV
  C Energy            :         -1.599201673 Ha            -43.516491625 eV
  Total XC Energy     :        -42.633581541 Ha          -1160.118779934 eV
  ------------------------------------ 
  LDA X and C from self-consistent density 
  X Energy LDA        :        -37.251493573 Ha          -1013.664714825 eV
  C Energy LDA        :         -3.138103815 Ha            -85.392149505 eV
  ------------------------------------ 
  End decomposition of the XC Energy 
  ------------------------------------ 

------------------------------------------------------------

------------------------------------------------------------------------------
  Final output of selected total energy values:

  The following output summarizes some interesting total energy values
  at the end of a run (AFTER all relaxation, molecular dynamics, etc.).

  | Total energy of the DFT / Hartree-Fock s.c.f. calculation      :          -8803.126633466 eV
  | Final zero-broadening corrected energy (caution - metals only) :          -8803.126633466 eV
  | For reference only, the value of 1 Hartree used in FHI-aims is :             27.211384500 eV

  Before relying on these values, please be sure to understand exactly which
  total energy value is referred to by a given number. Different objects may
  all carry the same name 'total energy'. Definitions:

  Total energy of the DFT / Hartree-Fock s.c.f. calculation:
  | Note that this energy does not include ANY quantities calculated after the
  | s.c.f. cycle, in particular not ANY RPA, MP2, etc. many-body perturbation terms.

  Final zero-broadening corrected energy:
  | For metallic systems only, a broadening of the occupation numbers at the Fermi
  | level can be extrapolated back to zero broadening by an electron-gas inspired
  | formula. For all systems that are not real metals, this value can be
  | meaningless and should be avoided.

------------------------------------------------------------------------------
  Methods described in the following list of references were used in this FHI-aims run.
  If you publish the results, please make sure to cite these reference if they apply.
  FHI-aims is an academic code, and for our developers (often, Ph.D. students
  and postdocs), scientific credit in the community is essential.
  Thank you for helping us!

  For any use of FHI-aims, please cite:

    Volker Blum, Ralf Gehrke, Felix Hanke, Paula Havu, Ville Havu,
    Xinguo Ren, Karsten Reuter, and Matthias Scheffler
    'Ab initio molecular simulations with numeric atom-centered orbitals'
    Computer Physics Communications 180, 2175-2196 (2009)
    http://dx.doi.org/10.1016/j.cpc.2009.06.022


  The scalable eigensolver library ELPA was used in your run.
  ELPA is essential especially for large systems on hundreds or thousands of CPUs.
  For ELPA, please cite:

    Andreas Marek, Volker Blum, Rainer Johanni, Ville Havu, Bruno Lang,
    Thomas Auckenthaler, Alexander Heinecke, Hans-Joachim Bungartz, and Hermann Lederer,
    'The ELPA Library - Scalable Parallel Eigenvalue Solutions
    for Electronic Structure Theory and Computational Science'
    The Journal of Physics: Condensed Matter 26, 213201 (2014).
    http://dx.doi.org/10.1088/0953-8984/26/21/213201


  The ELSI infrastructure was used in your run to solve the Kohn-Sham electronic structure.
  Please check out http://elsi-interchange.org to learn more.
  If scalability is important for your project, please acknowledge ELSI by citing:

    V. W-z. Yu, F. Corsetti, A. Garcia, W. P. Huhn, M. Jacquelin, W. Jia,
    B. Lange, L. Lin, J. Lu, W. Mi, A. Seifitokaldani, A. Vazquez-Mayagoitia,
    C. Yang, H. Yang, and V. Blum
    'ELSI: A unified software interface for Kohn-Sham electronic structure solvers'
    Computer Physics Communications 222, 267-285 (2018).
    http://dx.doi.org/10.1016/j.cpc.2017.09.007


  For the real-space grid partitioning and parallelization used in this calculation, please cite:

    Ville Havu, Volker Blum, Paula Havu, and Matthias Scheffler,
    'Efficient O(N) integration for all-electron electronic structure calculation'
    'using numerically tabulated basis functions'
    Journal of Computational Physics 228, 8367-8379 (2009).
    http://dx.doi.org/10.1016/j.jcp.2009.08.008

  Of course, there are many other important community references, e.g., those cited in the
  above references. Our list is limited to references that describe implementations in the
  FHI-aims code. The reason is purely practical (length of this list) - please credit others as well.

------------------------------------------------------------
          Leaving FHI-aims.
          Date     :  20200601, Time     :  005418.514

          Computational steps:
          | Number of self-consistency cycles          :           16
          | Number of SCF (re)initializations          :            1

          Detailed time accounting                     :  max(cpu_time)    wall_clock(cpu1)
          | Total time                                 :        1.737 s           1.805 s
          | Preparation time                           :        0.166 s           0.167 s
          | Boundary condition initalization           :        0.000 s           0.000 s
          | Grid partitioning                          :        0.021 s           0.021 s
          | Preloading free-atom quantities on grid    :        0.003 s           0.003 s
          | Free-atom superposition energy             :        0.005 s           0.004 s
          | Total time for integrations                :        0.468 s           0.470 s
          | Total time for solution of K.-S. equations :        0.075 s           0.075 s
          | Total time for density & force components  :        0.446 s           0.421 s
          | Total time for mixing                      :        0.018 s           0.016 s
          | Total time for Hartree multipole update    :        0.021 s           0.022 s
          | Total time for Hartree multipole sum       :        0.435 s           0.435 s
          | Total time for total energy evaluation     :        0.003 s           0.005 s
          | Total time for vdW correction              :        0.010 s           0.008 s

          Partial memory accounting:
          | Residual value for overall tracked memory usage across tasks :           0.000 MB (should be 0.000 MB)
          | Peak values for overall tracked memory usage (after allocating hessian_basis_wave):
          |   Minimum:        2.091 MB (on task 18)
          |   Maximum:        2.122 MB (on task 15)
          |   Average:        2.111 MB
          | Largest tracked array allocation (hessian_basis_wave):
          |   Minimum:        1.073 MB (on task  1)
          |   Maximum:        1.091 MB (on task 15)
          |   Average:        1.082 MB
          Note:  These values currently only include a subset of arrays which are explicitly tracked.
          The "true" memory usage will be greater.

          Have a nice day.
------------------------------------------------------------
