  MPI-parallelism will be employed.
------------------------------------------------------------
          Invoking FHI-aims ...
          Version 171221_1
          Compiled on 2019/09/09 at 14:39:39 on host puhti-login2.bullx.

          When using FHI-aims, please cite the following reference:

          Volker Blum, Ralf Gehrke, Felix Hanke, Paula Havu,
          Ville Havu, Xinguo Ren, Karsten Reuter, and Matthias Scheffler,
          'Ab Initio Molecular Simulations with Numeric Atom-Centered Orbitals',
          Computer Physics Communications 180, 2175-2196 (2009)

          For any questions about FHI-aims, please visit the aimsclub website
          with its forums and wiki. Contributions to both the forums and the
          wiki are warmly encouraged - they are for you, and everyone is welcome there.

------------------------------------------------------------



  Date     :  20200710, Time     :  150348.843
  Time zero on CPU 1             :   0.127530000000000E-01  s.
  Internal wall clock time zero  :           363625428.843  s.

  FHI-aims created a unique identifier for this run for later identification
  aims_uuid : 91B9D48F-25C9-4A03-A8D6-B142D2C9D7E1

  Using        1 parallel tasks.
  Task        0 on host r18c43.bullx reporting.

  Performing system and environment tests:
  | Environment variable OMP_NUM_THREADS correctly set to 1.
  | Stacksize not measured: no C compiler
  | Checking for scalapack...
  | Testing pdtran()...
  | All pdtran() tests passed.

  Obtaining array dimensions for all initial allocations:
  
  -----------------------------------------------------------------------
  Parsing control.in (first pass over file, find array dimensions only).
  The contents of control.in will be repeated verbatim below
  unless switched off by setting 'verbatim_writeout .false.' .
  in the first line of control.in .
  -----------------------------------------------------------------------
  
  #########################################################################################
  #
  #  Volker Blum, FHI 2009 : Test run input file control.in for simple H2O
  #
  #########################################################################################
  #
  #  Physical model
  #
    xc                 pbe
    vdw_correction_hirshfeld
    spin               none
    relativistic       none
    charge             0.
  #
  #  SCF convergence
  #
    occupation_type    gaussian 0.01
    mixer              pulay
      n_max_pulay        10
      charge_mix_param   0.2
    sc_accuracy_rho    1E-5
    sc_accuracy_eev    1E-3
    sc_accuracy_etot   1E-6
    sc_accuracy_forces 1E-4
    sc_iter_limit      100
  #
  #  Relaxation
  #
  #  relax_geometry   bfgs 1.e-3
  #
  ################################################################################
  #
  #  FHI-aims code project
  #  VB, Fritz-Haber Institut, 2009
  #
  #  Suggested "light" defaults for H atom (to be pasted into control.in file)
  #  Be sure to double-check any results obtained with these settings for post-processing,
  #  e.g., with the "tight" defaults and larger basis sets.
  #
  ################################################################################
    species        H
  #     global species definitions
      nucleus             1
      mass                1.00794
  #
      l_hartree           4
  #
      cut_pot             3.5  1.5  1.0
      basis_dep_cutoff    1e-4
  #
      radial_base         24 5.0
      radial_multiplier   1
      angular_grids       specified
        division   0.2421   50
        division   0.3822  110
        division   0.4799  194
        division   0.5341  302
  #      division   0.5626  434
  #      division   0.5922  590
  #      division   0.6542  770
  #      division   0.6868 1202
  #      outer_grid  770
        outer_grid  302
  ################################################################################
  #
  #  Definition of "minimal" basis
  #
  ################################################################################
  #     valence basis states
      valence      1  s   1.
  #     ion occupancy
      ion_occ      1  s   0.5
  ################################################################################
  #
  #  Suggested additional basis functions. For production calculations,
  #  uncomment them one after another (the most important basis functions are
  #  listed first).
  #
  #  Basis constructed for dimers: 0.5 A, 0.7 A, 1.0 A, 1.5 A, 2.5 A
  #
  ################################################################################
  #  "First tier" - improvements: -1014.90 meV to -62.69 meV
       hydro 2 s 2.1
       hydro 2 p 3.5
  #  "Second tier" - improvements: -12.89 meV to -1.83 meV
  #     hydro 1 s 0.85
  #     hydro 2 p 3.7
  #     hydro 2 s 1.2
  #     hydro 3 d 7
  #  "Third tier" - improvements: -0.25 meV to -0.12 meV
  #     hydro 4 f 11.2
  #     hydro 3 p 4.8
  #     hydro 4 d 9
  #     hydro 3 s 3.2
  ################################################################################
  #
  #  FHI-aims code project
  #  VB, Fritz-Haber Institut, 2009
  #
  #  Suggested "light" defaults for C atom (to be pasted into control.in file)
  #  Be sure to double-check any results obtained with these settings for post-processing,
  #  e.g., with the "tight" defaults and larger basis sets.
  #
  ################################################################################
    species        C
  #     global species definitions
      nucleus             6
      mass                12.0107
  #
      l_hartree           4
  #
      cut_pot             3.5  1.5  1.0
      basis_dep_cutoff    1e-4
  #
      radial_base         34 5.0
      radial_multiplier   1
      angular_grids specified
        division   0.3326   50
        division   0.5710  110
        division   0.7727  194
        division   0.8772  302
  #      division   0.9334  434
  #      division   0.9625  590
  #      division   0.9924  770
  #      division   1.0230  974
  #      division   1.4589 1202
  #     outer_grid  974
       outer_grid 302
  ################################################################################
  #
  #  Definition of "minimal" basis
  #
  ################################################################################
  #     valence basis states
      valence      2  s   2.
      valence      2  p   2.
  #     ion occupancy
      ion_occ      2  s   1.
      ion_occ      2  p   1.
  ################################################################################
  #
  #  Suggested additional basis functions. For production calculations,
  #  uncomment them one after another (the most important basis functions are
  #  listed first).
  #
  #  Constructed for dimers: 1.0 A, 1.25 A, 1.5 A, 2.0 A, 3.0 A
  #
  ################################################################################
  #  "First tier" - improvements: -1214.57 meV to -155.61 meV
       hydro 2 p 1.7
       hydro 3 d 6
       hydro 2 s 4.9
  #  "Second tier" - improvements: -67.75 meV to -5.23 meV
  #     hydro 4 f 9.8
  #     hydro 3 p 5.2
  #     hydro 3 s 4.3
  #     hydro 5 g 14.4
  #     hydro 3 d 6.2
  #  "Third tier" - improvements: -2.43 meV to -0.60 meV
  #     hydro 2 p 5.6
  #     hydro 2 s 1.4
  #     hydro 3 d 4.9
  #     hydro 4 f 11.2
  #  "Fourth tier" - improvements: -0.39 meV to -0.18 meV
  #     hydro 2 p 2.1
  #     hydro 5 g 16.4
  #     hydro 4 d 13.2
  #     hydro 3 s 13.6
  #     hydro 4 f 17.6
  #  Further basis functions - improvements: -0.08 meV and below
  #     hydro 3 s 2
  #     hydro 3 p 6
  #     hydro 4 d 20
  ################################################################################
  #
  #  FHI-aims code project
  #  VB, Fritz-Haber Institut, 2009
  #
  #  Suggested "light" defaults for N atom (to be pasted into control.in file)
  #  Be sure to double-check any results obtained with these settings for post-processing,
  #  e.g., with the "tight" defaults and larger basis sets.
  #
  ################################################################################
    species        N
  #     global species definitions
      nucleus             7
      mass                14.0067
  #
      l_hartree           4
  #
      cut_pot             3.5  1.5  1.0
      basis_dep_cutoff    1e-4
  #
      radial_base         35 5.0
      radial_multiplier   1
      angular_grids       specified
        division   0.2599   50
        division   0.4601  110
        division   0.5885  194
        division   0.6503  302
  #      division   0.6939  434
  #      division   0.7396  590
  #      division   0.7632  770
  #      division   0.8122  974
  #      division   1.1604 1202
  #      outer_grid  974
        outer_grid  302
  ################################################################################
  #
  #  Definition of "minimal" basis
  #
  ################################################################################
  #     valence basis states
      valence      2  s   2.
      valence      2  p   3.
  #     ion occupancy
      ion_occ      2  s   1.
      ion_occ      2  p   2.
  ################################################################################
  #
  #  Suggested additional basis functions. For production calculations,
  #  uncomment them one after another (the most important basis functions are
  #  listed first).
  #
  #  Constructed for dimers: 1.0 A, 1.1 A, 1.5 A, 2.0 A, 3.0 A
  #
  ################################################################################
  #  "First tier" - improvements: -1193.42 meV to -220.60 meV
       hydro 2 p 1.8
       hydro 3 d 6.8
       hydro 3 s 5.8
  #  "Second tier" - improvements: -80.21 meV to -6.86 meV
  #     hydro 4 f 10.8
  #     hydro 3 p 5.8
  #     hydro 1 s 0.8
  #     hydro 5 g 16
  #     hydro 3 d 4.9
  #  "Third tier" - improvements: -4.29 meV to -0.53 meV
  #     hydro 3 s 16
  #     ionic 2 p auto
  #     hydro 3 d 6.6
  #     hydro 4 f 11.6
  #  "Fourth tier" - improvements: -0.75 meV to -0.25 meV
  #     hydro 2 p 4.5
  #     hydro 2 s 2.4
  #     hydro 5 g 14.4
  #     hydro 4 d 14.4
  #     hydro 4 f 16.8
  # Further basis functions - -0.21 meV and below
  #     hydro 3 p 14.8
  #     hydro 3 s 4.4
  #     hydro 3 d 19.6
  #     hydro 5 g 12.8
  ################################################################################
  #
  #  FHI-aims code project
  #  VB, Fritz-Haber Institut, 2009
  #
  #  Suggested "light" defaults for O atom (to be pasted into control.in file)
  #  Be sure to double-check any results obtained with these settings for post-processing,
  #  e.g., with the "tight" defaults and larger basis sets.
  #
  ################################################################################
    species        O
  #     global species definitions
      nucleus             8
      mass                15.9994
  #
      l_hartree           4
  #
      cut_pot             3.5  1.5  1.0
      basis_dep_cutoff    1e-4
  #
      radial_base         36 5.0
      radial_multiplier   1
       angular_grids specified
        division   0.2659   50
        division   0.4451  110
        division   0.6052  194
        division   0.7543  302
  #      division   0.8014  434
  #      division   0.8507  590
  #      division   0.8762  770
  #      division   0.9023  974
  #      division   1.2339 1202
  #      outer_grid 974
        outer_grid 302
  ################################################################################
  #
  #  Definition of "minimal" basis
  #
  ################################################################################
  #     valence basis states
      valence      2  s   2.
      valence      2  p   4.
  #     ion occupancy
      ion_occ      2  s   1.
      ion_occ      2  p   3.
  ################################################################################
  #
  #  Suggested additional basis functions. For production calculations,
  #  uncomment them one after another (the most important basis functions are
  #  listed first).
  #
  #  Constructed for dimers: 1.0 A, 1.208 A, 1.5 A, 2.0 A, 3.0 A
  #
  ################################################################################
  #  "First tier" - improvements: -699.05 meV to -159.38 meV
       hydro 2 p 1.8
       hydro 3 d 7.6
       hydro 3 s 6.4
  #  "Second tier" - improvements: -49.91 meV to -5.39 meV
  #     hydro 4 f 11.6
  #     hydro 3 p 6.2
  #     hydro 3 d 5.6
  #     hydro 5 g 17.6
  #     hydro 1 s 0.75
  #  "Third tier" - improvements: -2.83 meV to -0.50 meV
  #     ionic 2 p auto
  #     hydro 4 f 10.8
  #     hydro 4 d 4.7
  #     hydro 2 s 6.8
  #  "Fourth tier" - improvements: -0.40 meV to -0.12 meV
  #     hydro 3 p 5
  #     hydro 3 s 3.3
  #     hydro 5 g 15.6
  #     hydro 4 f 17.6
  #     hydro 4 d 14
  # Further basis functions - -0.08 meV and below
  #     hydro 3 s 2.1
  #     hydro 4 d 11.6
  #     hydro 3 p 16
  #     hydro 2 s 17.2
  
  -----------------------------------------------------------------------
  Completed first pass over input file control.in .
  -----------------------------------------------------------------------
  
  
  -----------------------------------------------------------------------
  Parsing geometry.in (first pass over file, find array dimensions only).
  The contents of geometry.in will be repeated verbatim below
  unless switched off by setting 'verbatim_writeout .false.' .
  in the first line of geometry.in .
  -----------------------------------------------------------------------
  
  atom  0.00000 0.00000 0.00000 C
  atom  1.09300 0.00000 0.00000 H
  atom  -0.47961 0.00000 -1.41207 N
  atom  -0.03809 -0.77555 -1.90747 H
  atom  -1.49134 -0.11192 -1.41364 H
  atom  -0.49584 1.26211 0.72868 C
  atom  -1.58789 1.28919 0.74431 H
  atom  -0.13407 1.27425 1.75947 H
  atom  -0.13407 2.16087 0.22380 H
  atom  -0.39425 -1.28861 0.74398 C
  atom  -0.10189 -1.56493 1.88303 O
  atom  -1.10210 -2.13717 0.06896 O
  atom  -0.49680 -2.26162 -0.68144 H
  
  -----------------------------------------------------------------------
  Completed first pass over input file geometry.in .
  -----------------------------------------------------------------------
  

  Basic array size parameters:
  | Number of species                 :        4
  | Number of atoms                   :       13
  | Max. basis fn. angular momentum   :        2
  | Max. atomic/ionic basis occupied n:        2
  | Max. number of basis fn. types    :        2
  | Max. radial fns per species/type  :        3
  | Max. logarithmic grid size        :     1301
  | Max. radial integration grid size :       36
  | Max. angular integration grid size:      302
  | Max. angular grid division number :        8
  | Radial grid for Hartree potential :     1301
  | Number of spin channels           :        1

------------------------------------------------------------
          Reading file control.in.
------------------------------------------------------------
  XC: Using PBE gradient-corrected functionals.
  Spin treatment: No spin polarisation.
  Non-relativistic treatment of kinetic energy.
  Charge =   0.000000E+00: Neutral system requested explicitly.
  Occupation type: Gaussian broadening, width =   0.100000E-01 eV.
  Using pulay charge density mixing.
  Pulay mixing - number of memorized iterations:   10
  Charge density mixing - mixing parameter:     0.2000
  Convergence accuracy of self-consistent charge density:  0.1000E-04
  Convergence accuracy of sum of eigenvalues:  0.1000E-02
  Convergence accuracy of total energy:  0.1000E-05
  Convergence accuracy of forces:  0.1000E-03
  Maximum number of s.-c. iterations  :   100
 
  Reading configuration options for species H                   .
  | Found nuclear charge :   1.0000
  | Found atomic mass :    1.00794000000000      amu
  | Found l_max for Hartree potential  :   4
  | Found cutoff potl. onset [A], width [A], scale factor :    3.50000    1.50000    1.00000
  | Threshold for basis-dependent cutoff potential is   0.100000E-03
  | Found data for basic radial integration grid :    24 points, outermost radius =    5.000 A
  | Found multiplier for basic radial grid :   1
  | Found angular grid specification: user-specified.
  | Specified grid contains     5 separate shells.
  | Check grid settings after all constraints further below.
  | Found free-atom valence shell :  1 s   1.000
  | No ionic wave fns used. Skipping ion_occ.
  | Found hydrogenic basis function :  2 s   2.100
  | Found hydrogenic basis function :  2 p   3.500
  Species H                   : Missing cutoff potential type.
  Defaulting to exp(1/x)/(1-x)^2 type cutoff potential.
  Species H : No 'logarithmic' tag. Using default grid for free atom:
  | Default logarithmic grid data [bohr] : 0.1000E-03 0.1000E+03 0.1012E+01
  Species H : On-site basis accuracy parameter (for Gram-Schmidt orthonormalisation) not specified.
  Using default value basis_acc =  0.1000000E-03.
  Species H                   : Using default innermost maximum threshold i_radial=  2 for radial functions.
  Species H                   : Default cutoff onset for free atom density etc. : 0.35000000E+01 AA.
  Species H                   : Basic radial grid will be enhanced according to radial_multiplier =   1, to contain    24 grid points.
 
  Reading configuration options for species C                   .
  | Found nuclear charge :   6.0000
  | Found atomic mass :    12.0107000000000      amu
  | Found l_max for Hartree potential  :   4
  | Found cutoff potl. onset [A], width [A], scale factor :    3.50000    1.50000    1.00000
  | Threshold for basis-dependent cutoff potential is   0.100000E-03
  | Found data for basic radial integration grid :    34 points, outermost radius =    5.000 A
  | Found multiplier for basic radial grid :   1
  | Found angular grid specification: user-specified.
  | Specified grid contains     5 separate shells.
  | Check grid settings after all constraints further below.
  | Found free-atom valence shell :  2 s   2.000
  | Found free-atom valence shell :  2 p   2.000
  | No ionic wave fns used. Skipping ion_occ.
  | No ionic wave fns used. Skipping ion_occ.
  | Found hydrogenic basis function :  2 p   1.700
  | Found hydrogenic basis function :  3 d   6.000
  | Found hydrogenic basis function :  2 s   4.900
  Species C                   : Missing cutoff potential type.
  Defaulting to exp(1/x)/(1-x)^2 type cutoff potential.
  Species C : No 'logarithmic' tag. Using default grid for free atom:
  | Default logarithmic grid data [bohr] : 0.1000E-03 0.1000E+03 0.1012E+01
  Species C : On-site basis accuracy parameter (for Gram-Schmidt orthonormalisation) not specified.
  Using default value basis_acc =  0.1000000E-03.
  Species C                   : Using default innermost maximum threshold i_radial=  2 for radial functions.
  Species C                   : Default cutoff onset for free atom density etc. : 0.35000000E+01 AA.
  Species C                   : Basic radial grid will be enhanced according to radial_multiplier =   1, to contain    34 grid points.
 
  Reading configuration options for species N                   .
  | Found nuclear charge :   7.0000
  | Found atomic mass :    14.0067000000000      amu
  | Found l_max for Hartree potential  :   4
  | Found cutoff potl. onset [A], width [A], scale factor :    3.50000    1.50000    1.00000
  | Threshold for basis-dependent cutoff potential is   0.100000E-03
  | Found data for basic radial integration grid :    35 points, outermost radius =    5.000 A
  | Found multiplier for basic radial grid :   1
  | Found angular grid specification: user-specified.
  | Specified grid contains     5 separate shells.
  | Check grid settings after all constraints further below.
  | Found free-atom valence shell :  2 s   2.000
  | Found free-atom valence shell :  2 p   3.000
  | No ionic wave fns used. Skipping ion_occ.
  | No ionic wave fns used. Skipping ion_occ.
  | Found hydrogenic basis function :  2 p   1.800
  | Found hydrogenic basis function :  3 d   6.800
  | Found hydrogenic basis function :  3 s   5.800
  Species N                   : Missing cutoff potential type.
  Defaulting to exp(1/x)/(1-x)^2 type cutoff potential.
  Species N : No 'logarithmic' tag. Using default grid for free atom:
  | Default logarithmic grid data [bohr] : 0.1000E-03 0.1000E+03 0.1012E+01
  Species N : On-site basis accuracy parameter (for Gram-Schmidt orthonormalisation) not specified.
  Using default value basis_acc =  0.1000000E-03.
  Species N                   : Using default innermost maximum threshold i_radial=  2 for radial functions.
  Species N                   : Default cutoff onset for free atom density etc. : 0.35000000E+01 AA.
  Species N                   : Basic radial grid will be enhanced according to radial_multiplier =   1, to contain    35 grid points.
 
  Reading configuration options for species O                   .
  | Found nuclear charge :   8.0000
  | Found atomic mass :    15.9994000000000      amu
  | Found l_max for Hartree potential  :   4
  | Found cutoff potl. onset [A], width [A], scale factor :    3.50000    1.50000    1.00000
  | Threshold for basis-dependent cutoff potential is   0.100000E-03
  | Found data for basic radial integration grid :    36 points, outermost radius =    5.000 A
  | Found multiplier for basic radial grid :   1
  | Found angular grid specification: user-specified.
  | Specified grid contains     5 separate shells.
  | Check grid settings after all constraints further below.
  | Found free-atom valence shell :  2 s   2.000
  | Found free-atom valence shell :  2 p   4.000
  | No ionic wave fns used. Skipping ion_occ.
  | No ionic wave fns used. Skipping ion_occ.
  | Found hydrogenic basis function :  2 p   1.800
  | Found hydrogenic basis function :  3 d   7.600
  | Found hydrogenic basis function :  3 s   6.400
  Species O                   : Missing cutoff potential type.
  Defaulting to exp(1/x)/(1-x)^2 type cutoff potential.
  Species O : No 'logarithmic' tag. Using default grid for free atom:
  | Default logarithmic grid data [bohr] : 0.1000E-03 0.1000E+03 0.1012E+01
  Species O : On-site basis accuracy parameter (for Gram-Schmidt orthonormalisation) not specified.
  Using default value basis_acc =  0.1000000E-03.
  Species O                   : Using default innermost maximum threshold i_radial=  2 for radial functions.
  Species O                   : Default cutoff onset for free atom density etc. : 0.35000000E+01 AA.
  Species O                   : Basic radial grid will be enhanced according to radial_multiplier =   1, to contain    36 grid points.
 
  Finished reading input file 'control.in'. Consistency checks are next.
 
  MPI_IN_PLACE appears to work with this MPI implementation.
  | Keeping use_mpi_in_place .true. (see manual).
  Target number of points in a grid batch is not set. Defaulting to  100
  Method for grid partitioning is not set. Defaulting to parallel hash+maxmin partitioning.
  Batch size limit is not set. Defaulting to    200
  By default, will store active basis functions for each batch.
  If in need of memory, prune_basis_once .false. can be used to disable this option.
  communication_type for Hartree potential was not specified.
  Defaulting to calc_hartree .
  Pulay mixer: Number of initial linear mixing iterations not set.
  Defaulting to    0 iterations.
  Work space size for distributed Hartree potential not set.
  Defaulting to   0.200000E+03 MB.
  Algorithm-dependent basis array size parameters:
  | n_max_pulay                         :       10
  Presetting      1001 iterations before the initial mixing cycle
  is restarted anyway using the sc_init_iter criterion / keyword.
  Presetting a factor      1.000 between actual scf density residual
  and density convergence criterion sc_accuracy_rho below which sc_init_iter
  takes no effect.
  Geometry relaxation not requested: no relaxation will be performed.
  Handling of forces: Unphysical translation and rotation will be removed from forces.
  No accuracy limit for integral partition fn. given. Defaulting to  0.1000E-14.
  No threshold value for u(r) in integrations given. Defaulting to  0.1000E-05.
  No accuracy for occupation numbers given. Defaulting to  0.1000E-12.
  No threshold value for occupation numbers given. Defaulting to  0.0000E+00.
  No accuracy for fermi level given. Defaulting to  0.1000E-19.
  Maximum # of iterations to find E_F not set. Defaulting to  200.
  Preferred method for the eigenvalue solver ('KS_method') not specified in 'control.in'.
  Defaulting to serial version, 'lapack_fast'.
  Will not use alltoall communication since running on < 1024 CPUs.
  Threshold for basis singularities not set.
  Default threshold for basis singularities:  0.1000E-04
  partition_type (choice of integration weights) for integrals was not specified.
  | Using a version of the partition function of Stratmann and coworkers ('stratmann_smoother').
  | At each grid point, the set of atoms used to build the partition table is smoothly restricted to
  | only those atoms whose free-atom density would be non-zero at that grid point.
  Partitioning for Hartree potential was not defined. Using partition_type for integrals.
  | Adjusted default value of keyword multip_moments_threshold to:       0.10000000E-11
  | This value may affect high angular momentum components of the Hartree potential in periodic systems.
  No q(lm)/r^(l+1) cutoff set for long-range Hartree potential.
  | Using default value of  0.100000E-09 .
  | Verify using the multipole_threshold keyword.
  Defaulting to new monopole extrapolation.
  Density update method: automatic selection selected.
------------------------------------------------------------


------------------------------------------------------------
          Reading geometry description geometry.in.
------------------------------------------------------------
  Input structure read successfully.
  The structure contains       13 atoms,  and a total of         48.000 electrons.

  Input geometry:
  | No unit cell requested.
  | Atomic structure:
  |       Atom                x [A]            y [A]            z [A]
  |    1: Species C             0.00000000        0.00000000        0.00000000
  |    2: Species H             1.09300000        0.00000000        0.00000000
  |    3: Species N            -0.47961000        0.00000000       -1.41207000
  |    4: Species H            -0.03809000       -0.77555000       -1.90747000
  |    5: Species H            -1.49134000       -0.11192000       -1.41364000
  |    6: Species C            -0.49584000        1.26211000        0.72868000
  |    7: Species H            -1.58789000        1.28919000        0.74431000
  |    8: Species H            -0.13407000        1.27425000        1.75947000
  |    9: Species H            -0.13407000        2.16087000        0.22380000
  |   10: Species C            -0.39425000       -1.28861000        0.74398000
  |   11: Species O            -0.10189000       -1.56493000        1.88303000
  |   12: Species O            -1.10210000       -2.13717000        0.06896000
  |   13: Species H            -0.49680000       -2.26162000       -0.68144000
  |

  | The smallest distance between any two atoms is         0.97209879 AA.
  |
  | The first atom of this pair is atom number                     12 .
  | The second atom of this pair is atom number                    13 .

  Number of empty states per atom not set in control.in - providing a guess from actual geometry.
  | Total number of empty states used during s.c.f. cycle:       29
  If you use a very high smearing, use empty_states (per atom!) in control.in to increase this value.

  Structure-dependent array size parameters: 
  | Maximum number of distinct radial functions  :       21
  | Maximum number of basis functions            :      119
  | Number of Kohn-Sham states (occupied + empty):       53
------------------------------------------------------------

------------------------------------------------------------
          Preparing all fixed parts of the calculation.
------------------------------------------------------------
  Determining machine precision:
    2.225073858507201E-308
  Setting up grids for atomic and cluster calculations.

  Creating wave function, potential, and density for free atoms.

  Species: H

  List of occupied orbitals and eigenvalues:
    n    l              occ      energy [Ha]    energy [eV]
    1    0           1.0000        -0.237589        -6.4651


  Species: C

  List of occupied orbitals and eigenvalues:
    n    l              occ      energy [Ha]    energy [eV]
    1    0           2.0000       -10.038835      -273.1706
    2    0           2.0000        -0.502696       -13.6791
    2    1           2.0000        -0.191971        -5.2238


  Species: N

  List of occupied orbitals and eigenvalues:
    n    l              occ      energy [Ha]    energy [eV]
    1    0           2.0000       -14.128000      -384.4424
    2    0           2.0000        -0.681077       -18.5330
    2    1           3.0000        -0.259788        -7.0692


  Species: O

  List of occupied orbitals and eigenvalues:
    n    l              occ      energy [Ha]    energy [eV]
    1    0           2.0000       -18.898188      -514.2459
    2    0           2.0000        -0.878505       -23.9053
    2    1           4.0000        -0.331779        -9.0282

  Creating fixed part of basis set: Ionic, confined, hydrogenic.
 
  H                    hydrogenic:
 
  List of hydrogenic basis orbitals: 
    n    l      effective z      eigenvalue [eV]  inner max. [A]     outer max. [A]     outer radius [A]   
    2    0         2.100000       -14.9728           0.193243           1.317208           4.583499
    2    1         3.500000       -41.6669           0.602369           0.602369           3.723403
 
 
  C                    hydrogenic:
 
  List of hydrogenic basis orbitals: 
    n    l      effective z      eigenvalue [eV]  inner max. [A]     outer max. [A]     outer radius [A]   
    2    1         1.700000        -9.7616           1.230570           1.230570           4.607917
    3    2         6.000000       -54.4224           0.792453           0.792453           3.883070
    2    0         4.900000       -81.6679           0.082559           0.562749           3.078220
 
 
  N                    hydrogenic:
 
  List of hydrogenic basis orbitals: 
    n    l      effective z      eigenvalue [eV]  inner max. [A]     outer max. [A]     outer radius [A]   
    2    1         1.800000       -10.9749           1.177451           1.177451           4.573712
    3    2         6.800000       -69.9026           0.704619           0.704619           3.538137
    3    0         5.800000       -50.8545           0.067388           1.191934           4.250239
 
 
  O                    hydrogenic:
 
  List of hydrogenic basis orbitals: 
    n    l      effective z      eigenvalue [eV]  inner max. [A]     outer max. [A]     outer radius [A]   
    2    1         1.800000       -10.9749           1.164242           1.164242           4.578029
    3    2         7.600000       -87.3180           0.624125           0.624125           3.251020
    3    0         6.400000       -61.9207           0.061167           1.081902           4.001998
 

  Adding cutoff potential to free-atom effective potential.
  Creating atomic-like basis functions for current effective potential.

  Species H                   :

  List of atomic basis orbitals and eigenvalues:
    n    l      energy [Ha]    energy [eV]    outer radius [A]
    1    0        -0.237589        -6.4651       4.527807


  Species C                   :

  List of atomic basis orbitals and eigenvalues:
    n    l      energy [Ha]    energy [eV]    outer radius [A]
    1    0       -10.038835      -273.1706       1.934409
    2    0        -0.502696       -13.6791       4.496620
    2    1        -0.191971        -5.2238       4.551928


  Species N                   :

  List of atomic basis orbitals and eigenvalues:
    n    l      energy [Ha]    energy [eV]    outer radius [A]
    1    0       -14.128000      -384.4424       1.637919
    2    0        -0.681077       -18.5330       4.463241
    2    1        -0.259788        -7.0692       4.518138


  Species O                   :

  List of atomic basis orbitals and eigenvalues:
    n    l      energy [Ha]    energy [eV]    outer radius [A]
    1    0       -18.898188      -514.2459       1.415765
    2    0        -0.878505       -23.9053       4.413171
    2    1        -0.331779        -9.0282       4.522403

  Assembling full basis from fixed parts.
  | Species H :   atomic orbital   1 s accepted.
  | Species H :    hydro orbital   2 s accepted.
  | Species H :    hydro orbital   2 p accepted.
  | Species C :   atomic orbital   1 s accepted.
  | Species C :    hydro orbital   2 s accepted.
  | Species C :   atomic orbital   2 s accepted.
  | Species C :   atomic orbital   2 p accepted.
  | Species C :    hydro orbital   2 p accepted.
  | Species C :    hydro orbital   3 d accepted.
  | Species N :   atomic orbital   1 s accepted.
  | Species N :    hydro orbital   3 s accepted.
  | Species N :   atomic orbital   2 s accepted.
  | Species N :   atomic orbital   2 p accepted.
  | Species N :    hydro orbital   2 p accepted.
  | Species N :    hydro orbital   3 d accepted.
  | Species O :   atomic orbital   1 s accepted.
  | Species O :    hydro orbital   3 s accepted.
  | Species O :   atomic orbital   2 s accepted.
  | Species O :   atomic orbital   2 p accepted.
  | Species O :    hydro orbital   2 p accepted.
  | Species O :    hydro orbital   3 d accepted.
 
  Basis size parameters after reduction:
  | Total number of radial functions:       21
  | Total number of basis functions :      119
 
  Per-task memory consumption for arrays in subroutine allocate_ext:
  |           5.250512MB.
  Testing on-site integration grid accuracy.
  |  Species  Function  <phi|h_atom|phi> (log., in eV)  <phi|h_atom|phi> (rad., in eV)
           1        1                 -6.4663192853                 -6.4651273558
           1        2                 13.7111246313                 13.7170609718
           1        3                 25.2673269279                 25.2674696378
           2        4               -273.1705927641               -273.1705631568
           2        5                -10.7109323383                -10.7107120029
           2        6                 17.4381822266                 17.4352413244
           2        7                 -5.2255326521                 -5.2270484734
           2        8                  8.6835629259                  8.6603288385
           2        9                 27.4952418996                 27.4953360207
           3       10               -384.4424306495               -384.4423701208
           3       11                 12.5842251816                 12.5842222903
           3       12                -15.7264628251                -15.7264433455
           3       13                 -7.0696854293                 -7.0701769954
           3       14                  8.8090390882                  8.7901077751
           3       15                 35.9586762123                 35.9588528632
           4       16               -514.2458688638               -514.2457643834
           4       17                 15.1795651126                 15.1795290741
           4       18                -21.5359799773                -21.5360846186
           4       19                 -9.0283069236                 -9.0284644067
           4       20                  8.3027758564                  8.2834874195
           4       21                 45.8339351984                 45.8338762259

  Preparing densities etc. for the partition functions (integrals / Hartree potential).

  Preparations completed.
  max(cpu_time)          :      0.150 s.
  Wall clock time (cpu1) :      0.152 s.
------------------------------------------------------------

------------------------------------------------------------
          Begin self-consistency loop: Initialization.

          Date     :  20200710, Time     :  150349.010
------------------------------------------------------------

  Initializing index lists of integration centers etc. from given atomic structure:
  | Number of centers in hartree potential         :        13
  | Number of centers in hartree multipole         :        13
  | Number of centers in electron density summation:        13
  | Number of centers in basis integrals           :        13
  | Number of centers in integrals                 :        13
  | Number of centers in hamiltonian               :        13
  Partitioning the integration grid into batches with parallel hashing+maxmin method.
  | Number of batches:      963
  | Maximal batch size:     139
  | Minimal batch size:      66
  | Average batch size:      72.322
  | Standard deviation of batch sizes:      16.573

  Integration load balanced across     1 MPI tasks.
  Work distribution over tasks is as follows:
  Task     0 has      69646 integration points.
  Initializing partition tables, free-atom densities, potentials, etc. across the integration grid (initialize_grid_storage).
  | initialize_grid_storage: Actual outermost partition radius vs. multipole_radius_free
  | (-- VB: in principle, multipole_radius_free should be larger, hence this output)
  | Species        1: Confinement radius =              4.999999999999999 AA, multipole_radius_free =              5.054417573612229 AA.
  | Species        1: outer_partition_radius set to              5.054417573612229 AA .
  | Species        2: Confinement radius =              4.999999999999999 AA, multipole_radius_free =              5.019602836301480 AA.
  | Species        2: outer_partition_radius set to              5.019602836301480 AA .
  | Species        3: Confinement radius =              4.999999999999999 AA, multipole_radius_free =              5.043624274424571 AA.
  | Species        3: outer_partition_radius set to              5.043624274424571 AA .
  | Species        4: Confinement radius =              4.999999999999999 AA, multipole_radius_free =              5.048384829883283 AA.
  | Species        4: outer_partition_radius set to              5.048384829883283 AA .
  | Original list of interatomic distances with          13 x         13 entries is created.
  | Net number of integration points:    69646
  | of which are non-zero points    :    59385
  Renormalizing the initial density to the exact electron count on the 3D integration grid.
  | Initial density: Formal number of electrons (from input files) :      48.0000000000
  | Integrated number of electrons on 3D grid     :      48.0000366660
  | Charge integration error                      :       0.0000366660
  | Normalization factor for density and gradient :       0.9999992361
  Obtaining max. number of non-zero basis functions in each batch (get_n_compute_maxes).
  | Maximal number of non-zero basis functions:      119 in task     0
  Selecting the method for density update.
  Loop over occupied states selected for charge density update.
  Allocating        0.050 MB for KS_eigenvector
  Integrating Hamiltonian matrix: batch-based integration.
  Time summed over all CPUs for integration: real work        0.496 s, elapsed        0.496 s
  Integrating overlap matrix.
  Time summed over all CPUs for integration: real work        0.215 s, elapsed        0.215 s

  Updating Kohn-Sham eigenvalues and eigenvectors using ELSI and the ELPA eigensolver.
  Overlap matrix is nonsingular
  | Lowest eigenvalue of overlap  :  0.46E-02
  | Highest eigenvalue of overlap :  0.63E+01
  Finished singularity check of overlap matrix
  | Time :     0.002 s
  Finished Cholesky decomposition
  | Time :     0.000 s
  Finished transformation to standard eigenproblem
  | Time :     0.000 s
  Starting LAPACK eigensolver
  Finished solving standard eigenproblem
  | Time :     0.002 s
  Finished back-transformation of eigenvectors
  | Time :     0.000 s

  Obtaining occupation numbers and chemical potential using ELSI.
  | Chemical potential (Fermi level):    -8.98138069eV
  Writing Kohn-Sham eigenvalues.

  State    Occupation    Eigenvalue [Ha]    Eigenvalue [eV]
      1       2.00000         -19.007801         -517.22857
      2       2.00000         -18.977168         -516.39502
      3       2.00000         -14.246140         -387.65719
      4       2.00000         -10.166649         -276.64861
      5       2.00000         -10.141537         -275.96526
      6       2.00000         -10.132059         -275.70736
      7       2.00000          -1.182540          -32.17856
      8       2.00000          -1.099842          -29.92822
      9       2.00000          -0.991405          -26.97749
     10       2.00000          -0.861269          -23.43633
     11       2.00000          -0.751753          -20.45624
     12       2.00000          -0.682379          -18.56846
     13       2.00000          -0.629187          -17.12104
     14       2.00000          -0.620443          -16.88312
     15       2.00000          -0.578053          -15.72961
     16       2.00000          -0.569881          -15.50726
     17       2.00000          -0.555379          -15.11263
     18       2.00000          -0.523427          -14.24319
     19       2.00000          -0.513771          -13.98043
     20       2.00000          -0.500488          -13.61896
     21       2.00000          -0.457722          -12.45524
     22       2.00000          -0.430932          -11.72624
     23       2.00000          -0.422950          -11.50906
     24       2.00000          -0.378001          -10.28593
     25       0.00000          -0.158261           -4.30650
     26       0.00000          -0.075590           -2.05691
     27       0.00000          -0.026817           -0.72972
     28       0.00000          -0.018331           -0.49881
     29       0.00000          -0.003656           -0.09949
     30       0.00000           0.013085            0.35607
     31       0.00000           0.024155            0.65729
     32       0.00000           0.037260            1.01391
     33       0.00000           0.044697            1.21626
     34       0.00000           0.066713            1.81535
     35       0.00000           0.083641            2.27598
     36       0.00000           0.133520            3.63326
     37       0.00000           0.176075            4.79125
     38       0.00000           0.197823            5.38304
     39       0.00000           0.213066            5.79783
     40       0.00000           0.224179            6.10022
     41       0.00000           0.251410            6.84121
     42       0.00000           0.272065            7.40326
     43       0.00000           0.275045            7.48436
     44       0.00000           0.295596            8.04358
     45       0.00000           0.322528            8.77644
     46       0.00000           0.350326            9.53285
     47       0.00000           0.363988            9.90462
     48       0.00000           0.385285           10.48414
     49       0.00000           0.450274           12.25257
     50       0.00000           0.481615           13.10541
     51       0.00000           0.507035           13.79712
     52       0.00000           0.540271           14.70151
     53       0.00000           0.588518           16.01438

  Highest occupied state (VBM) at    -10.28593150 eV
  | Occupation number:      2.00000000

  Lowest unoccupied state (CBM) at    -4.30649877 eV
  | Occupation number:      0.00000000

  Overall HOMO-LUMO gap:      5.97943273 eV.
  Calculating total energy contributions from superposition of free atom densities.

  Total energy components:
  | Sum of eigenvalues            :        -188.84155248 Ha       -5138.64009418 eV
  | XC energy correction          :         -41.79368036 Ha       -1137.26390591 eV
  | XC potential correction       :          53.72706132 Ha        1461.98772361 eV
  | Free-atom electrostatic energy:        -146.84963158 Ha       -3995.98178864 eV
  | Hartree energy correction     :           0.00000000 Ha           0.00000000 eV
  | vdW energy correction         :           0.00000000 Ha           0.00000000 eV
  | Entropy correction            :           0.00000000 Ha           0.00000000 eV
  | ---------------------------
  | Total energy                  :        -323.75780310 Ha       -8809.89806511 eV
  | Total energy, T -> 0          :        -323.75780310 Ha       -8809.89806511 eV  <-- do not rely on this value for anything but (periodic) metals
  | Electronic free energy        :        -323.75780310 Ha       -8809.89806511 eV

  Derived energy quantities:
  | Kinetic energy                :         320.50746743 Ha        8721.45193123 eV
  | Electrostatic energy          :        -602.47159017 Ha      -16394.08609044 eV
  | Energy correction for multipole
  | error in Hartree potential    :           0.00000000 Ha           0.00000000 eV
  | Sum of eigenvalues per atom                           :        -395.28000724 eV
  | Total energy (T->0) per atom                          :        -677.68446655 eV  <-- do not rely on this value for anything but (periodic) metals
  | Electronic free energy per atom                       :        -677.68446655 eV
  Initialize hartree_potential_storage
  Max. number of atoms included in rho_multipole:           13

  End scf initialization - timings             :  max(cpu_time)    wall_clock(cpu1)
  | Time for scf. initialization               :        1.162 s           1.164 s
  | Boundary condition initialization          :        0.000 s           0.000 s
  | Integration                                :        0.711 s           0.711 s
  | Solution of K.-S. eqns.                    :        0.004 s           0.005 s
  | Grid partitioning                          :        0.113 s           0.113 s
  | Preloading free-atom quantities on grid    :        0.002 s           0.003 s
  | Free-atom superposition energy             :        0.086 s           0.086 s
  | Total energy evaluation                    :        0.000 s           0.000 s

  Partial memory accounting:
  | Current value for overall tracked memory usage on task 0  :           0.165 MB
  | Peak value for overall tracked memory usage on task 0     :           0.678 MB after allocating wave
  | Largest tracked array allocation on task 0 so far         :           0.132 MB  when allocating H_times_psi
  Note:  These values currently only include a subset of arrays which are explicitly tracked.
  The "true" memory usage will be greater.
------------------------------------------------------------

------------------------------------------------------------
          Begin self-consistency iteration #    1

  Date     :  20200710, Time     :  150350.174
------------------------------------------------------------
  Evaluating new KS density.
  Integration grid: deviation in total charge (<rho> - N_e) =   2.842171E-14
  Pulay mixing of updated and previous charge densities.

  Evaluating partitioned Hartree potential by multipole expansion.
  | Analytical far-field extrapolation by fixed multipoles:
  | Hartree multipole sum: apparent total charge =  -0.675469E-04
  Summing up the Hartree potential.
  Time summed over all CPUs for potential: real work        0.284 s, elapsed        0.284 s
  | RMS charge density error from multipole expansion :   0.593139E-02

  Integrating Hamiltonian matrix: batch-based integration.
  Time summed over all CPUs for integration: real work        0.496 s, elapsed        0.496 s

  Updating Kohn-Sham eigenvalues and eigenvectors using ELSI and the ELPA eigensolver.
  Finished Cholesky decomposition
  | Time :     0.000 s
  Finished transformation to standard eigenproblem
  | Time :     0.000 s
  Starting LAPACK eigensolver
  Finished solving standard eigenproblem
  | Time :     0.001 s
  Finished back-transformation of eigenvectors
  | Time :     0.000 s

  Obtaining occupation numbers and chemical potential using ELSI.
  | Chemical potential (Fermi level):    -7.95042792eV
  Writing Kohn-Sham eigenvalues.

  State    Occupation    Eigenvalue [Ha]    Eigenvalue [eV]
      1       2.00000         -18.903116         -514.37995
      2       2.00000         -18.835701         -512.54551
      3       2.00000         -14.103304         -383.77042
      4       2.00000         -10.116688         -275.28908
      5       2.00000         -10.065674         -273.90092
      6       2.00000         -10.030917         -272.95513
      7       2.00000          -1.134472          -30.87056
      8       2.00000          -1.036601          -28.20735
      9       2.00000          -0.926706          -25.21695
     10       2.00000          -0.796607          -21.67678
     11       2.00000          -0.700143          -19.05187
     12       2.00000          -0.640668          -17.43347
     13       2.00000          -0.577529          -15.71537
     14       2.00000          -0.564046          -15.34848
     15       2.00000          -0.523349          -14.24105
     16       2.00000          -0.510896          -13.90220
     17       2.00000          -0.492582          -13.40383
     18       2.00000          -0.463739          -12.61899
     19       2.00000          -0.448932          -12.21606
     20       2.00000          -0.445278          -12.11664
     21       2.00000          -0.400462          -10.89712
     22       2.00000          -0.370636          -10.08553
     23       2.00000          -0.354586           -9.64879
     24       2.00000          -0.306847           -8.34974
     25       0.00000          -0.122406           -3.33084
     26       0.00000          -0.059545           -1.62030
     27       0.00000           0.006697            0.18225
     28       0.00000           0.015014            0.40854
     29       0.00000           0.027584            0.75059
     30       0.00000           0.051102            1.39057
     31       0.00000           0.059561            1.62074
     32       0.00000           0.071596            1.94822
     33       0.00000           0.083016            2.25899
     34       0.00000           0.104067            2.83181
     35       0.00000           0.121332            3.30162
     36       0.00000           0.162881            4.43221
     37       0.00000           0.199419            5.42648
     38       0.00000           0.224968            6.12168
     39       0.00000           0.246588            6.71000
     40       0.00000           0.255556            6.95403
     41       0.00000           0.288378            7.84717
     42       0.00000           0.305239            8.30597
     43       0.00000           0.308187            8.38619
     44       0.00000           0.332181            9.03912
     45       0.00000           0.354792            9.65438
     46       0.00000           0.385751           10.49681
     47       0.00000           0.406835           11.07054
     48       0.00000           0.423620           11.52729
     49       0.00000           0.489231           13.31266
     50       0.00000           0.520227           14.15609
     51       0.00000           0.538383           14.65015
     52       0.00000           0.566237           15.40810
     53       0.00000           0.623119           16.95594

  Highest occupied state (VBM) at     -8.34974173 eV
  | Occupation number:      2.00000000

  Lowest unoccupied state (CBM) at    -3.33084423 eV
  | Occupation number:      0.00000000

  Overall HOMO-LUMO gap:      5.01889749 eV.

  Total energy components:
  | Sum of eigenvalues            :        -185.49896247 Ha       -5047.68359203 eV
  | XC energy correction          :         -42.12129202 Ha       -1146.17867291 eV
  | XC potential correction       :          54.15310239 Ha        1473.58089102 eV
  | Free-atom electrostatic energy:        -146.84963158 Ha       -3995.98178864 eV
  | Hartree energy correction     :          -3.25775734 Ha         -88.64808761 eV
  | vdW energy correction         :           0.00000000 Ha           0.00000000 eV
  | Entropy correction            :           0.00000000 Ha           0.00000000 eV
  | ---------------------------
  | Total energy                  :        -323.57454102 Ha       -8804.91125016 eV
  | Total energy, T -> 0          :        -323.57454102 Ha       -8804.91125016 eV  <-- do not rely on this value for anything but (periodic) metals
  | Electronic free energy        :        -323.57454102 Ha       -8804.91125016 eV

  Derived energy quantities:
  | Kinetic energy                :         322.29762267 Ha        8770.16453395 eV
  | Electrostatic energy          :        -603.75087167 Ha      -16428.89711120 eV
  | Energy correction for multipole
  | error in Hartree potential    :           0.01170373 Ha           0.31847461 eV
  | Sum of eigenvalues per atom                           :        -388.28335323 eV
  | Total energy (T->0) per atom                          :        -677.30086540 eV  <-- do not rely on this value for anything but (periodic) metals
  | Electronic free energy per atom                       :        -677.30086540 eV

  Self-consistency convergence accuracy:
  | Change of charge density      :  0.5846E+00
  | Change of sum of eigenvalues  :  0.9096E+02 eV
  | Change of total energy        :  0.4987E+01 eV

  End self-consistency iteration #     1       :  max(cpu_time)    wall_clock(cpu1)
  | Time for this iteration                    :        1.197 s           1.201 s
  | Charge density update                      :        0.401 s           0.402 s
  | Density mixing                             :        0.006 s           0.006 s
  | Hartree multipole update                   :        0.009 s           0.009 s
  | Hartree multipole summation                :        0.285 s           0.285 s
  | Integration                                :        0.495 s           0.496 s
  | Solution of K.-S. eqns.                    :        0.002 s           0.002 s
  | Total energy evaluation                    :        0.000 s           0.000 s

  Partial memory accounting:
  | Current value for overall tracked memory usage on task 0  :           0.165 MB
  | Peak value for overall tracked memory usage on task 0     :           0.695 MB after allocating gradient_basis_wave
  | Largest tracked array allocation on task 0 so far         :           0.397 MB  when allocating gradient_basis_wave
  Note:  These values currently only include a subset of arrays which are explicitly tracked.
  The "true" memory usage will be greater.
------------------------------------------------------------

------------------------------------------------------------
          Begin self-consistency iteration #    2

  Date     :  20200710, Time     :  150351.375
------------------------------------------------------------
  Evaluating new KS density.
  Integration grid: deviation in total charge (<rho> - N_e) =   3.552714E-14
  Pulay mixing of updated and previous charge densities.

  Evaluating partitioned Hartree potential by multipole expansion.
  | Analytical far-field extrapolation by fixed multipoles:
  | Hartree multipole sum: apparent total charge =  -0.198542E-03
  Summing up the Hartree potential.
  Time summed over all CPUs for potential: real work        0.282 s, elapsed        0.282 s
  | RMS charge density error from multipole expansion :   0.139818E-01

  Integrating Hamiltonian matrix: batch-based integration.
  Time summed over all CPUs for integration: real work        0.496 s, elapsed        0.496 s

  Updating Kohn-Sham eigenvalues and eigenvectors using ELSI and the ELPA eigensolver.
  Finished Cholesky decomposition
  | Time :     0.000 s
  Finished transformation to standard eigenproblem
  | Time :     0.000 s
  Starting LAPACK eigensolver
  Finished solving standard eigenproblem
  | Time :     0.002 s
  Finished back-transformation of eigenvectors
  | Time :     0.000 s

  Obtaining occupation numbers and chemical potential using ELSI.
  | Chemical potential (Fermi level):    -2.56192041eV
  Highest occupied state (VBM) at     -6.46613259 eV
  | Occupation number:      2.00000000

  Lowest unoccupied state (CBM) at    -2.08335932 eV
  | Occupation number:      0.00000000

  Overall HOMO-LUMO gap:      4.38277327 eV.

  Checking to see if s.c.f. parameters should be adjusted.

  Total energy components:
  | Sum of eigenvalues            :        -182.02076273 Ha       -4953.03696163 eV
  | XC energy correction          :         -42.47457778 Ha       -1155.79206757 eV
  | XC potential correction       :          54.61094053 Ha        1486.03930054 eV
  | Free-atom electrostatic energy:        -146.84963158 Ha       -3995.98178864 eV
  | Hartree energy correction     :          -6.76235971 Ha        -184.01317020 eV
  | vdW energy correction         :           0.00000000 Ha           0.00000000 eV
  | Entropy correction            :           0.00000000 Ha           0.00000000 eV
  | ---------------------------
  | Total energy                  :        -323.49639128 Ha       -8802.78468750 eV
  | Total energy, T -> 0          :        -323.49639128 Ha       -8802.78468750 eV  <-- do not rely on this value for anything but (periodic) metals
  | Electronic free energy        :        -323.49639128 Ha       -8802.78468750 eV

  Derived energy quantities:
  | Kinetic energy                :         323.59777193 Ha        8805.54339545 eV
  | Electrostatic energy          :        -604.61958543 Ha      -16452.53601538 eV
  | Energy correction for multipole
  | error in Hartree potential    :           0.02558973 Ha           0.69633209 eV
  | Sum of eigenvalues per atom                           :        -381.00284320 eV
  | Total energy (T->0) per atom                          :        -677.13728365 eV  <-- do not rely on this value for anything but (periodic) metals
  | Electronic free energy per atom                       :        -677.13728365 eV

  Self-consistency convergence accuracy:
  | Change of charge density      :  0.3656E+00
  | Change of sum of eigenvalues  :  0.9465E+02 eV
  | Change of total energy        :  0.2127E+01 eV

  End self-consistency iteration #     2       :  max(cpu_time)    wall_clock(cpu1)
  | Time for this iteration                    :        1.187 s           1.196 s
  | Charge density update                      :        0.391 s           0.398 s
  | Density mixing                             :        0.007 s           0.008 s
  | Hartree multipole update                   :        0.009 s           0.008 s
  | Hartree multipole summation                :        0.282 s           0.283 s
  | Integration                                :        0.496 s           0.496 s
  | Solution of K.-S. eqns.                    :        0.002 s           0.003 s
  | Total energy evaluation                    :        0.000 s           0.000 s

  Partial memory accounting:
  | Current value for overall tracked memory usage on task 0  :           0.166 MB
  | Peak value for overall tracked memory usage on task 0     :           0.695 MB after allocating gradient_basis_wave
  | Largest tracked array allocation on task 0 so far         :           0.397 MB  when allocating gradient_basis_wave
  Note:  These values currently only include a subset of arrays which are explicitly tracked.
  The "true" memory usage will be greater.
------------------------------------------------------------

------------------------------------------------------------
          Begin self-consistency iteration #    3

  Date     :  20200710, Time     :  150352.572
------------------------------------------------------------
  Evaluating new KS density.
  Integration grid: deviation in total charge (<rho> - N_e) =   0.000000E+00
  Pulay mixing of updated and previous charge densities.

  Evaluating partitioned Hartree potential by multipole expansion.
  | Analytical far-field extrapolation by fixed multipoles:
  | Hartree multipole sum: apparent total charge =  -0.292651E-03
  Summing up the Hartree potential.
  Time summed over all CPUs for potential: real work        0.284 s, elapsed        0.284 s
  | RMS charge density error from multipole expansion :   0.220705E-01

  Integrating Hamiltonian matrix: batch-based integration.
  Time summed over all CPUs for integration: real work        0.497 s, elapsed        0.497 s

  Updating Kohn-Sham eigenvalues and eigenvectors using ELSI and the ELPA eigensolver.
  Finished Cholesky decomposition
  | Time :     0.000 s
  Finished transformation to standard eigenproblem
  | Time :     0.000 s
  Starting LAPACK eigensolver
  Finished solving standard eigenproblem
  | Time :     0.002 s
  Finished back-transformation of eigenvectors
  | Time :     0.000 s

  Obtaining occupation numbers and chemical potential using ELSI.
  | Chemical potential (Fermi level):    -1.83234627eV
  Highest occupied state (VBM) at     -5.79975811 eV
  | Occupation number:      2.00000000

  Lowest unoccupied state (CBM) at    -1.35941469 eV
  | Occupation number:      0.00000000

  Overall HOMO-LUMO gap:      4.44034343 eV.

  Total energy components:
  | Sum of eigenvalues            :        -180.66161400 Ha       -4916.05264294 eV
  | XC energy correction          :         -42.63209916 Ha       -1160.07844241 eV
  | XC potential correction       :          54.81189882 Ha        1491.50765384 eV
  | Free-atom electrostatic energy:        -146.84963158 Ha       -3995.98178864 eV
  | Hartree energy correction     :          -8.15170060 Ha        -221.81905924 eV
  | vdW energy correction         :           0.00000000 Ha           0.00000000 eV
  | Entropy correction            :           0.00000000 Ha           0.00000000 eV
  | ---------------------------
  | Total energy                  :        -323.48314653 Ha       -8802.42427938 eV
  | Total energy, T -> 0          :        -323.48314653 Ha       -8802.42427938 eV  <-- do not rely on this value for anything but (periodic) metals
  | Electronic free energy        :        -323.48314653 Ha       -8802.42427938 eV

  Derived energy quantities:
  | Kinetic energy                :         323.23874285 Ha        8795.77371696 eV
  | Electrostatic energy          :        -604.08979021 Ha      -16438.11955393 eV
  | Energy correction for multipole
  | error in Hartree potential    :           0.03640558 Ha           0.99064622 eV
  | Sum of eigenvalues per atom                           :        -378.15789561 eV
  | Total energy (T->0) per atom                          :        -677.10955995 eV  <-- do not rely on this value for anything but (periodic) metals
  | Electronic free energy per atom                       :        -677.10955995 eV

  Self-consistency convergence accuracy:
  | Change of charge density      :  0.2070E+00
  | Change of sum of eigenvalues  :  0.3698E+02 eV
  | Change of total energy        :  0.3604E+00 eV

  End self-consistency iteration #     3       :  max(cpu_time)    wall_clock(cpu1)
  | Time for this iteration                    :        1.194 s           1.195 s
  | Charge density update                      :        0.392 s           0.393 s
  | Density mixing                             :        0.009 s           0.009 s
  | Hartree multipole update                   :        0.009 s           0.009 s
  | Hartree multipole summation                :        0.285 s           0.285 s
  | Integration                                :        0.497 s           0.497 s
  | Solution of K.-S. eqns.                    :        0.002 s           0.002 s
  | Total energy evaluation                    :        0.000 s           0.000 s

  Partial memory accounting:
  | Current value for overall tracked memory usage on task 0  :           0.166 MB
  | Peak value for overall tracked memory usage on task 0     :           0.695 MB after allocating gradient_basis_wave
  | Largest tracked array allocation on task 0 so far         :           0.397 MB  when allocating gradient_basis_wave
  Note:  These values currently only include a subset of arrays which are explicitly tracked.
  The "true" memory usage will be greater.
------------------------------------------------------------

------------------------------------------------------------
          Begin self-consistency iteration #    4

  Date     :  20200710, Time     :  150353.770
------------------------------------------------------------
  Evaluating new KS density.
  Integration grid: deviation in total charge (<rho> - N_e) =  -2.131628E-14
  Pulay mixing of updated and previous charge densities.

  Evaluating partitioned Hartree potential by multipole expansion.
  | Analytical far-field extrapolation by fixed multipoles:
  | Hartree multipole sum: apparent total charge =  -0.323553E-03
  Summing up the Hartree potential.
  Time summed over all CPUs for potential: real work        0.283 s, elapsed        0.283 s
  | RMS charge density error from multipole expansion :   0.255580E-01

  Integrating Hamiltonian matrix: batch-based integration.
  Time summed over all CPUs for integration: real work        0.493 s, elapsed        0.493 s

  Updating Kohn-Sham eigenvalues and eigenvectors using ELSI and the ELPA eigensolver.
  Finished Cholesky decomposition
  | Time :     0.000 s
  Finished transformation to standard eigenproblem
  | Time :     0.000 s
  Starting LAPACK eigensolver
  Finished solving standard eigenproblem
  | Time :     0.002 s
  Finished back-transformation of eigenvectors
  | Time :     0.000 s

  Obtaining occupation numbers and chemical potential using ELSI.
  | Chemical potential (Fermi level):    -1.74715919eV
  Highest occupied state (VBM) at     -5.58701690 eV
  | Occupation number:      2.00000000

  Lowest unoccupied state (CBM) at    -1.27098110 eV
  | Occupation number:      0.00000000

  Overall HOMO-LUMO gap:      4.31603581 eV.

  Total energy components:
  | Sum of eigenvalues            :        -180.54450669 Ha       -4912.86599077 eV
  | XC energy correction          :         -42.66897831 Ha       -1161.08197500 eV
  | XC potential correction       :          54.85814414 Ha        1492.76605314 eV
  | Free-atom electrostatic energy:        -146.84963158 Ha       -3995.98178864 eV
  | Hartree energy correction     :          -8.27709152 Ha        -225.23111996 eV
  | vdW energy correction         :           0.00000000 Ha           0.00000000 eV
  | Entropy correction            :           0.00000000 Ha           0.00000000 eV
  | ---------------------------
  | Total energy                  :        -323.48206396 Ha       -8802.39482123 eV
  | Total energy, T -> 0          :        -323.48206396 Ha       -8802.39482123 eV  <-- do not rely on this value for anything but (periodic) metals
  | Electronic free energy        :        -323.48206396 Ha       -8802.39482123 eV

  Derived energy quantities:
  | Kinetic energy                :         322.83822758 Ha        8784.87514195 eV
  | Electrostatic energy          :        -603.65131323 Ha      -16426.18798818 eV
  | Energy correction for multipole
  | error in Hartree potential    :           0.04059145 Ha           1.10454948 eV
  | Sum of eigenvalues per atom                           :        -377.91276852 eV
  | Total energy (T->0) per atom                          :        -677.10729394 eV  <-- do not rely on this value for anything but (periodic) metals
  | Electronic free energy per atom                       :        -677.10729394 eV

  Self-consistency convergence accuracy:
  | Change of charge density      :  0.6816E-01
  | Change of sum of eigenvalues  :  0.3187E+01 eV
  | Change of total energy        :  0.2946E-01 eV

  End self-consistency iteration #     4       :  max(cpu_time)    wall_clock(cpu1)
  | Time for this iteration                    :        1.185 s           1.186 s
  | Charge density update                      :        0.388 s           0.388 s
  | Density mixing                             :        0.010 s           0.010 s
  | Hartree multipole update                   :        0.009 s           0.009 s
  | Hartree multipole summation                :        0.283 s           0.283 s
  | Integration                                :        0.493 s           0.494 s
  | Solution of K.-S. eqns.                    :        0.002 s           0.002 s
  | Total energy evaluation                    :        0.000 s           0.000 s

  Partial memory accounting:
  | Current value for overall tracked memory usage on task 0  :           0.166 MB
  | Peak value for overall tracked memory usage on task 0     :           0.696 MB after allocating gradient_basis_wave
  | Largest tracked array allocation on task 0 so far         :           0.397 MB  when allocating gradient_basis_wave
  Note:  These values currently only include a subset of arrays which are explicitly tracked.
  The "true" memory usage will be greater.
------------------------------------------------------------

------------------------------------------------------------
          Begin self-consistency iteration #    5

  Date     :  20200710, Time     :  150354.959
------------------------------------------------------------
  Evaluating new KS density.
  Integration grid: deviation in total charge (<rho> - N_e) =   7.105427E-15
  Pulay mixing of updated and previous charge densities.

  Evaluating partitioned Hartree potential by multipole expansion.
  | Analytical far-field extrapolation by fixed multipoles:
  | Hartree multipole sum: apparent total charge =  -0.317860E-03
  Summing up the Hartree potential.
  Time summed over all CPUs for potential: real work        0.285 s, elapsed        0.285 s
  | RMS charge density error from multipole expansion :   0.253240E-01

  Integrating Hamiltonian matrix: batch-based integration.
  Time summed over all CPUs for integration: real work        0.502 s, elapsed        0.502 s

  Updating Kohn-Sham eigenvalues and eigenvectors using ELSI and the ELPA eigensolver.
  Finished Cholesky decomposition
  | Time :     0.000 s
  Finished transformation to standard eigenproblem
  | Time :     0.000 s
  Starting LAPACK eigensolver
  Finished solving standard eigenproblem
  | Time :     0.002 s
  Finished back-transformation of eigenvectors
  | Time :     0.000 s

  Obtaining occupation numbers and chemical potential using ELSI.
  | Chemical potential (Fermi level):    -1.81301287eV
  Highest occupied state (VBM) at     -5.70163856 eV
  | Occupation number:      2.00000000

  Lowest unoccupied state (CBM) at    -1.36280927 eV
  | Occupation number:      0.00000000

  Overall HOMO-LUMO gap:      4.33882929 eV.

  Total energy components:
  | Sum of eigenvalues            :        -180.73614841 Ha       -4918.08082748 eV
  | XC energy correction          :         -42.64513099 Ha       -1160.43305656 eV
  | XC potential correction       :          54.82719631 Ha        1491.92391978 eV
  | Free-atom electrostatic energy:        -146.84963158 Ha       -3995.98178864 eV
  | Hartree energy correction     :          -8.07805319 Ha        -219.81501138 eV
  | vdW energy correction         :           0.00000000 Ha           0.00000000 eV
  | Entropy correction            :           0.00000000 Ha           0.00000000 eV
  | ---------------------------
  | Total energy                  :        -323.48176787 Ha       -8802.38676427 eV
  | Total energy, T -> 0          :        -323.48176787 Ha       -8802.38676427 eV  <-- do not rely on this value for anything but (periodic) metals
  | Electronic free energy        :        -323.48176787 Ha       -8802.38676427 eV

  Derived energy quantities:
  | Kinetic energy                :         322.72420705 Ha        8781.77248539 eV
  | Electrostatic energy          :        -603.56084392 Ha      -16423.72619311 eV
  | Energy correction for multipole
  | error in Hartree potential    :           0.03998456 Ha           1.08803518 eV
  | Sum of eigenvalues per atom                           :        -378.31390981 eV
  | Total energy (T->0) per atom                          :        -677.10667417 eV  <-- do not rely on this value for anything but (periodic) metals
  | Electronic free energy per atom                       :        -677.10667417 eV

  Self-consistency convergence accuracy:
  | Change of charge density      :  0.2123E-01
  | Change of sum of eigenvalues  : -0.5215E+01 eV
  | Change of total energy        :  0.8057E-02 eV

  End self-consistency iteration #     5       :  max(cpu_time)    wall_clock(cpu1)
  | Time for this iteration                    :        1.198 s           1.199 s
  | Charge density update                      :        0.389 s           0.389 s
  | Density mixing                             :        0.011 s           0.012 s
  | Hartree multipole update                   :        0.009 s           0.009 s
  | Hartree multipole summation                :        0.285 s           0.285 s
  | Integration                                :        0.502 s           0.502 s
  | Solution of K.-S. eqns.                    :        0.002 s           0.002 s
  | Total energy evaluation                    :        0.000 s           0.000 s

  Partial memory accounting:
  | Current value for overall tracked memory usage on task 0  :           0.166 MB
  | Peak value for overall tracked memory usage on task 0     :           0.696 MB after allocating gradient_basis_wave
  | Largest tracked array allocation on task 0 so far         :           0.397 MB  when allocating gradient_basis_wave
  Note:  These values currently only include a subset of arrays which are explicitly tracked.
  The "true" memory usage will be greater.
------------------------------------------------------------

------------------------------------------------------------
          Begin self-consistency iteration #    6

  Date     :  20200710, Time     :  150356.161
------------------------------------------------------------
  Evaluating new KS density.
  Integration grid: deviation in total charge (<rho> - N_e) =   2.131628E-14
  Pulay mixing of updated and previous charge densities.

  Evaluating partitioned Hartree potential by multipole expansion.
  | Analytical far-field extrapolation by fixed multipoles:
  | Hartree multipole sum: apparent total charge =  -0.321109E-03
  Summing up the Hartree potential.
  Time summed over all CPUs for potential: real work        0.282 s, elapsed        0.282 s
  | RMS charge density error from multipole expansion :   0.257402E-01

  Integrating Hamiltonian matrix: batch-based integration.
  Time summed over all CPUs for integration: real work        0.497 s, elapsed        0.497 s

  Updating Kohn-Sham eigenvalues and eigenvectors using ELSI and the ELPA eigensolver.
  Finished Cholesky decomposition
  | Time :     0.000 s
  Finished transformation to standard eigenproblem
  | Time :     0.000 s
  Starting LAPACK eigensolver
  Finished solving standard eigenproblem
  | Time :     0.001 s
  Finished back-transformation of eigenvectors
  | Time :     0.000 s

  Obtaining occupation numbers and chemical potential using ELSI.
  | Chemical potential (Fermi level):    -1.82007492eV
  Highest occupied state (VBM) at     -5.68133118 eV
  | Occupation number:      2.00000000

  Lowest unoccupied state (CBM) at    -1.38087034 eV
  | Occupation number:      0.00000000

  Overall HOMO-LUMO gap:      4.30046084 eV.

  Total energy components:
  | Sum of eigenvalues            :        -180.74294874 Ha       -4918.26587380 eV
  | XC energy correction          :         -42.64413823 Ha       -1160.40604198 eV
  | XC potential correction       :          54.82586535 Ha        1491.88770251 eV
  | Free-atom electrostatic energy:        -146.84963158 Ha       -3995.98178864 eV
  | Hartree energy correction     :          -8.07086070 Ha        -219.61929386 eV
  | vdW energy correction         :           0.00000000 Ha           0.00000000 eV
  | Entropy correction            :           0.00000000 Ha           0.00000000 eV
  | ---------------------------
  | Total energy                  :        -323.48171390 Ha       -8802.38529577 eV
  | Total energy, T -> 0          :        -323.48171390 Ha       -8802.38529577 eV  <-- do not rely on this value for anything but (periodic) metals
  | Electronic free energy        :        -323.48171390 Ha       -8802.38529577 eV

  Derived energy quantities:
  | Kinetic energy                :         322.64638956 Ha        8779.65496381 eV
  | Electrostatic energy          :        -603.48396524 Ha      -16421.63421760 eV
  | Energy correction for multipole
  | error in Hartree potential    :           0.04034514 Ha           1.09784705 eV
  | Sum of eigenvalues per atom                           :        -378.32814414 eV
  | Total energy (T->0) per atom                          :        -677.10656121 eV  <-- do not rely on this value for anything but (periodic) metals
  | Electronic free energy per atom                       :        -677.10656121 eV

  Self-consistency convergence accuracy:
  | Change of charge density      :  0.1074E-01
  | Change of sum of eigenvalues  : -0.1850E+00 eV
  | Change of total energy        :  0.1469E-02 eV

  End self-consistency iteration #     6       :  max(cpu_time)    wall_clock(cpu1)
  | Time for this iteration                    :        1.188 s           1.189 s
  | Charge density update                      :        0.386 s           0.386 s
  | Density mixing                             :        0.012 s           0.012 s
  | Hartree multipole update                   :        0.009 s           0.009 s
  | Hartree multipole summation                :        0.283 s           0.283 s
  | Integration                                :        0.497 s           0.497 s
  | Solution of K.-S. eqns.                    :        0.002 s           0.002 s
  | Total energy evaluation                    :        0.000 s           0.000 s

  Partial memory accounting:
  | Current value for overall tracked memory usage on task 0  :           0.166 MB
  | Peak value for overall tracked memory usage on task 0     :           0.696 MB after allocating gradient_basis_wave
  | Largest tracked array allocation on task 0 so far         :           0.397 MB  when allocating gradient_basis_wave
  Note:  These values currently only include a subset of arrays which are explicitly tracked.
  The "true" memory usage will be greater.
------------------------------------------------------------

------------------------------------------------------------
          Begin self-consistency iteration #    7

  Date     :  20200710, Time     :  150357.351
------------------------------------------------------------
  Evaluating new KS density.
  Integration grid: deviation in total charge (<rho> - N_e) =  -4.973799E-14
  Pulay mixing of updated and previous charge densities.

  Evaluating partitioned Hartree potential by multipole expansion.
  | Analytical far-field extrapolation by fixed multipoles:
  | Hartree multipole sum: apparent total charge =  -0.322068E-03
  Summing up the Hartree potential.
  Time summed over all CPUs for potential: real work        0.284 s, elapsed        0.284 s
  | RMS charge density error from multipole expansion :   0.258566E-01

  Integrating Hamiltonian matrix: batch-based integration.
  Time summed over all CPUs for integration: real work        0.503 s, elapsed        0.503 s

  Updating Kohn-Sham eigenvalues and eigenvectors using ELSI and the ELPA eigensolver.
  Finished Cholesky decomposition
  | Time :     0.000 s
  Finished transformation to standard eigenproblem
  | Time :     0.000 s
  Starting LAPACK eigensolver
  Finished solving standard eigenproblem
  | Time :     0.002 s
  Finished back-transformation of eigenvectors
  | Time :     0.000 s

[...]
  |   Hirshfeld dipole moment :      0.05852529
  |   Hirshfeld second moments:      0.01413686      -0.02937154      -0.01574857
  |                                 -0.02937154      -0.02722659       0.00590025
  |                                 -0.01574857       0.00590025      -0.02014423
  ----------------------------------------------------------------------
  | Atom    12: O
  |   Hirshfeld charge        :     -0.15909812
  |   Free atom volume        :     23.61338643
  |   Hirshfeld volume        :     21.04640253
  |   Hirshfeld dipole vector :      0.02873435       0.03341561      -0.00602638
  |   Hirshfeld dipole moment :      0.04448126
  |   Hirshfeld second moments:      0.05212607      -0.01910911      -0.01655102
  |                                 -0.01910911       0.04057992       0.03595544
  |                                 -0.01655102       0.03595544       0.06746846
  ----------------------------------------------------------------------
  | Atom    13: H
  |   Hirshfeld charge        :      0.16629217
  |   Free atom volume        :      9.95071624
  |   Hirshfeld volume        :      6.31293630
  |   Hirshfeld dipole vector :      0.07019906      -0.03978090      -0.08410794
  |   Hirshfeld dipole moment :      0.11655288
  |   Hirshfeld second moments:      0.11872462      -0.00670704       0.00638548
  |                                 -0.00670704       0.10190245       0.01683827
  |                                  0.00638548       0.01683827       0.10587898
  ----------------------------------------------------------------------


  Total energy components:
  | Sum of eigenvalues            :        -180.73704753 Ha       -4918.10529380 eV
  | XC energy correction          :         -42.64154597 Ha       -1160.33550303 eV
  | XC potential correction       :          54.82258915 Ha        1491.79855271 eV
  | Free-atom electrostatic energy:        -146.84963158 Ha       -3995.98178864 eV
  | Hartree energy correction     :          -8.07605547 Ha        -219.76065063 eV
  | vdW energy correction         :          -0.00310092 Ha          -0.08438025 eV
  | Entropy correction            :           0.00000000 Ha           0.00000000 eV
  | ---------------------------
  | Total energy                  :        -323.48479232 Ha       -8802.46906363 eV
  | Total energy, T -> 0          :        -323.48479232 Ha       -8802.46906363 eV  <-- do not rely on this value for anything but (periodic) metals
  | Electronic free energy        :        -323.48479232 Ha       -8802.46906363 eV

  Derived energy quantities:
  | Kinetic energy                :         322.61109593 Ha        8778.69457522 eV
  | Electrostatic energy          :        -603.45124136 Ha      -16420.74375558 eV
  | Energy correction for multipole
  | error in Hartree potential    :           0.04042023 Ha           1.09989032 eV
  | Sum of eigenvalues per atom                           :        -378.31579183 eV
  | Total energy (T->0) per atom                          :        -677.11300489 eV  <-- do not rely on this value for anything but (periodic) metals
  | Electronic free energy per atom                       :        -677.11300489 eV

  atomic forces [eV/Ang]:
  -----------------------
  atom #    1
   Hellmann-Feynman              :  0.381823E+00 -0.469579E+00  0.112138E+01
   Ionic forces                  :  0.000000E+00  0.000000E+00  0.000000E+00
   Multipole                     :  0.310727E-01  0.989185E-01 -0.244295E+00
   Pulay + GGA                   : -0.908751E+00  0.462991E+00 -0.141748E+01
   Van der Waals                 :  0.227094E-02  0.276630E-02 -0.829326E-03
   ----------------------------------------------------------------
   Total forces(   1)            : -0.493584E+00  0.950966E-01 -0.541216E+00
  atom #    2
   Hellmann-Feynman              :  0.295663E+00  0.813003E-01 -0.150928E+00
   Ionic forces                  :  0.000000E+00  0.000000E+00  0.000000E+00
   Multipole                     :  0.174490E+00  0.235037E-01 -0.123361E-01
   Pulay + GGA                   : -0.148601E+00  0.388008E-01  0.359543E-01
   Van der Waals                 :  0.387192E-02 -0.386393E-02 -0.625071E-02
   ----------------------------------------------------------------
   Total forces(   2)            :  0.325423E+00  0.139741E+00 -0.133561E+00
  atom #    3
   Hellmann-Feynman              :  0.348829E+01  0.104903E+02 -0.379803E+01
   Ionic forces                  :  0.000000E+00  0.000000E+00  0.000000E+00
   Multipole                     : -0.129518E+00  0.165390E+00 -0.871884E+00
   Pulay + GGA                   : -0.248874E+01 -0.101312E+02  0.529868E+01
   Van der Waals                 :  0.350143E-02 -0.325565E-02 -0.895324E-02
   ----------------------------------------------------------------
   Total forces(   3)            :  0.873535E+00  0.521231E+00  0.619812E+00
  atom #    4
   Hellmann-Feynman              : -0.145173E+00 -0.150859E+00 -0.238009E+00
   Ionic forces                  :  0.000000E+00  0.000000E+00  0.000000E+00
   Multipole                     : -0.153444E-02 -0.629361E-01 -0.871067E-01
   Pulay + GGA                   : -0.456329E-01  0.290392E+00  0.157199E-03
   Van der Waals                 :  0.746795E-03  0.741302E-02 -0.801048E-02
   ----------------------------------------------------------------
   Total forces(   4)            : -0.191593E+00  0.840097E-01 -0.332969E+00
  atom #    5
   Hellmann-Feynman              : -0.267320E+00 -0.239712E+00 -0.928328E-01
   Ionic forces                  :  0.000000E+00  0.000000E+00  0.000000E+00
   Multipole                     : -0.896105E-01 -0.427610E-01 -0.497752E-01
   Pulay + GGA                   :  0.224534E+00  0.910730E-01 -0.242562E-01
   Van der Waals                 : -0.321296E-02  0.632525E-02 -0.132907E-01
   ----------------------------------------------------------------
   Total forces(   5)            : -0.135609E+00 -0.185075E+00 -0.180155E+00
  atom #    6
   Hellmann-Feynman              :  0.191362E+00 -0.152842E+00  0.299558E+00
   Ionic forces                  :  0.000000E+00  0.000000E+00  0.000000E+00
   Multipole                     : -0.163025E+00  0.657195E+00  0.262324E+00
   Pulay + GGA                   :  0.167809E+00 -0.865670E+00 -0.555820E+00
   Van der Waals                 :  0.179372E-03  0.594457E-02 -0.183561E-02
   ----------------------------------------------------------------
   Total forces(   6)            :  0.196325E+00 -0.355372E+00  0.422552E-02
  atom #    7
   Hellmann-Feynman              : -0.242251E+00 -0.572455E-01 -0.365470E-01
   Ionic forces                  :  0.000000E+00  0.000000E+00  0.000000E+00
   Multipole                     : -0.118476E+00  0.496228E-01  0.331931E-01
   Pulay + GGA                   :  0.115016E+00  0.239481E-01  0.251997E-01
   Van der Waals                 : -0.219964E-02  0.523154E-02  0.880544E-02
   ----------------------------------------------------------------
   Total forces(   7)            : -0.247911E+00  0.215569E-01  0.306513E-01
  atom #    8
   Hellmann-Feynman              :  0.308356E-01 -0.918751E-01  0.125093E+00
   Ionic forces                  :  0.000000E+00  0.000000E+00  0.000000E+00
   Multipole                     :  0.167277E-01  0.685358E-01  0.127633E+00
   Pulay + GGA                   : -0.449814E-01 -0.410251E-01 -0.942382E-01
   Van der Waals                 : -0.284526E-02  0.113617E-01  0.141808E-02
   ----------------------------------------------------------------
   Total forces(   8)            : -0.263367E-03 -0.530028E-01  0.159906E+00
  atom #    9
   Hellmann-Feynman              :  0.834924E-01  0.173675E-01 -0.185199E+00
   Ionic forces                  :  0.000000E+00  0.000000E+00  0.000000E+00
   Multipole                     :  0.214449E-01  0.131541E+00 -0.810262E-02
   Pulay + GGA                   : -0.438266E-01 -0.105290E+00  0.208574E-01
   Van der Waals                 : -0.313856E-02  0.197928E-02  0.324333E-02
   ----------------------------------------------------------------
   Total forces(   9)            :  0.579722E-01  0.455976E-01 -0.169201E+00
  atom #   10
   Hellmann-Feynman              :  0.351769E+01  0.493256E+01  0.229264E+01
   Ionic forces                  :  0.000000E+00  0.000000E+00  0.000000E+00
   Multipole                     :  0.164753E-01 -0.134150E-01  0.217201E+00
   Pulay + GGA                   : -0.221138E+01 -0.292779E+01  0.953459E-01
   Van der Waals                 :  0.400715E-02 -0.159899E-01  0.950540E-02
   ----------------------------------------------------------------
   Total forces(  10)            :  0.132679E+01  0.197536E+01  0.261469E+01
  atom #   11
   Hellmann-Feynman              :  0.421689E+01 -0.256435E+01  0.139226E+02
   Ionic forces                  :  0.000000E+00  0.000000E+00  0.000000E+00
   Multipole                     :  0.144380E+00 -0.553265E+00  0.721338E+00
   Pulay + GGA                   : -0.393320E+01  0.385901E+01 -0.134963E+02
   Van der Waals                 : -0.293502E-02 -0.104375E-01  0.639692E-02
   ----------------------------------------------------------------
   Total forces(  11)            :  0.425138E+00  0.730952E+00  0.115399E+01
  atom #   12
   Hellmann-Feynman              : -0.129259E+02 -0.818792E+01  0.103714E+01
   Ionic forces                  :  0.000000E+00  0.000000E+00  0.000000E+00
   Multipole                     : -0.941564E+00 -0.153959E+01 -0.417725E-01
   Pulay + GGA                   :  0.125003E+02  0.717663E+01 -0.309807E+01
   Van der Waals                 : -0.149531E-02 -0.149219E-02  0.118364E-01
   ----------------------------------------------------------------
   Total forces(  12)            : -0.136873E+01 -0.255237E+01 -0.209086E+01
  atom #   13
   Hellmann-Feynman              : -0.545454E+00 -0.436172E+00 -0.143432E+01
   Ionic forces                  :  0.000000E+00  0.000000E+00  0.000000E+00
   Multipole                     :  0.627937E-01 -0.374014E-01 -0.558679E-01
   Pulay + GGA                   : -0.286014E+00  0.852470E-02  0.350472E+00
   Van der Waals                 :  0.124914E-02 -0.598252E-02 -0.203551E-02
   ----------------------------------------------------------------
   Total forces(  13)            : -0.767425E+00 -0.471031E+00 -0.114175E+01

  Timings for VdW correction (Tkatchenko-Scheffler 2009 or later):
  | CPU time:        0.092 s, Wall clock time:        0.094 s.
  Removing unitary transformations (pure translations, rotations) from forces on atoms.
  Atomic forces before filtering:
  | Net force on center of mass :   0.700818E-04 -0.330438E-02 -0.644289E-02 eV/A
  | Net torque on center of mass:   0.522897E-02  0.186359E-02  0.818636E-02 eV
  Atomic forces after filtering:
  | Net force on center of mass :  -0.267609E-15 -0.624421E-15 -0.713624E-15 eV/A
  | Net torque on center of mass:   0.660859E-15  0.767069E-15  0.188817E-15 eV

  Energy and forces in a compact form:
  | Total energy uncorrected      :         -0.880246906363083E+04 eV
  | Total energy corrected        :         -0.880246906363083E+04 eV  <-- do not rely on this value for anything but (periodic) metals
  | Electronic free energy        :         -0.880246906363083E+04 eV
  Total atomic forces (unitary forces cleaned) [eV/Ang]:
  |   1         -0.493531830103366E+00          0.952185711674103E-01         -0.540686569794350E+00
  |   2          0.325474982259025E+00          0.139533557400740E+00         -0.132880990093816E+00
  |   3          0.873781609502885E+00          0.521298982845121E+00          0.620274607953346E+00
  |   4         -0.191511730925651E+00          0.838753068388426E-01         -0.332336285241952E+00
  |   5         -0.135395646192157E+00         -0.184702278195245E+00         -0.179815580536120E+00
  |   6          0.196657127564465E+00         -0.354998594585119E+00          0.450918066722099E-02
  |   7         -0.247572546404716E+00          0.222617047510726E-01          0.307805260079041E-01
  |   8         -0.698119486181696E-04         -0.525934199910828E-01          0.160237976588845E+00
  |   9          0.586445873550333E-01          0.457913224026445E-01         -0.168993251258011E+00
  |  10          0.132635186449068E+01          0.197570868130856E+01          0.261534405783687E+01
  |  11          0.424459464927525E+00          0.731369158240717E+00          0.115472681161271E+01
  |  12         -0.136932800104644E+01         -0.255190800860498E+01         -0.209018515773346E+01
  |  13         -0.767960069478669E+00         -0.470854983578685E+00         -0.114097532600919E+01

  ------------------------------------ 
  Start decomposition of the XC Energy 
  ------------------------------------ 
  X and C from original XC functional choice 
  Hartree-Fock Energy :          0.000000000 Ha              0.000000000 eV
  X Energy            :        -41.040183264 Ha          -1116.760206758 eV
  C Energy            :         -1.601362704 Ha            -43.575296267 eV
  Total XC Energy     :        -42.641545969 Ha          -1160.335503025 eV
  ------------------------------------ 
  LDA X and C from self-consistent density 
  X Energy LDA        :        -37.259620519 Ha          -1013.885860279 eV
  C Energy LDA        :         -3.138871112 Ha            -85.413028721 eV
  ------------------------------------ 
  End decomposition of the XC Energy 
  ------------------------------------ 

------------------------------------------------------------

------------------------------------------------------------------------------
  Final output of selected total energy values:

  The following output summarizes some interesting total energy values
  at the end of a run (AFTER all relaxation, molecular dynamics, etc.).

  | Total energy of the DFT / Hartree-Fock s.c.f. calculation      :          -8802.469063631 eV
  | Final zero-broadening corrected energy (caution - metals only) :          -8802.469063631 eV
  | For reference only, the value of 1 Hartree used in FHI-aims is :             27.211384500 eV

  Before relying on these values, please be sure to understand exactly which
  total energy value is referred to by a given number. Different objects may
  all carry the same name 'total energy'. Definitions:

  Total energy of the DFT / Hartree-Fock s.c.f. calculation:
  | Note that this energy does not include ANY quantities calculated after the
  | s.c.f. cycle, in particular not ANY RPA, MP2, etc. many-body perturbation terms.

  Final zero-broadening corrected energy:
  | For metallic systems only, a broadening of the occupation numbers at the Fermi
  | level can be extrapolated back to zero broadening by an electron-gas inspired
  | formula. For all systems that are not real metals, this value can be
  | meaningless and should be avoided.

------------------------------------------------------------------------------
  Methods described in the following list of references were used in this FHI-aims run.
  If you publish the results, please make sure to cite these reference if they apply.
  FHI-aims is an academic code, and for our developers (often, Ph.D. students
  and postdocs), scientific credit in the community is essential.
  Thank you for helping us!

  For any use of FHI-aims, please cite:

    Volker Blum, Ralf Gehrke, Felix Hanke, Paula Havu, Ville Havu,
    Xinguo Ren, Karsten Reuter, and Matthias Scheffler
    'Ab initio molecular simulations with numeric atom-centered orbitals'
    Computer Physics Communications 180, 2175-2196 (2009)
    http://dx.doi.org/10.1016/j.cpc.2009.06.022


  The scalable eigensolver library ELPA was used in your run.
  ELPA is essential especially for large systems on hundreds or thousands of CPUs.
  For ELPA, please cite:

    Andreas Marek, Volker Blum, Rainer Johanni, Ville Havu, Bruno Lang,
    Thomas Auckenthaler, Alexander Heinecke, Hans-Joachim Bungartz, and Hermann Lederer,
    'The ELPA Library - Scalable Parallel Eigenvalue Solutions
    for Electronic Structure Theory and Computational Science'
    The Journal of Physics: Condensed Matter 26, 213201 (2014).
    http://dx.doi.org/10.1088/0953-8984/26/21/213201


  The ELSI infrastructure was used in your run to solve the Kohn-Sham electronic structure.
  Please check out http://elsi-interchange.org to learn more.
  If scalability is important for your project, please acknowledge ELSI by citing:

    V. W-z. Yu, F. Corsetti, A. Garcia, W. P. Huhn, M. Jacquelin, W. Jia,
    B. Lange, L. Lin, J. Lu, W. Mi, A. Seifitokaldani, A. Vazquez-Mayagoitia,
    C. Yang, H. Yang, and V. Blum
    'ELSI: A unified software interface for Kohn-Sham electronic structure solvers'
    Computer Physics Communications 222, 267-285 (2018).
    http://dx.doi.org/10.1016/j.cpc.2017.09.007


  For the real-space grid partitioning and parallelization used in this calculation, please cite:

    Ville Havu, Volker Blum, Paula Havu, and Matthias Scheffler,
    'Efficient O(N) integration for all-electron electronic structure calculation'
    'using numerically tabulated basis functions'
    Journal of Computational Physics 228, 8367-8379 (2009).
    http://dx.doi.org/10.1016/j.jcp.2009.08.008

  Of course, there are many other important community references, e.g., those cited in the
  above references. Our list is limited to references that describe implementations in the
  FHI-aims code. The reason is purely practical (length of this list) - please credit others as well.

------------------------------------------------------------
          Leaving FHI-aims.
          Date     :  20200710, Time     :  150411.782

          Computational steps:
          | Number of self-consistency cycles          :           16
          | Number of SCF (re)initializations          :            1

          Detailed time accounting                     :  max(cpu_time)    wall_clock(cpu1)
          | Total time                                 :       22.853 s          22.939 s
          | Preparation time                           :        0.150 s           0.152 s
          | Boundary condition initalization           :        0.000 s           0.000 s
          | Grid partitioning                          :        0.113 s           0.113 s
          | Preloading free-atom quantities on grid    :        0.002 s           0.003 s
          | Free-atom superposition energy             :        0.086 s           0.086 s
          | Total time for integrations                :        8.688 s           8.701 s
          | Total time for solution of K.-S. equations :        0.038 s           0.040 s
          | Total time for density & force components  :        7.215 s           7.233 s
          | Total time for mixing                      :        0.221 s           0.226 s
          | Total time for Hartree multipole update    :        0.140 s           0.143 s
          | Total time for Hartree multipole sum       :        5.788 s           5.799 s
          | Total time for total energy evaluation     :        0.003 s           0.002 s
          | Total time for vdW correction              :        0.092 s           0.094 s

          Partial memory accounting:
          | Residual value for overall tracked memory usage across tasks :           0.000 MB (should be 0.000 MB)
          | Peak values for overall tracked memory usage (after allocating hessian_basis_wave):
          |   Minimum:        1.622 MB (on task 1)
          |   Maximum:        1.622 MB (on task 1)
          |   Average:        1.622 MB
          | Largest tracked array allocation (hessian_basis_wave):
          |   Minimum:        0.794 MB (on task 1)
          |   Maximum:        0.794 MB (on task 1)
          |   Average:        0.794 MB
          Note:  These values currently only include a subset of arrays which are explicitly tracked.
          The "true" memory usage will be greater.

          Have a nice day.
------------------------------------------------------------
