  MPI-parallelism will be employed.
------------------------------------------------------------
          Invoking FHI-aims ...
          Version 171221_1
          Compiled on 2019/09/09 at 14:39:39 on host puhti-login2.bullx.

          When using FHI-aims, please cite the following reference:

          Volker Blum, Ralf Gehrke, Felix Hanke, Paula Havu,
          Ville Havu, Xinguo Ren, Karsten Reuter, and Matthias Scheffler,
          'Ab Initio Molecular Simulations with Numeric Atom-Centered Orbitals',
          Computer Physics Communications 180, 2175-2196 (2009)

          For any questions about FHI-aims, please visit the aimsclub website
          with its forums and wiki. Contributions to both the forums and the
          wiki are warmly encouraged - they are for you, and everyone is welcome there.

------------------------------------------------------------



  Date     :  20200710, Time     :  152650.687
  Time zero on CPU 1             :   0.114600000000000E-01  s.
  Internal wall clock time zero  :           363626810.687  s.

  FHI-aims created a unique identifier for this run for later identification
  aims_uuid : B5ED7061-9F80-4EE7-AA15-4D051E5D18C8

  Using        1 parallel tasks.
  Task        0 on host r18c42.bullx reporting.

  Performing system and environment tests:
  | Environment variable OMP_NUM_THREADS correctly set to 1.
  | Stacksize not measured: no C compiler
  | Checking for scalapack...
  | Testing pdtran()...
  | All pdtran() tests passed.

  Obtaining array dimensions for all initial allocations:
  
  -----------------------------------------------------------------------
  Parsing control.in (first pass over file, find array dimensions only).
  The contents of control.in will be repeated verbatim below
  unless switched off by setting 'verbatim_writeout .false.' .
  in the first line of control.in .
  -----------------------------------------------------------------------
  
  #########################################################################################
  #
  #  Volker Blum, FHI 2009 : Test run input file control.in for simple H2O
  #
  #########################################################################################
  #
  #  Physical model
  #
    xc                 pbe
    vdw_correction_hirshfeld
    spin               none
    relativistic       none
    charge             0.
  #
  #  SCF convergence
  #
    occupation_type    gaussian 0.01
    mixer              pulay
      n_max_pulay        10
      charge_mix_param   0.2
    sc_accuracy_rho    1E-5
    sc_accuracy_eev    1E-3
    sc_accuracy_etot   1E-6
    sc_accuracy_forces 1E-4
    sc_iter_limit      100
  #
  #  Relaxation
  #
  #  relax_geometry   bfgs 1.e-3
  #
  ################################################################################
  #
  #  FHI-aims code project
  #  VB, Fritz-Haber Institut, 2009
  #
  #  Suggested "light" defaults for H atom (to be pasted into control.in file)
  #  Be sure to double-check any results obtained with these settings for post-processing,
  #  e.g., with the "tight" defaults and larger basis sets.
  #
  ################################################################################
    species        H
  #     global species definitions
      nucleus             1
      mass                1.00794
  #
      l_hartree           4
  #
      cut_pot             3.5  1.5  1.0
      basis_dep_cutoff    1e-4
  #
      radial_base         24 5.0
      radial_multiplier   1
      angular_grids       specified
        division   0.2421   50
        division   0.3822  110
        division   0.4799  194
        division   0.5341  302
  #      division   0.5626  434
  #      division   0.5922  590
  #      division   0.6542  770
  #      division   0.6868 1202
  #      outer_grid  770
        outer_grid  302
  ################################################################################
  #
  #  Definition of "minimal" basis
  #
  ################################################################################
  #     valence basis states
      valence      1  s   1.
  #     ion occupancy
      ion_occ      1  s   0.5
  ################################################################################
  #
  #  Suggested additional basis functions. For production calculations,
  #  uncomment them one after another (the most important basis functions are
  #  listed first).
  #
  #  Basis constructed for dimers: 0.5 A, 0.7 A, 1.0 A, 1.5 A, 2.5 A
  #
  ################################################################################
  #  "First tier" - improvements: -1014.90 meV to -62.69 meV
       hydro 2 s 2.1
       hydro 2 p 3.5
  #  "Second tier" - improvements: -12.89 meV to -1.83 meV
  #     hydro 1 s 0.85
  #     hydro 2 p 3.7
  #     hydro 2 s 1.2
  #     hydro 3 d 7
  #  "Third tier" - improvements: -0.25 meV to -0.12 meV
  #     hydro 4 f 11.2
  #     hydro 3 p 4.8
  #     hydro 4 d 9
  #     hydro 3 s 3.2
  ################################################################################
  #
  #  FHI-aims code project
  #  VB, Fritz-Haber Institut, 2009
  #
  #  Suggested "light" defaults for C atom (to be pasted into control.in file)
  #  Be sure to double-check any results obtained with these settings for post-processing,
  #  e.g., with the "tight" defaults and larger basis sets.
  #
  ################################################################################
    species        C
  #     global species definitions
      nucleus             6
      mass                12.0107
  #
      l_hartree           4
  #
      cut_pot             3.5  1.5  1.0
      basis_dep_cutoff    1e-4
  #
      radial_base         34 5.0
      radial_multiplier   1
      angular_grids specified
        division   0.3326   50
        division   0.5710  110
        division   0.7727  194
        division   0.8772  302
  #      division   0.9334  434
  #      division   0.9625  590
  #      division   0.9924  770
  #      division   1.0230  974
  #      division   1.4589 1202
  #     outer_grid  974
       outer_grid 302
  ################################################################################
  #
  #  Definition of "minimal" basis
  #
  ################################################################################
  #     valence basis states
      valence      2  s   2.
      valence      2  p   2.
  #     ion occupancy
      ion_occ      2  s   1.
      ion_occ      2  p   1.
  ################################################################################
  #
  #  Suggested additional basis functions. For production calculations,
  #  uncomment them one after another (the most important basis functions are
  #  listed first).
  #
  #  Constructed for dimers: 1.0 A, 1.25 A, 1.5 A, 2.0 A, 3.0 A
  #
  ################################################################################
  #  "First tier" - improvements: -1214.57 meV to -155.61 meV
       hydro 2 p 1.7
       hydro 3 d 6
       hydro 2 s 4.9
  #  "Second tier" - improvements: -67.75 meV to -5.23 meV
  #     hydro 4 f 9.8
  #     hydro 3 p 5.2
  #     hydro 3 s 4.3
  #     hydro 5 g 14.4
  #     hydro 3 d 6.2
  #  "Third tier" - improvements: -2.43 meV to -0.60 meV
  #     hydro 2 p 5.6
  #     hydro 2 s 1.4
  #     hydro 3 d 4.9
  #     hydro 4 f 11.2
  #  "Fourth tier" - improvements: -0.39 meV to -0.18 meV
  #     hydro 2 p 2.1
  #     hydro 5 g 16.4
  #     hydro 4 d 13.2
  #     hydro 3 s 13.6
  #     hydro 4 f 17.6
  #  Further basis functions - improvements: -0.08 meV and below
  #     hydro 3 s 2
  #     hydro 3 p 6
  #     hydro 4 d 20
  ################################################################################
  #
  #  FHI-aims code project
  #  VB, Fritz-Haber Institut, 2009
  #
  #  Suggested "light" defaults for N atom (to be pasted into control.in file)
  #  Be sure to double-check any results obtained with these settings for post-processing,
  #  e.g., with the "tight" defaults and larger basis sets.
  #
  ################################################################################
    species        N
  #     global species definitions
      nucleus             7
      mass                14.0067
  #
      l_hartree           4
  #
      cut_pot             3.5  1.5  1.0
      basis_dep_cutoff    1e-4
  #
      radial_base         35 5.0
      radial_multiplier   1
      angular_grids       specified
        division   0.2599   50
        division   0.4601  110
        division   0.5885  194
        division   0.6503  302
  #      division   0.6939  434
  #      division   0.7396  590
  #      division   0.7632  770
  #      division   0.8122  974
  #      division   1.1604 1202
  #      outer_grid  974
        outer_grid  302
  ################################################################################
  #
  #  Definition of "minimal" basis
  #
  ################################################################################
  #     valence basis states
      valence      2  s   2.
      valence      2  p   3.
  #     ion occupancy
      ion_occ      2  s   1.
      ion_occ      2  p   2.
  ################################################################################
  #
  #  Suggested additional basis functions. For production calculations,
  #  uncomment them one after another (the most important basis functions are
  #  listed first).
  #
  #  Constructed for dimers: 1.0 A, 1.1 A, 1.5 A, 2.0 A, 3.0 A
  #
  ################################################################################
  #  "First tier" - improvements: -1193.42 meV to -220.60 meV
       hydro 2 p 1.8
       hydro 3 d 6.8
       hydro 3 s 5.8
  #  "Second tier" - improvements: -80.21 meV to -6.86 meV
  #     hydro 4 f 10.8
  #     hydro 3 p 5.8
  #     hydro 1 s 0.8
  #     hydro 5 g 16
  #     hydro 3 d 4.9
  #  "Third tier" - improvements: -4.29 meV to -0.53 meV
  #     hydro 3 s 16
  #     ionic 2 p auto
  #     hydro 3 d 6.6
  #     hydro 4 f 11.6
  #  "Fourth tier" - improvements: -0.75 meV to -0.25 meV
  #     hydro 2 p 4.5
  #     hydro 2 s 2.4
  #     hydro 5 g 14.4
  #     hydro 4 d 14.4
  #     hydro 4 f 16.8
  # Further basis functions - -0.21 meV and below
  #     hydro 3 p 14.8
  #     hydro 3 s 4.4
  #     hydro 3 d 19.6
  #     hydro 5 g 12.8
  ################################################################################
  #
  #  FHI-aims code project
  #  VB, Fritz-Haber Institut, 2009
  #
  #  Suggested "light" defaults for O atom (to be pasted into control.in file)
  #  Be sure to double-check any results obtained with these settings for post-processing,
  #  e.g., with the "tight" defaults and larger basis sets.
  #
  ################################################################################
    species        O
  #     global species definitions
      nucleus             8
      mass                15.9994
  #
      l_hartree           4
  #
      cut_pot             3.5  1.5  1.0
      basis_dep_cutoff    1e-4
  #
      radial_base         36 5.0
      radial_multiplier   1
       angular_grids specified
        division   0.2659   50
        division   0.4451  110
        division   0.6052  194
        division   0.7543  302
  #      division   0.8014  434
  #      division   0.8507  590
  #      division   0.8762  770
  #      division   0.9023  974
  #      division   1.2339 1202
  #      outer_grid 974
        outer_grid 302
  ################################################################################
  #
  #  Definition of "minimal" basis
  #
  ################################################################################
  #     valence basis states
      valence      2  s   2.
      valence      2  p   4.
  #     ion occupancy
      ion_occ      2  s   1.
      ion_occ      2  p   3.
  ################################################################################
  #
  #  Suggested additional basis functions. For production calculations,
  #  uncomment them one after another (the most important basis functions are
  #  listed first).
  #
  #  Constructed for dimers: 1.0 A, 1.208 A, 1.5 A, 2.0 A, 3.0 A
  #
  ################################################################################
  #  "First tier" - improvements: -699.05 meV to -159.38 meV
       hydro 2 p 1.8
       hydro 3 d 7.6
       hydro 3 s 6.4
  #  "Second tier" - improvements: -49.91 meV to -5.39 meV
  #     hydro 4 f 11.6
  #     hydro 3 p 6.2
  #     hydro 3 d 5.6
  #     hydro 5 g 17.6
  #     hydro 1 s 0.75
  #  "Third tier" - improvements: -2.83 meV to -0.50 meV
  #     ionic 2 p auto
  #     hydro 4 f 10.8
  #     hydro 4 d 4.7
  #     hydro 2 s 6.8
  #  "Fourth tier" - improvements: -0.40 meV to -0.12 meV
  #     hydro 3 p 5
  #     hydro 3 s 3.3
  #     hydro 5 g 15.6
  #     hydro 4 f 17.6
  #     hydro 4 d 14
  # Further basis functions - -0.08 meV and below
  #     hydro 3 s 2.1
  #     hydro 4 d 11.6
  #     hydro 3 p 16
  #     hydro 2 s 17.2
  
  -----------------------------------------------------------------------
  Completed first pass over input file control.in .
  -----------------------------------------------------------------------
  
  
  -----------------------------------------------------------------------
  Parsing geometry.in (first pass over file, find array dimensions only).
  The contents of geometry.in will be repeated verbatim below
  unless switched off by setting 'verbatim_writeout .false.' .
  in the first line of geometry.in .
  -----------------------------------------------------------------------
  
  atom  0.00000 0.00000 0.00000 C
  atom  1.09300 0.00000 0.00000 H
  atom  -0.47961 0.00000 -1.41207 N
  atom  -0.09208 -0.81490 -1.88913 H
  atom  -1.49660 -0.04307 -1.41185 H
  atom  -0.49584 1.26211 0.72868 C
  atom  -1.58789 1.28919 0.74431 H
  atom  -0.13407 1.27425 1.75947 H
  atom  -0.13407 2.16087 0.22380 H
  atom  -0.39425 -1.28861 0.74398 C
  atom  -0.10189 -1.56493 1.88303 O
  atom  -1.10210 -2.13717 0.06896 O
  atom  -1.62808 -2.49829 0.80239 H
  
  -----------------------------------------------------------------------
  Completed first pass over input file geometry.in .
  -----------------------------------------------------------------------
  

  Basic array size parameters:
  | Number of species                 :        4
  | Number of atoms                   :       13
  | Max. basis fn. angular momentum   :        2
  | Max. atomic/ionic basis occupied n:        2
  | Max. number of basis fn. types    :        2
  | Max. radial fns per species/type  :        3
  | Max. logarithmic grid size        :     1301
  | Max. radial integration grid size :       36
  | Max. angular integration grid size:      302
  | Max. angular grid division number :        8
  | Radial grid for Hartree potential :     1301
  | Number of spin channels           :        1

------------------------------------------------------------
          Reading file control.in.
------------------------------------------------------------
  XC: Using PBE gradient-corrected functionals.
  Spin treatment: No spin polarisation.
  Non-relativistic treatment of kinetic energy.
  Charge =   0.000000E+00: Neutral system requested explicitly.
  Occupation type: Gaussian broadening, width =   0.100000E-01 eV.
  Using pulay charge density mixing.
  Pulay mixing - number of memorized iterations:   10
  Charge density mixing - mixing parameter:     0.2000
  Convergence accuracy of self-consistent charge density:  0.1000E-04
  Convergence accuracy of sum of eigenvalues:  0.1000E-02
  Convergence accuracy of total energy:  0.1000E-05
  Convergence accuracy of forces:  0.1000E-03
  Maximum number of s.-c. iterations  :   100
 
  Reading configuration options for species H                   .
  | Found nuclear charge :   1.0000
  | Found atomic mass :    1.00794000000000      amu
  | Found l_max for Hartree potential  :   4
  | Found cutoff potl. onset [A], width [A], scale factor :    3.50000    1.50000    1.00000
  | Threshold for basis-dependent cutoff potential is   0.100000E-03
  | Found data for basic radial integration grid :    24 points, outermost radius =    5.000 A
  | Found multiplier for basic radial grid :   1
  | Found angular grid specification: user-specified.
  | Specified grid contains     5 separate shells.
  | Check grid settings after all constraints further below.
  | Found free-atom valence shell :  1 s   1.000
  | No ionic wave fns used. Skipping ion_occ.
  | Found hydrogenic basis function :  2 s   2.100
  | Found hydrogenic basis function :  2 p   3.500
  Species H                   : Missing cutoff potential type.
  Defaulting to exp(1/x)/(1-x)^2 type cutoff potential.
  Species H : No 'logarithmic' tag. Using default grid for free atom:
  | Default logarithmic grid data [bohr] : 0.1000E-03 0.1000E+03 0.1012E+01
  Species H : On-site basis accuracy parameter (for Gram-Schmidt orthonormalisation) not specified.
  Using default value basis_acc =  0.1000000E-03.
  Species H                   : Using default innermost maximum threshold i_radial=  2 for radial functions.
  Species H                   : Default cutoff onset for free atom density etc. : 0.35000000E+01 AA.
  Species H                   : Basic radial grid will be enhanced according to radial_multiplier =   1, to contain    24 grid points.
 
  Reading configuration options for species C                   .
  | Found nuclear charge :   6.0000
  | Found atomic mass :    12.0107000000000      amu
  | Found l_max for Hartree potential  :   4
  | Found cutoff potl. onset [A], width [A], scale factor :    3.50000    1.50000    1.00000
  | Threshold for basis-dependent cutoff potential is   0.100000E-03
  | Found data for basic radial integration grid :    34 points, outermost radius =    5.000 A
  | Found multiplier for basic radial grid :   1
  | Found angular grid specification: user-specified.
  | Specified grid contains     5 separate shells.
  | Check grid settings after all constraints further below.
  | Found free-atom valence shell :  2 s   2.000
  | Found free-atom valence shell :  2 p   2.000
  | No ionic wave fns used. Skipping ion_occ.
  | No ionic wave fns used. Skipping ion_occ.
  | Found hydrogenic basis function :  2 p   1.700
  | Found hydrogenic basis function :  3 d   6.000
  | Found hydrogenic basis function :  2 s   4.900
  Species C                   : Missing cutoff potential type.
  Defaulting to exp(1/x)/(1-x)^2 type cutoff potential.
  Species C : No 'logarithmic' tag. Using default grid for free atom:
  | Default logarithmic grid data [bohr] : 0.1000E-03 0.1000E+03 0.1012E+01
  Species C : On-site basis accuracy parameter (for Gram-Schmidt orthonormalisation) not specified.
  Using default value basis_acc =  0.1000000E-03.
  Species C                   : Using default innermost maximum threshold i_radial=  2 for radial functions.
  Species C                   : Default cutoff onset for free atom density etc. : 0.35000000E+01 AA.
  Species C                   : Basic radial grid will be enhanced according to radial_multiplier =   1, to contain    34 grid points.
 
  Reading configuration options for species N                   .
  | Found nuclear charge :   7.0000
  | Found atomic mass :    14.0067000000000      amu
  | Found l_max for Hartree potential  :   4
  | Found cutoff potl. onset [A], width [A], scale factor :    3.50000    1.50000    1.00000
  | Threshold for basis-dependent cutoff potential is   0.100000E-03
  | Found data for basic radial integration grid :    35 points, outermost radius =    5.000 A
  | Found multiplier for basic radial grid :   1
  | Found angular grid specification: user-specified.
  | Specified grid contains     5 separate shells.
  | Check grid settings after all constraints further below.
  | Found free-atom valence shell :  2 s   2.000
  | Found free-atom valence shell :  2 p   3.000
  | No ionic wave fns used. Skipping ion_occ.
  | No ionic wave fns used. Skipping ion_occ.
  | Found hydrogenic basis function :  2 p   1.800
  | Found hydrogenic basis function :  3 d   6.800
  | Found hydrogenic basis function :  3 s   5.800
  Species N                   : Missing cutoff potential type.
  Defaulting to exp(1/x)/(1-x)^2 type cutoff potential.
  Species N : No 'logarithmic' tag. Using default grid for free atom:
  | Default logarithmic grid data [bohr] : 0.1000E-03 0.1000E+03 0.1012E+01
  Species N : On-site basis accuracy parameter (for Gram-Schmidt orthonormalisation) not specified.
  Using default value basis_acc =  0.1000000E-03.
  Species N                   : Using default innermost maximum threshold i_radial=  2 for radial functions.
  Species N                   : Default cutoff onset for free atom density etc. : 0.35000000E+01 AA.
  Species N                   : Basic radial grid will be enhanced according to radial_multiplier =   1, to contain    35 grid points.
 
  Reading configuration options for species O                   .
  | Found nuclear charge :   8.0000
  | Found atomic mass :    15.9994000000000      amu
  | Found l_max for Hartree potential  :   4
  | Found cutoff potl. onset [A], width [A], scale factor :    3.50000    1.50000    1.00000
  | Threshold for basis-dependent cutoff potential is   0.100000E-03
  | Found data for basic radial integration grid :    36 points, outermost radius =    5.000 A
  | Found multiplier for basic radial grid :   1
  | Found angular grid specification: user-specified.
  | Specified grid contains     5 separate shells.
  | Check grid settings after all constraints further below.
  | Found free-atom valence shell :  2 s   2.000
  | Found free-atom valence shell :  2 p   4.000
  | No ionic wave fns used. Skipping ion_occ.
  | No ionic wave fns used. Skipping ion_occ.
  | Found hydrogenic basis function :  2 p   1.800
  | Found hydrogenic basis function :  3 d   7.600
  | Found hydrogenic basis function :  3 s   6.400
  Species O                   : Missing cutoff potential type.
  Defaulting to exp(1/x)/(1-x)^2 type cutoff potential.
  Species O : No 'logarithmic' tag. Using default grid for free atom:
  | Default logarithmic grid data [bohr] : 0.1000E-03 0.1000E+03 0.1012E+01
  Species O : On-site basis accuracy parameter (for Gram-Schmidt orthonormalisation) not specified.
  Using default value basis_acc =  0.1000000E-03.
  Species O                   : Using default innermost maximum threshold i_radial=  2 for radial functions.
  Species O                   : Default cutoff onset for free atom density etc. : 0.35000000E+01 AA.
  Species O                   : Basic radial grid will be enhanced according to radial_multiplier =   1, to contain    36 grid points.
 
  Finished reading input file 'control.in'. Consistency checks are next.
 
  MPI_IN_PLACE appears to work with this MPI implementation.
  | Keeping use_mpi_in_place .true. (see manual).
  Target number of points in a grid batch is not set. Defaulting to  100
  Method for grid partitioning is not set. Defaulting to parallel hash+maxmin partitioning.
  Batch size limit is not set. Defaulting to    200
  By default, will store active basis functions for each batch.
  If in need of memory, prune_basis_once .false. can be used to disable this option.
  communication_type for Hartree potential was not specified.
  Defaulting to calc_hartree .
  Pulay mixer: Number of initial linear mixing iterations not set.
  Defaulting to    0 iterations.
  Work space size for distributed Hartree potential not set.
  Defaulting to   0.200000E+03 MB.
  Algorithm-dependent basis array size parameters:
  | n_max_pulay                         :       10
  Presetting      1001 iterations before the initial mixing cycle
  is restarted anyway using the sc_init_iter criterion / keyword.
  Presetting a factor      1.000 between actual scf density residual
  and density convergence criterion sc_accuracy_rho below which sc_init_iter
  takes no effect.
  Geometry relaxation not requested: no relaxation will be performed.
  Handling of forces: Unphysical translation and rotation will be removed from forces.
  No accuracy limit for integral partition fn. given. Defaulting to  0.1000E-14.
  No threshold value for u(r) in integrations given. Defaulting to  0.1000E-05.
  No accuracy for occupation numbers given. Defaulting to  0.1000E-12.
  No threshold value for occupation numbers given. Defaulting to  0.0000E+00.
  No accuracy for fermi level given. Defaulting to  0.1000E-19.
  Maximum # of iterations to find E_F not set. Defaulting to  200.
  Preferred method for the eigenvalue solver ('KS_method') not specified in 'control.in'.
  Defaulting to serial version, 'lapack_fast'.
  Will not use alltoall communication since running on < 1024 CPUs.
  Threshold for basis singularities not set.
  Default threshold for basis singularities:  0.1000E-04
  partition_type (choice of integration weights) for integrals was not specified.
  | Using a version of the partition function of Stratmann and coworkers ('stratmann_smoother').
  | At each grid point, the set of atoms used to build the partition table is smoothly restricted to
  | only those atoms whose free-atom density would be non-zero at that grid point.
  Partitioning for Hartree potential was not defined. Using partition_type for integrals.
  | Adjusted default value of keyword multip_moments_threshold to:       0.10000000E-11
  | This value may affect high angular momentum components of the Hartree potential in periodic systems.
  No q(lm)/r^(l+1) cutoff set for long-range Hartree potential.
  | Using default value of  0.100000E-09 .
  | Verify using the multipole_threshold keyword.
  Defaulting to new monopole extrapolation.
  Density update method: automatic selection selected.
------------------------------------------------------------


------------------------------------------------------------
          Reading geometry description geometry.in.
------------------------------------------------------------
  Input structure read successfully.
  The structure contains       13 atoms,  and a total of         48.000 electrons.

  Input geometry:
  | No unit cell requested.
  | Atomic structure:
  |       Atom                x [A]            y [A]            z [A]
  |    1: Species C             0.00000000        0.00000000        0.00000000
  |    2: Species H             1.09300000        0.00000000        0.00000000
  |    3: Species N            -0.47961000        0.00000000       -1.41207000
  |    4: Species H            -0.09208000       -0.81490000       -1.88913000
  |    5: Species H            -1.49660000       -0.04307000       -1.41185000
  |    6: Species C            -0.49584000        1.26211000        0.72868000
  |    7: Species H            -1.58789000        1.28919000        0.74431000
  |    8: Species H            -0.13407000        1.27425000        1.75947000
  |    9: Species H            -0.13407000        2.16087000        0.22380000
  |   10: Species C            -0.39425000       -1.28861000        0.74398000
  |   11: Species O            -0.10189000       -1.56493000        1.88303000
  |   12: Species O            -1.10210000       -2.13717000        0.06896000
  |   13: Species H            -1.62808000       -2.49829000        0.80239000
  |

  | The smallest distance between any two atoms is         0.97210194 AA.
  |
  | The first atom of this pair is atom number                     12 .
  | The second atom of this pair is atom number                    13 .

  Number of empty states per atom not set in control.in - providing a guess from actual geometry.
  | Total number of empty states used during s.c.f. cycle:       29
  If you use a very high smearing, use empty_states (per atom!) in control.in to increase this value.

  Structure-dependent array size parameters: 
  | Maximum number of distinct radial functions  :       21
  | Maximum number of basis functions            :      119
  | Number of Kohn-Sham states (occupied + empty):       53
------------------------------------------------------------

------------------------------------------------------------
          Preparing all fixed parts of the calculation.
------------------------------------------------------------
  Determining machine precision:
    2.225073858507201E-308
  Setting up grids for atomic and cluster calculations.

  Creating wave function, potential, and density for free atoms.

  Species: H

  List of occupied orbitals and eigenvalues:
    n    l              occ      energy [Ha]    energy [eV]
    1    0           1.0000        -0.237589        -6.4651


  Species: C

  List of occupied orbitals and eigenvalues:
    n    l              occ      energy [Ha]    energy [eV]
    1    0           2.0000       -10.038835      -273.1706
    2    0           2.0000        -0.502696       -13.6791
    2    1           2.0000        -0.191971        -5.2238


  Species: N

  List of occupied orbitals and eigenvalues:
    n    l              occ      energy [Ha]    energy [eV]
    1    0           2.0000       -14.128000      -384.4424
    2    0           2.0000        -0.681077       -18.5330
    2    1           3.0000        -0.259788        -7.0692


  Species: O

  List of occupied orbitals and eigenvalues:
    n    l              occ      energy [Ha]    energy [eV]
    1    0           2.0000       -18.898188      -514.2459
    2    0           2.0000        -0.878505       -23.9053
    2    1           4.0000        -0.331779        -9.0282

  Creating fixed part of basis set: Ionic, confined, hydrogenic.
 
  H                    hydrogenic:
 
  List of hydrogenic basis orbitals: 
    n    l      effective z      eigenvalue [eV]  inner max. [A]     outer max. [A]     outer radius [A]   
    2    0         2.100000       -14.9728           0.193243           1.317208           4.583499
    2    1         3.500000       -41.6669           0.602369           0.602369           3.723403
 
 
  C                    hydrogenic:
 
  List of hydrogenic basis orbitals: 
    n    l      effective z      eigenvalue [eV]  inner max. [A]     outer max. [A]     outer radius [A]   
    2    1         1.700000        -9.7616           1.230570           1.230570           4.607917
    3    2         6.000000       -54.4224           0.792453           0.792453           3.883070
    2    0         4.900000       -81.6679           0.082559           0.562749           3.078220
 
 
  N                    hydrogenic:
 
  List of hydrogenic basis orbitals: 
    n    l      effective z      eigenvalue [eV]  inner max. [A]     outer max. [A]     outer radius [A]   
    2    1         1.800000       -10.9749           1.177451           1.177451           4.573712
    3    2         6.800000       -69.9026           0.704619           0.704619           3.538137
    3    0         5.800000       -50.8545           0.067388           1.191934           4.250239
 
 
  O                    hydrogenic:
 
  List of hydrogenic basis orbitals: 
    n    l      effective z      eigenvalue [eV]  inner max. [A]     outer max. [A]     outer radius [A]   
    2    1         1.800000       -10.9749           1.164242           1.164242           4.578029
    3    2         7.600000       -87.3180           0.624125           0.624125           3.251020
    3    0         6.400000       -61.9207           0.061167           1.081902           4.001998
 

  Adding cutoff potential to free-atom effective potential.
  Creating atomic-like basis functions for current effective potential.

  Species H                   :

  List of atomic basis orbitals and eigenvalues:
    n    l      energy [Ha]    energy [eV]    outer radius [A]
    1    0        -0.237589        -6.4651       4.527807


  Species C                   :

  List of atomic basis orbitals and eigenvalues:
    n    l      energy [Ha]    energy [eV]    outer radius [A]
    1    0       -10.038835      -273.1706       1.934409
    2    0        -0.502696       -13.6791       4.496620
    2    1        -0.191971        -5.2238       4.551928


  Species N                   :

  List of atomic basis orbitals and eigenvalues:
    n    l      energy [Ha]    energy [eV]    outer radius [A]
    1    0       -14.128000      -384.4424       1.637919
    2    0        -0.681077       -18.5330       4.463241
    2    1        -0.259788        -7.0692       4.518138


  Species O                   :

  List of atomic basis orbitals and eigenvalues:
    n    l      energy [Ha]    energy [eV]    outer radius [A]
    1    0       -18.898188      -514.2459       1.415765
    2    0        -0.878505       -23.9053       4.413171
    2    1        -0.331779        -9.0282       4.522403

  Assembling full basis from fixed parts.
  | Species H :   atomic orbital   1 s accepted.
  | Species H :    hydro orbital   2 s accepted.
  | Species H :    hydro orbital   2 p accepted.
  | Species C :   atomic orbital   1 s accepted.
  | Species C :    hydro orbital   2 s accepted.
  | Species C :   atomic orbital   2 s accepted.
  | Species C :   atomic orbital   2 p accepted.
  | Species C :    hydro orbital   2 p accepted.
  | Species C :    hydro orbital   3 d accepted.
  | Species N :   atomic orbital   1 s accepted.
  | Species N :    hydro orbital   3 s accepted.
  | Species N :   atomic orbital   2 s accepted.
  | Species N :   atomic orbital   2 p accepted.
  | Species N :    hydro orbital   2 p accepted.
  | Species N :    hydro orbital   3 d accepted.
  | Species O :   atomic orbital   1 s accepted.
  | Species O :    hydro orbital   3 s accepted.
  | Species O :   atomic orbital   2 s accepted.
  | Species O :   atomic orbital   2 p accepted.
  | Species O :    hydro orbital   2 p accepted.
  | Species O :    hydro orbital   3 d accepted.
 
  Basis size parameters after reduction:
  | Total number of radial functions:       21
  | Total number of basis functions :      119
 
  Per-task memory consumption for arrays in subroutine allocate_ext:
  |           5.250512MB.
  Testing on-site integration grid accuracy.
  |  Species  Function  <phi|h_atom|phi> (log., in eV)  <phi|h_atom|phi> (rad., in eV)
           1        1                 -6.4663192853                 -6.4651273558
           1        2                 13.7111246313                 13.7170609718
           1        3                 25.2673269279                 25.2674696378
           2        4               -273.1705927641               -273.1705631568
           2        5                -10.7109323383                -10.7107120029
           2        6                 17.4381822266                 17.4352413244
           2        7                 -5.2255326521                 -5.2270484734
           2        8                  8.6835629259                  8.6603288385
           2        9                 27.4952418996                 27.4953360207
           3       10               -384.4424306495               -384.4423701208
           3       11                 12.5842251816                 12.5842222903
           3       12                -15.7264628251                -15.7264433455
           3       13                 -7.0696854293                 -7.0701769954
           3       14                  8.8090390882                  8.7901077751
           3       15                 35.9586762123                 35.9588528632
           4       16               -514.2458688638               -514.2457643834
           4       17                 15.1795651126                 15.1795290741
           4       18                -21.5359799773                -21.5360846186
           4       19                 -9.0283069236                 -9.0284644067
           4       20                  8.3027758564                  8.2834874195
           4       21                 45.8339351984                 45.8338762259

  Preparing densities etc. for the partition functions (integrals / Hartree potential).

  Preparations completed.
  max(cpu_time)          :      0.146 s.
  Wall clock time (cpu1) :      0.147 s.
------------------------------------------------------------

------------------------------------------------------------
          Begin self-consistency loop: Initialization.

          Date     :  20200710, Time     :  152650.847
------------------------------------------------------------

  Initializing index lists of integration centers etc. from given atomic structure:
  | Number of centers in hartree potential         :        13
  | Number of centers in hartree multipole         :        13
  | Number of centers in electron density summation:        13
  | Number of centers in basis integrals           :        13
  | Number of centers in integrals                 :        13
  | Number of centers in hamiltonian               :        13
  Partitioning the integration grid into batches with parallel hashing+maxmin method.
  | Number of batches:      959
  | Maximal batch size:     139
  | Minimal batch size:      66
  | Average batch size:      72.624
  | Standard deviation of batch sizes:      17.136

  Integration load balanced across     1 MPI tasks.
  Work distribution over tasks is as follows:
  Task     0 has      69646 integration points.
  Initializing partition tables, free-atom densities, potentials, etc. across the integration grid (initialize_grid_storage).
  | initialize_grid_storage: Actual outermost partition radius vs. multipole_radius_free
  | (-- VB: in principle, multipole_radius_free should be larger, hence this output)
  | Species        1: Confinement radius =              4.999999999999999 AA, multipole_radius_free =              5.054417573612229 AA.
  | Species        1: outer_partition_radius set to              5.054417573612229 AA .
  | Species        2: Confinement radius =              4.999999999999999 AA, multipole_radius_free =              5.019602836301480 AA.
  | Species        2: outer_partition_radius set to              5.019602836301480 AA .
  | Species        3: Confinement radius =              4.999999999999999 AA, multipole_radius_free =              5.043624274424571 AA.
  | Species        3: outer_partition_radius set to              5.043624274424571 AA .
  | Species        4: Confinement radius =              4.999999999999999 AA, multipole_radius_free =              5.048384829883283 AA.
  | Species        4: outer_partition_radius set to              5.048384829883283 AA .
  | Original list of interatomic distances with          13 x         13 entries is created.
  | Net number of integration points:    69646
  | of which are non-zero points    :    59532
  Renormalizing the initial density to the exact electron count on the 3D integration grid.
  | Initial density: Formal number of electrons (from input files) :      48.0000000000
  | Integrated number of electrons on 3D grid     :      47.9999536150
  | Charge integration error                      :      -0.0000463850
  | Normalization factor for density and gradient :       1.0000009664
  Obtaining max. number of non-zero basis functions in each batch (get_n_compute_maxes).
  | Maximal number of non-zero basis functions:      119 in task     0
  Selecting the method for density update.
  Loop over occupied states selected for charge density update.
  Allocating        0.050 MB for KS_eigenvector
  Integrating Hamiltonian matrix: batch-based integration.
  Time summed over all CPUs for integration: real work        0.494 s, elapsed        0.494 s
  Integrating overlap matrix.
  Time summed over all CPUs for integration: real work        0.219 s, elapsed        0.219 s

  Updating Kohn-Sham eigenvalues and eigenvectors using ELSI and the ELPA eigensolver.
  Overlap matrix is nonsingular
  | Lowest eigenvalue of overlap  :  0.57E-02
  | Highest eigenvalue of overlap :  0.61E+01
  Finished singularity check of overlap matrix
  | Time :     0.002 s
  Finished Cholesky decomposition
  | Time :     0.000 s
  Finished transformation to standard eigenproblem
  | Time :     0.000 s
  Starting LAPACK eigensolver
  Finished solving standard eigenproblem
  | Time :     0.002 s
  Finished back-transformation of eigenvectors
  | Time :     0.000 s

  Obtaining occupation numbers and chemical potential using ELSI.
  | Chemical potential (Fermi level):    -8.52180050eV
  Writing Kohn-Sham eigenvalues.

  State    Occupation    Eigenvalue [Ha]    Eigenvalue [eV]
      1       2.00000         -19.007798         -517.22850
      2       2.00000         -18.978055         -516.41915
      3       2.00000         -14.245789         -387.64764
      4       2.00000         -10.166664         -276.64899
      5       2.00000         -10.141241         -275.95720
      6       2.00000         -10.132062         -275.70743
      7       2.00000          -1.187471          -32.31272
      8       2.00000          -1.093719          -29.76161
      9       2.00000          -0.991256          -26.97346
     10       2.00000          -0.860987          -23.42866
     11       2.00000          -0.758837          -20.64902
     12       2.00000          -0.680832          -18.52637
     13       2.00000          -0.620525          -16.88533
     14       2.00000          -0.611739          -16.64628
     15       2.00000          -0.594040          -16.16466
     16       2.00000          -0.564255          -15.35417
     17       2.00000          -0.548828          -14.93436
     18       2.00000          -0.520929          -14.17519
     19       2.00000          -0.515104          -14.01669
     20       2.00000          -0.503702          -13.70642
     21       2.00000          -0.467034          -12.70863
     22       2.00000          -0.430717          -11.72040
     23       2.00000          -0.422963          -11.50941
     24       2.00000          -0.377600          -10.27503
     25       0.00000          -0.154006           -4.19072
     26       0.00000          -0.059323           -1.61427
     27       0.00000          -0.028345           -0.77132
     28       0.00000          -0.013887           -0.37790
     29       0.00000          -0.003825           -0.10409
     30       0.00000           0.012112            0.32958
     31       0.00000           0.014519            0.39508
     32       0.00000           0.030001            0.81637
     33       0.00000           0.044973            1.22377
     34       0.00000           0.061282            1.66755
     35       0.00000           0.084881            2.30974
     36       0.00000           0.135050            3.67491
     37       0.00000           0.151882            4.13292
     38       0.00000           0.198381            5.39822
     39       0.00000           0.211260            5.74869
     40       0.00000           0.233558            6.35544
     41       0.00000           0.257461            7.00588
     42       0.00000           0.274009            7.45617
     43       0.00000           0.279842            7.61489
     44       0.00000           0.310931            8.46086
     45       0.00000           0.336906            9.16768
     46       0.00000           0.351586            9.56714
     47       0.00000           0.357139            9.71825
     48       0.00000           0.381678           10.38599
     49       0.00000           0.453133           12.33036
     50       0.00000           0.474890           12.92242
     51       0.00000           0.485358           13.20726
     52       0.00000           0.526191           14.31839
     53       0.00000           0.606238           16.49656

  Highest occupied state (VBM) at    -10.27502656 eV
  | Occupation number:      2.00000000

  Lowest unoccupied state (CBM) at    -4.19072040 eV
  | Occupation number:      0.00000000

  Overall HOMO-LUMO gap:      6.08430616 eV.
  Calculating total energy contributions from superposition of free atom densities.

  Total energy components:
  | Sum of eigenvalues            :        -188.84429041 Ha       -5138.71459693 eV
  | XC energy correction          :         -41.78612696 Ha       -1137.05836740 eV
  | XC potential correction       :          53.71644332 Ha        1461.69879326 eV
  | Free-atom electrostatic energy:        -146.85655898 Ha       -3996.17029263 eV
  | Hartree energy correction     :           0.00000000 Ha           0.00000000 eV
  | vdW energy correction         :           0.00000000 Ha           0.00000000 eV
  | Entropy correction            :           0.00000000 Ha           0.00000000 eV
  | ---------------------------
  | Total energy                  :        -323.77053302 Ha       -8810.24446370 eV
  | Total energy, T -> 0          :        -323.77053302 Ha       -8810.24446370 eV  <-- do not rely on this value for anything but (periodic) metals
  | Electronic free energy        :        -323.77053302 Ha       -8810.24446370 eV

  Derived energy quantities:
  | Kinetic energy                :         320.48132727 Ha        8720.74062130 eV
  | Electrostatic energy          :        -602.46573333 Ha      -16393.92671760 eV
  | Energy correction for multipole
  | error in Hartree potential    :           0.00000000 Ha           0.00000000 eV
  | Sum of eigenvalues per atom                           :        -395.28573823 eV
  | Total energy (T->0) per atom                          :        -677.71111259 eV  <-- do not rely on this value for anything but (periodic) metals
  | Electronic free energy per atom                       :        -677.71111259 eV
  Initialize hartree_potential_storage
  Max. number of atoms included in rho_multipole:           13

  End scf initialization - timings             :  max(cpu_time)    wall_clock(cpu1)
  | Time for scf. initialization               :        1.148 s           1.157 s
  | Boundary condition initialization          :        0.000 s           0.000 s
  | Integration                                :        0.706 s           0.713 s
  | Solution of K.-S. eqns.                    :        0.004 s           0.004 s
  | Grid partitioning                          :        0.111 s           0.112 s
  | Preloading free-atom quantities on grid    :        0.002 s           0.002 s
  | Free-atom superposition energy             :        0.085 s           0.085 s
  | Total energy evaluation                    :        0.000 s           0.000 s

  Partial memory accounting:
  | Current value for overall tracked memory usage on task 0  :           0.165 MB
  | Peak value for overall tracked memory usage on task 0     :           0.678 MB after allocating wave
  | Largest tracked array allocation on task 0 so far         :           0.132 MB  when allocating H_times_psi
  Note:  These values currently only include a subset of arrays which are explicitly tracked.
  The "true" memory usage will be greater.
------------------------------------------------------------

------------------------------------------------------------
          Begin self-consistency iteration #    1

  Date     :  20200710, Time     :  152652.004
------------------------------------------------------------
  Evaluating new KS density.
  Integration grid: deviation in total charge (<rho> - N_e) =   7.105427E-15
  Pulay mixing of updated and previous charge densities.

  Evaluating partitioned Hartree potential by multipole expansion.
  | Analytical far-field extrapolation by fixed multipoles:
  | Hartree multipole sum: apparent total charge =  -0.159785E-03
  Summing up the Hartree potential.
  Time summed over all CPUs for potential: real work        0.282 s, elapsed        0.282 s
  | RMS charge density error from multipole expansion :   0.590303E-02

  Integrating Hamiltonian matrix: batch-based integration.
  Time summed over all CPUs for integration: real work        0.495 s, elapsed        0.495 s

  Updating Kohn-Sham eigenvalues and eigenvectors using ELSI and the ELPA eigensolver.
  Finished Cholesky decomposition
  | Time :     0.000 s
  Finished transformation to standard eigenproblem
  | Time :     0.000 s
  Starting LAPACK eigensolver
  Finished solving standard eigenproblem
  | Time :     0.001 s
  Finished back-transformation of eigenvectors
  | Time :     0.000 s

  Obtaining occupation numbers and chemical potential using ELSI.
  | Chemical potential (Fermi level):    -7.33440305eV
  Writing Kohn-Sham eigenvalues.

  State    Occupation    Eigenvalue [Ha]    Eigenvalue [eV]
      1       2.00000         -18.906817         -514.48068
      2       2.00000         -18.838826         -512.63054
      3       2.00000         -14.094798         -383.53896
      4       2.00000         -10.116014         -275.27075
      5       2.00000         -10.061715         -273.79319
      6       2.00000         -10.030639         -272.94758
      7       2.00000          -1.139951          -31.01964
      8       2.00000          -1.032394          -28.09288
      9       2.00000          -0.920518          -25.04858
     10       2.00000          -0.793932          -21.60398
     11       2.00000          -0.708545          -19.28050
     12       2.00000          -0.634225          -17.25814
     13       2.00000          -0.562968          -15.31914
     14       2.00000          -0.553458          -15.06036
     15       2.00000          -0.534821          -14.55323
     16       2.00000          -0.506188          -13.77409
     17       2.00000          -0.490185          -13.33862
     18       2.00000          -0.462939          -12.59721
     19       2.00000          -0.450086          -12.24746
     20       2.00000          -0.443526          -12.06895
     21       2.00000          -0.413677          -11.25673
     22       2.00000          -0.369853          -10.06422
     23       2.00000          -0.352043           -9.57957
     24       2.00000          -0.304453           -8.28458
     25       0.00000          -0.118569           -3.22643
     26       0.00000          -0.035246           -0.95909
     27       0.00000           0.003541            0.09637
     28       0.00000           0.016632            0.45257
     29       0.00000           0.024765            0.67390
     30       0.00000           0.052990            1.44193
     31       0.00000           0.058942            1.60390
     32       0.00000           0.068191            1.85556
     33       0.00000           0.083804            2.28041
     34       0.00000           0.102973            2.80202
     35       0.00000           0.127973            3.48231
     36       0.00000           0.162630            4.42538
     37       0.00000           0.175843            4.78492
     38       0.00000           0.226670            6.16800
     39       0.00000           0.241086            6.56028
     40       0.00000           0.268588            7.30866
     41       0.00000           0.294901            8.02466
     42       0.00000           0.311621            8.47963
     43       0.00000           0.314490            8.55771
     44       0.00000           0.348585            9.48547
     45       0.00000           0.376742           10.25168
     46       0.00000           0.386110           10.50657
     47       0.00000           0.390355           10.62209
     48       0.00000           0.421067           11.45781
     49       0.00000           0.494140           13.44622
     50       0.00000           0.511270           13.91236
     51       0.00000           0.519415           14.13400
     52       0.00000           0.559659           15.22909
     53       0.00000           0.647053           17.60722

  Highest occupied state (VBM) at     -8.28457975 eV
  | Occupation number:      2.00000000

  Lowest unoccupied state (CBM) at    -3.22642874 eV
  | Occupation number:      0.00000000

  Overall HOMO-LUMO gap:      5.05815101 eV.

  Total energy components:
  | Sum of eigenvalues            :        -185.44514462 Ha       -5046.21913378 eV
  | XC energy correction          :         -42.11550453 Ha       -1146.02118719 eV
  | XC potential correction       :          54.14485940 Ha        1473.35658778 eV
  | Free-atom electrostatic energy:        -146.85655898 Ha       -3996.17029263 eV
  | Hartree energy correction     :          -3.31741369 Ha         -90.27141952 eV
  | vdW energy correction         :           0.00000000 Ha           0.00000000 eV
  | Entropy correction            :           0.00000000 Ha           0.00000000 eV
  | ---------------------------
  | Total energy                  :        -323.58976242 Ha       -8805.32544535 eV
  | Total energy, T -> 0          :        -323.58976242 Ha       -8805.32544535 eV  <-- do not rely on this value for anything but (periodic) metals
  | Electronic free energy        :        -323.58976242 Ha       -8805.32544535 eV

  Derived energy quantities:
  | Kinetic energy                :         322.27410867 Ha        8769.52468535 eV
  | Electrostatic energy          :        -603.74836655 Ha      -16428.82894351 eV
  | Energy correction for multipole
  | error in Hartree potential    :           0.01196196 Ha           0.32550141 eV
  | Sum of eigenvalues per atom                           :        -388.17070260 eV
  | Total energy (T->0) per atom                          :        -677.33272657 eV  <-- do not rely on this value for anything but (periodic) metals
  | Electronic free energy per atom                       :        -677.33272657 eV

  Self-consistency convergence accuracy:
  | Change of charge density      :  0.5823E+00
  | Change of sum of eigenvalues  :  0.9250E+02 eV
  | Change of total energy        :  0.4919E+01 eV

  End self-consistency iteration #     1       :  max(cpu_time)    wall_clock(cpu1)
  | Time for this iteration                    :        1.187 s           1.188 s
  | Charge density update                      :        0.392 s           0.393 s
  | Density mixing                             :        0.005 s           0.005 s
  | Hartree multipole update                   :        0.008 s           0.009 s
  | Hartree multipole summation                :        0.283 s           0.283 s
  | Integration                                :        0.495 s           0.496 s
  | Solution of K.-S. eqns.                    :        0.002 s           0.002 s
  | Total energy evaluation                    :        0.000 s           0.000 s

  Partial memory accounting:
  | Current value for overall tracked memory usage on task 0  :           0.165 MB
  | Peak value for overall tracked memory usage on task 0     :           0.695 MB after allocating gradient_basis_wave
  | Largest tracked array allocation on task 0 so far         :           0.397 MB  when allocating gradient_basis_wave
  Note:  These values currently only include a subset of arrays which are explicitly tracked.
  The "true" memory usage will be greater.
------------------------------------------------------------

------------------------------------------------------------
          Begin self-consistency iteration #    2

  Date     :  20200710, Time     :  152653.193
------------------------------------------------------------
  Evaluating new KS density.
  Integration grid: deviation in total charge (<rho> - N_e) =   5.684342E-14
  Pulay mixing of updated and previous charge densities.

  Evaluating partitioned Hartree potential by multipole expansion.
  | Analytical far-field extrapolation by fixed multipoles:
  | Hartree multipole sum: apparent total charge =  -0.305898E-03
  Summing up the Hartree potential.
  Time summed over all CPUs for potential: real work        0.284 s, elapsed        0.284 s
  | RMS charge density error from multipole expansion :   0.141060E-01

  Integrating Hamiltonian matrix: batch-based integration.
  Time summed over all CPUs for integration: real work        0.497 s, elapsed        0.497 s

  Updating Kohn-Sham eigenvalues and eigenvectors using ELSI and the ELPA eigensolver.
  Finished Cholesky decomposition
  | Time :     0.000 s
  Finished transformation to standard eigenproblem
  | Time :     0.000 s
  Starting LAPACK eigensolver
  Finished solving standard eigenproblem
  | Time :     0.002 s
  Finished back-transformation of eigenvectors
  | Time :     0.000 s

  Obtaining occupation numbers and chemical potential using ELSI.
  | Chemical potential (Fermi level):    -5.94187727eV
  Highest occupied state (VBM) at     -6.26100165 eV
  | Occupation number:      2.00000000

  Lowest unoccupied state (CBM) at    -1.97061107 eV
  | Occupation number:      0.00000000

  Overall HOMO-LUMO gap:      4.29039058 eV.

  Checking to see if s.c.f. parameters should be adjusted.

  Total energy components:
  | Sum of eigenvalues            :        -181.83236647 Ha       -4947.91043864 eV
  | XC energy correction          :         -42.47971951 Ha       -1155.93198113 eV
  | XC potential correction       :          54.61707747 Ha        1486.20629530 eV
  | Free-atom electrostatic energy:        -146.85655898 Ha       -3996.17029263 eV
  | Hartree energy correction     :          -6.96023156 Ha        -189.39753718 eV
  | vdW energy correction         :           0.00000000 Ha           0.00000000 eV
  | Entropy correction            :           0.00000000 Ha           0.00000000 eV
  | ---------------------------
  | Total energy                  :        -323.51179905 Ha       -8803.20395429 eV
  | Total energy, T -> 0          :        -323.51179905 Ha       -8803.20395429 eV  <-- do not rely on this value for anything but (periodic) metals
  | Electronic free energy        :        -323.51179905 Ha       -8803.20395429 eV

  Derived energy quantities:
  | Kinetic energy                :         323.61288360 Ha        8805.95460468 eV
  | Electrostatic energy          :        -604.64496313 Ha      -16453.22657784 eV
  | Energy correction for multipole
  | error in Hartree potential    :           0.02665919 Ha           0.72543336 eV
  | Sum of eigenvalues per atom                           :        -380.60849528 eV
  | Total energy (T->0) per atom                          :        -677.16953495 eV  <-- do not rely on this value for anything but (periodic) metals
  | Electronic free energy per atom                       :        -677.16953495 eV

  Self-consistency convergence accuracy:
  | Change of charge density      :  0.3638E+00
  | Change of sum of eigenvalues  :  0.9831E+02 eV
  | Change of total energy        :  0.2121E+01 eV

  End self-consistency iteration #     2       :  max(cpu_time)    wall_clock(cpu1)
  | Time for this iteration                    :        1.183 s           1.186 s
  | Charge density update                      :        0.385 s           0.386 s
  | Density mixing                             :        0.007 s           0.006 s
  | Hartree multipole update                   :        0.009 s           0.008 s
  | Hartree multipole summation                :        0.284 s           0.285 s
  | Integration                                :        0.496 s           0.497 s
  | Solution of K.-S. eqns.                    :        0.002 s           0.002 s
  | Total energy evaluation                    :        0.000 s           0.000 s

  Partial memory accounting:
  | Current value for overall tracked memory usage on task 0  :           0.166 MB
  | Peak value for overall tracked memory usage on task 0     :           0.695 MB after allocating gradient_basis_wave
  | Largest tracked array allocation on task 0 so far         :           0.397 MB  when allocating gradient_basis_wave
  Note:  These values currently only include a subset of arrays which are explicitly tracked.
  The "true" memory usage will be greater.
------------------------------------------------------------

------------------------------------------------------------
          Begin self-consistency iteration #    3

  Date     :  20200710, Time     :  152654.383
------------------------------------------------------------
  Evaluating new KS density.
  Integration grid: deviation in total charge (<rho> - N_e) =   4.973799E-14
  Pulay mixing of updated and previous charge densities.

  Evaluating partitioned Hartree potential by multipole expansion.
  | Analytical far-field extrapolation by fixed multipoles:
  | Hartree multipole sum: apparent total charge =  -0.410291E-03
  Summing up the Hartree potential.
  Time summed over all CPUs for potential: real work        0.283 s, elapsed        0.283 s
  | RMS charge density error from multipole expansion :   0.223842E-01

  Integrating Hamiltonian matrix: batch-based integration.
  Time summed over all CPUs for integration: real work        0.495 s, elapsed        0.495 s

  Updating Kohn-Sham eigenvalues and eigenvectors using ELSI and the ELPA eigensolver.
  Finished Cholesky decomposition
  | Time :     0.000 s
  Finished transformation to standard eigenproblem
  | Time :     0.000 s
  Starting LAPACK eigensolver
  Finished solving standard eigenproblem
  | Time :     0.002 s
  Finished back-transformation of eigenvectors
  | Time :     0.000 s

  Obtaining occupation numbers and chemical potential using ELSI.
  | Chemical potential (Fermi level):    -5.22488877eV
  Highest occupied state (VBM) at     -5.59349866 eV
  | Occupation number:      2.00000000

  Lowest unoccupied state (CBM) at    -1.24624267 eV
  | Occupation number:      0.00000000

  Overall HOMO-LUMO gap:      4.34725599 eV.

  Total energy components:
  | Sum of eigenvalues            :        -180.52020420 Ha       -4912.20468656 eV
  | XC energy correction          :         -42.63137042 Ha       -1160.05861237 eV
  | XC potential correction       :          54.81049394 Ha        1491.46942528 eV
  | Free-atom electrostatic energy:        -146.85655898 Ha       -3996.17029263 eV
  | Hartree energy correction     :          -8.30192230 Ha        -225.90679984 eV
  | vdW energy correction         :           0.00000000 Ha           0.00000000 eV
  | Entropy correction            :           0.00000000 Ha           0.00000000 eV
  | ---------------------------
  | Total energy                  :        -323.49956196 Ha       -8802.87096611 eV
  | Total energy, T -> 0          :        -323.49956196 Ha       -8802.87096611 eV  <-- do not rely on this value for anything but (periodic) metals
  | Electronic free energy        :        -323.49956196 Ha       -8802.87096611 eV

  Derived energy quantities:
  | Kinetic energy                :         323.17328589 Ha        8793.99254251 eV
  | Electrostatic energy          :        -604.04147743 Ha      -16436.80489625 eV
  | Energy correction for multipole
  | error in Hartree potential    :           0.03823310 Ha           1.04037563 eV
  | Sum of eigenvalues per atom                           :        -377.86189897 eV
  | Total energy (T->0) per atom                          :        -677.14392047 eV  <-- do not rely on this value for anything but (periodic) metals
  | Electronic free energy per atom                       :        -677.14392047 eV

  Self-consistency convergence accuracy:
  | Change of charge density      :  0.2023E+00
  | Change of sum of eigenvalues  :  0.3571E+02 eV
  | Change of total energy        :  0.3330E+00 eV

  End self-consistency iteration #     3       :  max(cpu_time)    wall_clock(cpu1)
  | Time for this iteration                    :        1.183 s           1.184 s
  | Charge density update                      :        0.385 s           0.385 s
  | Density mixing                             :        0.008 s           0.009 s
  | Hartree multipole update                   :        0.009 s           0.008 s
  | Hartree multipole summation                :        0.283 s           0.284 s
  | Integration                                :        0.495 s           0.495 s
  | Solution of K.-S. eqns.                    :        0.002 s           0.002 s
  | Total energy evaluation                    :        0.000 s           0.000 s

  Partial memory accounting:
  | Current value for overall tracked memory usage on task 0  :           0.166 MB
  | Peak value for overall tracked memory usage on task 0     :           0.695 MB after allocating gradient_basis_wave
  | Largest tracked array allocation on task 0 so far         :           0.397 MB  when allocating gradient_basis_wave
  Note:  These values currently only include a subset of arrays which are explicitly tracked.
  The "true" memory usage will be greater.
------------------------------------------------------------

------------------------------------------------------------
          Begin self-consistency iteration #    4

  Date     :  20200710, Time     :  152655.567
------------------------------------------------------------
  Evaluating new KS density.
  Integration grid: deviation in total charge (<rho> - N_e) =   7.105427E-15
  Pulay mixing of updated and previous charge densities.

  Evaluating partitioned Hartree potential by multipole expansion.
  | Analytical far-field extrapolation by fixed multipoles:
  | Hartree multipole sum: apparent total charge =  -0.443408E-03
  Summing up the Hartree potential.
  Time summed over all CPUs for potential: real work        0.283 s, elapsed        0.283 s
  | RMS charge density error from multipole expansion :   0.257130E-01

  Integrating Hamiltonian matrix: batch-based integration.
  Time summed over all CPUs for integration: real work        0.495 s, elapsed        0.495 s

  Updating Kohn-Sham eigenvalues and eigenvectors using ELSI and the ELPA eigensolver.
  Finished Cholesky decomposition
  | Time :     0.000 s
  Finished transformation to standard eigenproblem
  | Time :     0.000 s
  Starting LAPACK eigensolver
  Finished solving standard eigenproblem
  | Time :     0.002 s
  Finished back-transformation of eigenvectors
  | Time :     0.000 s

  Obtaining occupation numbers and chemical potential using ELSI.
  | Chemical potential (Fermi level):    -5.12799071eV
  Highest occupied state (VBM) at     -5.40287792 eV
  | Occupation number:      2.00000000

  Lowest unoccupied state (CBM) at    -1.17765263 eV
  | Occupation number:      0.00000000

  Overall HOMO-LUMO gap:      4.22522529 eV.

  Total energy components:
  | Sum of eigenvalues            :        -180.38743986 Ha       -4908.59198488 eV
  | XC energy correction          :         -42.66705011 Ha       -1161.02950596 eV
  | XC potential correction       :          54.85541692 Ha        1492.69184166 eV
  | Free-atom electrostatic energy:        -146.85655898 Ha       -3996.17029263 eV
  | Hartree energy correction     :          -8.44309472 Ha        -229.74829684 eV
  | vdW energy correction         :           0.00000000 Ha           0.00000000 eV
  | Entropy correction            :           0.00000000 Ha           0.00000000 eV
  | ---------------------------
  | Total energy                  :        -323.49872674 Ha       -8802.84823866 eV
  | Total energy, T -> 0          :        -323.49872674 Ha       -8802.84823866 eV  <-- do not rely on this value for anything but (periodic) metals
  | Electronic free energy        :        -323.49872674 Ha       -8802.84823866 eV

  Derived energy quantities:
  | Kinetic energy                :         322.79787487 Ha        8783.77708887 eV
  | Electrostatic energy          :        -603.62955151 Ha      -16425.59582157 eV
  | Energy correction for multipole
  | error in Hartree potential    :           0.04244535 Ha           1.15499661 eV
  | Sum of eigenvalues per atom                           :        -377.58399884 eV
  | Total energy (T->0) per atom                          :        -677.14217220 eV  <-- do not rely on this value for anything but (periodic) metals
  | Electronic free energy per atom                       :        -677.14217220 eV

  Self-consistency convergence accuracy:
  | Change of charge density      :  0.6182E-01
  | Change of sum of eigenvalues  :  0.3613E+01 eV
  | Change of total energy        :  0.2273E-01 eV

  End self-consistency iteration #     4       :  max(cpu_time)    wall_clock(cpu1)
  | Time for this iteration                    :        1.184 s           1.186 s
  | Charge density update                      :        0.385 s           0.386 s
  | Density mixing                             :        0.009 s           0.009 s
  | Hartree multipole update                   :        0.008 s           0.009 s
  | Hartree multipole summation                :        0.284 s           0.283 s
  | Integration                                :        0.495 s           0.496 s
  | Solution of K.-S. eqns.                    :        0.002 s           0.002 s
  | Total energy evaluation                    :        0.000 s           0.001 s

  Partial memory accounting:
  | Current value for overall tracked memory usage on task 0  :           0.166 MB
  | Peak value for overall tracked memory usage on task 0     :           0.696 MB after allocating gradient_basis_wave
  | Largest tracked array allocation on task 0 so far         :           0.397 MB  when allocating gradient_basis_wave
  Note:  These values currently only include a subset of arrays which are explicitly tracked.
  The "true" memory usage will be greater.
------------------------------------------------------------

------------------------------------------------------------
          Begin self-consistency iteration #    5

  Date     :  20200710, Time     :  152656.755
------------------------------------------------------------
  Evaluating new KS density.
  Integration grid: deviation in total charge (<rho> - N_e) =   6.394885E-14
  Pulay mixing of updated and previous charge densities.

  Evaluating partitioned Hartree potential by multipole expansion.
  | Analytical far-field extrapolation by fixed multipoles:
  | Hartree multipole sum: apparent total charge =  -0.437083E-03
  Summing up the Hartree potential.
  Time summed over all CPUs for potential: real work        0.284 s, elapsed        0.284 s
  | RMS charge density error from multipole expansion :   0.254443E-01

  Integrating Hamiltonian matrix: batch-based integration.
  Time summed over all CPUs for integration: real work        0.495 s, elapsed        0.495 s

  Updating Kohn-Sham eigenvalues and eigenvectors using ELSI and the ELPA eigensolver.
  Finished Cholesky decomposition
  | Time :     0.000 s
  Finished transformation to standard eigenproblem
  | Time :     0.000 s
  Starting LAPACK eigensolver
  Finished solving standard eigenproblem
  | Time :     0.002 s
  Finished back-transformation of eigenvectors
  | Time :     0.000 s

  Obtaining occupation numbers and chemical potential using ELSI.
  | Chemical potential (Fermi level):    -5.19500286eV
  Highest occupied state (VBM) at     -5.49343965 eV
  | Occupation number:      2.00000000

  Lowest unoccupied state (CBM) at    -1.25860769 eV
  | Occupation number:      0.00000000

  Overall HOMO-LUMO gap:      4.23483196 eV.

  Total energy components:
  | Sum of eigenvalues            :        -180.56774950 Ha       -4913.49846002 eV
  | XC energy correction          :         -42.64469134 Ha       -1160.42109290 eV
  | XC potential correction       :          54.82642670 Ha        1491.90297777 eV
  | Free-atom electrostatic energy:        -146.85655898 Ha       -3996.17029263 eV
  | Hartree energy correction     :          -8.25585857 Ha        -224.65334182 eV
  | vdW energy correction         :           0.00000000 Ha           0.00000000 eV
  | Entropy correction            :           0.00000000 Ha           0.00000000 eV
  | ---------------------------
  | Total energy                  :        -323.49843168 Ha       -8802.84020961 eV
  | Total energy, T -> 0          :        -323.49843168 Ha       -8802.84020961 eV  <-- do not rely on this value for anything but (periodic) metals
  | Electronic free energy        :        -323.49843168 Ha       -8802.84020961 eV

  Derived energy quantities:
  | Kinetic energy                :         322.70144194 Ha        8781.15301539 eV
  | Electrostatic energy          :        -603.55518228 Ha      -16423.57213209 eV
  | Energy correction for multipole
  | error in Hartree potential    :           0.04183327 Ha           1.13834131 eV
  | Sum of eigenvalues per atom                           :        -377.96142000 eV
  | Total energy (T->0) per atom                          :        -677.14155459 eV  <-- do not rely on this value for anything but (periodic) metals
  | Electronic free energy per atom                       :        -677.14155459 eV

  Self-consistency convergence accuracy:
  | Change of charge density      :  0.2053E-01
  | Change of sum of eigenvalues  : -0.4906E+01 eV
  | Change of total energy        :  0.8029E-02 eV

  End self-consistency iteration #     5       :  max(cpu_time)    wall_clock(cpu1)
  | Time for this iteration                    :        1.186 s           1.187 s
  | Charge density update                      :        0.385 s           0.385 s
  | Density mixing                             :        0.011 s           0.011 s
  | Hartree multipole update                   :        0.009 s           0.009 s
  | Hartree multipole summation                :        0.284 s           0.284 s
  | Integration                                :        0.495 s           0.496 s
  | Solution of K.-S. eqns.                    :        0.002 s           0.002 s
  | Total energy evaluation                    :        0.000 s           0.000 s

  Partial memory accounting:
  | Current value for overall tracked memory usage on task 0  :           0.166 MB
  | Peak value for overall tracked memory usage on task 0     :           0.696 MB after allocating gradient_basis_wave
  | Largest tracked array allocation on task 0 so far         :           0.397 MB  when allocating gradient_basis_wave
  Note:  These values currently only include a subset of arrays which are explicitly tracked.
  The "true" memory usage will be greater.
------------------------------------------------------------

------------------------------------------------------------
          Begin self-consistency iteration #    6

  Date     :  20200710, Time     :  152657.944
------------------------------------------------------------
  Evaluating new KS density.
  Integration grid: deviation in total charge (<rho> - N_e) =   0.000000E+00
  Pulay mixing of updated and previous charge densities.

  Evaluating partitioned Hartree potential by multipole expansion.
  | Analytical far-field extrapolation by fixed multipoles:
  | Hartree multipole sum: apparent total charge =  -0.439709E-03
  Summing up the Hartree potential.
  Time summed over all CPUs for potential: real work        0.283 s, elapsed        0.283 s
  | RMS charge density error from multipole expansion :   0.258145E-01

  Integrating Hamiltonian matrix: batch-based integration.
  Time summed over all CPUs for integration: real work        0.496 s, elapsed        0.496 s

  Updating Kohn-Sham eigenvalues and eigenvectors using ELSI and the ELPA eigensolver.
  Finished Cholesky decomposition
  | Time :     0.000 s
  Finished transformation to standard eigenproblem
  | Time :     0.000 s
  Starting LAPACK eigensolver
  Finished solving standard eigenproblem
  | Time :     0.002 s
  Finished back-transformation of eigenvectors
  | Time :     0.000 s

  Obtaining occupation numbers and chemical potential using ELSI.
  | Chemical potential (Fermi level):    -5.20378256eV
  Highest occupied state (VBM) at     -5.47834774 eV
  | Occupation number:      2.00000000

  Lowest unoccupied state (CBM) at    -1.28356739 eV
  | Occupation number:      0.00000000

  Overall HOMO-LUMO gap:      4.19478035 eV.

  Total energy components:
  | Sum of eigenvalues            :        -180.59315661 Ha       -4914.18982263 eV
  | XC energy correction          :         -42.64079512 Ha       -1160.31507137 eV
  | XC potential correction       :          54.82135358 Ha        1491.76493097 eV
  | Free-atom electrostatic energy:        -146.85655898 Ha       -3996.17029263 eV
  | Hartree energy correction     :          -8.22921986 Ha        -223.92846572 eV
  | vdW energy correction         :           0.00000000 Ha           0.00000000 eV
  | Entropy correction            :           0.00000000 Ha           0.00000000 eV
  | ---------------------------
  | Total energy                  :        -323.49837699 Ha       -8802.83872137 eV
  | Total energy, T -> 0          :        -323.49837699 Ha       -8802.83872137 eV  <-- do not rely on this value for anything but (periodic) metals
  | Electronic free energy        :        -323.49837699 Ha       -8802.83872137 eV

  Derived energy quantities:
  | Kinetic energy                :         322.61390410 Ha        8778.77098943 eV
  | Electrostatic energy          :        -603.47148597 Ha      -16421.29463944 eV
  | Energy correction for multipole
  | error in Hartree potential    :           0.04213486 Ha           1.14654775 eV
  | Sum of eigenvalues per atom                           :        -378.01460174 eV
  | Total energy (T->0) per atom                          :        -677.14144011 eV  <-- do not rely on this value for anything but (periodic) metals
  | Electronic free energy per atom                       :        -677.14144011 eV

  Self-consistency convergence accuracy:
  | Change of charge density      :  0.1039E-01
  | Change of sum of eigenvalues  : -0.6914E+00 eV
  | Change of total energy        :  0.1488E-02 eV

  End self-consistency iteration #     6       :  max(cpu_time)    wall_clock(cpu1)
  | Time for this iteration                    :        1.187 s           1.188 s
  | Charge density update                      :        0.385 s           0.385 s
  | Density mixing                             :        0.012 s           0.012 s
  | Hartree multipole update                   :        0.009 s           0.009 s
  | Hartree multipole summation                :        0.283 s           0.284 s
  | Integration                                :        0.496 s           0.495 s
  | Solution of K.-S. eqns.                    :        0.002 s           0.002 s
  | Total energy evaluation                    :        0.000 s           0.000 s

  Partial memory accounting:
  | Current value for overall tracked memory usage on task 0  :           0.166 MB
  | Peak value for overall tracked memory usage on task 0     :           0.696 MB after allocating gradient_basis_wave
  | Largest tracked array allocation on task 0 so far         :           0.397 MB  when allocating gradient_basis_wave
  Note:  These values currently only include a subset of arrays which are explicitly tracked.
  The "true" memory usage will be greater.
------------------------------------------------------------

------------------------------------------------------------
          Begin self-consistency iteration #    7

  Date     :  20200710, Time     :  152659.135
------------------------------------------------------------
  Evaluating new KS density.
  Integration grid: deviation in total charge (<rho> - N_e) =  -2.842171E-14
  Pulay mixing of updated and previous charge densities.

  Evaluating partitioned Hartree potential by multipole expansion.
  | Analytical far-field extrapolation by fixed multipoles:
  | Hartree multipole sum: apparent total charge =  -0.441087E-03
  Summing up the Hartree potential.
  Time summed over all CPUs for potential: real work        0.283 s, elapsed        0.283 s
  | RMS charge density error from multipole expansion :   0.259657E-01

  Integrating Hamiltonian matrix: batch-based integration.
  Time summed over all CPUs for integration: real work        0.495 s, elapsed        0.495 s

  Updating Kohn-Sham eigenvalues and eigenvectors using ELSI and the ELPA eigensolver.
  Finished Cholesky decomposition
  | Time :     0.000 s
  Finished transformation to standard eigenproblem
  | Time :     0.000 s
  Starting LAPACK eigensolver
  Finished solving standard eigenproblem
  | Time :     0.001 s
  Finished back-transformation of eigenvectors
  | Time :     0.000 s

[...]
  |   Hirshfeld dipole moment :      0.06450665
  |   Hirshfeld second moments:      0.01414191      -0.01729001      -0.01401411
  |                                 -0.01729001      -0.01820474       0.00627052
  |                                 -0.01401411       0.00627052      -0.02425678
  ----------------------------------------------------------------------
  | Atom    12: O
  |   Hirshfeld charge        :     -0.14785493
  |   Free atom volume        :     23.61338643
  |   Hirshfeld volume        :     20.69725533
  |   Hirshfeld dipole vector :      0.00841735       0.01122871       0.03817774
  |   Hirshfeld dipole moment :      0.04067524
  |   Hirshfeld second moments:      0.08169135       0.01922139      -0.02547305
  |                                  0.01922139       0.06668533      -0.01239842
  |                                 -0.02547305      -0.01239842       0.03923723
  ----------------------------------------------------------------------
  | Atom    13: H
  |   Hirshfeld charge        :      0.17600763
  |   Free atom volume        :      9.95071624
  |   Hirshfeld volume        :      6.29014041
  |   Hirshfeld dipole vector :     -0.08580727      -0.04853489       0.06653573
  |   Hirshfeld dipole moment :      0.11893497
  |   Hirshfeld second moments:      0.11786008       0.00192794      -0.01177390
  |                                  0.00192794       0.12370075      -0.00024535
  |                                 -0.01177390      -0.00024535       0.08871831
  ----------------------------------------------------------------------


  Total energy components:
  | Sum of eigenvalues            :        -180.58296384 Ha       -4913.91246324 eV
  | XC energy correction          :         -42.63848495 Ha       -1160.25220836 eV
  | XC potential correction       :          54.81844468 Ha        1491.68577585 eV
  | Free-atom electrostatic energy:        -146.85655898 Ha       -3996.17029263 eV
  | Hartree energy correction     :          -8.23879177 Ha        -224.18893066 eV
  | vdW energy correction         :          -0.00315683 Ha          -0.08590175 eV
  | Entropy correction            :           0.00000000 Ha           0.00000000 eV
  | ---------------------------
  | Total energy                  :        -323.50151168 Ha       -8802.92402078 eV
  | Total energy, T -> 0          :        -323.50151168 Ha       -8802.92402078 eV  <-- do not rely on this value for anything but (periodic) metals
  | Electronic free energy        :        -323.50151168 Ha       -8802.92402078 eV

  Derived energy quantities:
  | Kinetic energy                :         322.57484867 Ha        8777.70823722 eV
  | Electrostatic energy          :        -603.43471858 Ha      -16420.29414789 eV
  | Energy correction for multipole
  | error in Hartree potential    :           0.04225302 Ha           1.14976331 eV
  | Sum of eigenvalues per atom                           :        -377.99326640 eV
  | Total energy (T->0) per atom                          :        -677.14800160 eV  <-- do not rely on this value for anything but (periodic) metals
  | Electronic free energy per atom                       :        -677.14800160 eV

  atomic forces [eV/Ang]:
  -----------------------
  atom #    1
   Hellmann-Feynman              :  0.398830E+00 -0.622535E+00  0.385126E+00
   Ionic forces                  :  0.000000E+00  0.000000E+00  0.000000E+00
   Multipole                     :  0.702293E-02  0.268779E+00 -0.222342E+00
   Pulay + GGA                   : -0.968241E+00  0.105129E+00 -0.106599E+01
   Van der Waals                 :  0.288355E-02  0.238742E-02 -0.197797E-02
   ----------------------------------------------------------------
   Total forces(   1)            : -0.559505E+00 -0.246240E+00 -0.905181E+00
  atom #    2
   Hellmann-Feynman              :  0.278389E+00  0.505388E-01 -0.102422E+00
   Ionic forces                  :  0.000000E+00  0.000000E+00  0.000000E+00
   Multipole                     :  0.183491E+00  0.302695E-01 -0.183655E-01
   Pulay + GGA                   : -0.149516E+00  0.282398E-01  0.183990E-01
   Van der Waals                 :  0.418064E-02 -0.308639E-02 -0.561753E-02
   ----------------------------------------------------------------
   Total forces(   2)            :  0.316545E+00  0.105962E+00 -0.108006E+00
  atom #    3
   Hellmann-Feynman              :  0.423688E+01  0.101027E+02 -0.411868E+01
   Ionic forces                  :  0.000000E+00  0.000000E+00  0.000000E+00
   Multipole                     : -0.170986E+00  0.215487E+00 -0.897948E+00
   Pulay + GGA                   : -0.315377E+01 -0.971030E+01  0.569006E+01
   Van der Waals                 :  0.241747E-02 -0.772965E-02 -0.606837E-02
   ----------------------------------------------------------------
   Total forces(   3)            :  0.914538E+00  0.600150E+00  0.667363E+00
  atom #    4
   Hellmann-Feynman              : -0.230523E+00 -0.177196E+00 -0.933237E-01
   Ionic forces                  :  0.000000E+00  0.000000E+00  0.000000E+00
   Multipole                     : -0.126866E-01 -0.798468E-01 -0.770949E-01
   Pulay + GGA                   : -0.677741E-01  0.220538E+00  0.650441E-01
   Van der Waals                 : -0.640492E-03  0.555631E-02 -0.529068E-02
   ----------------------------------------------------------------
   Total forces(   4)            : -0.311624E+00 -0.309485E-01 -0.110665E+00
  atom #    5
   Hellmann-Feynman              : -0.258065E+00 -0.262900E+00 -0.661094E-01
   Ionic forces                  :  0.000000E+00  0.000000E+00  0.000000E+00
   Multipole                     : -0.875291E-01 -0.375309E-01 -0.452146E-01
   Pulay + GGA                   :  0.240946E+00  0.548462E-01 -0.403246E-01
   Van der Waals                 : -0.137081E-02  0.186188E-02 -0.109297E-01
   ----------------------------------------------------------------
   Total forces(   5)            : -0.106019E+00 -0.243722E+00 -0.162578E+00
  atom #    6
   Hellmann-Feynman              :  0.244769E+00 -0.355055E+00  0.340192E+00
   Ionic forces                  :  0.000000E+00  0.000000E+00  0.000000E+00
   Multipole                     : -0.165793E+00  0.672619E+00  0.257419E+00
   Pulay + GGA                   :  0.113949E+00 -0.755900E+00 -0.521704E+00
   Van der Waals                 : -0.704971E-03  0.583996E-02 -0.120975E-02
   ----------------------------------------------------------------
   Total forces(   6)            :  0.192220E+00 -0.432497E+00  0.746979E-01
  atom #    7
   Hellmann-Feynman              : -0.251909E+00 -0.435678E-01 -0.367064E-01
   Ionic forces                  :  0.000000E+00  0.000000E+00  0.000000E+00
   Multipole                     : -0.117642E+00  0.490709E-01  0.342650E-01
   Pulay + GGA                   :  0.110410E+00  0.269535E-01  0.174672E-01
   Van der Waals                 : -0.234262E-02  0.494267E-02  0.923614E-02
   ----------------------------------------------------------------
   Total forces(   7)            : -0.261484E+00  0.373993E-01  0.242620E-01
  atom #    8
   Hellmann-Feynman              :  0.287375E-01 -0.705681E-01  0.140617E+00
   Ionic forces                  :  0.000000E+00  0.000000E+00  0.000000E+00
   Multipole                     :  0.167493E-01  0.679752E-01  0.127498E+00
   Pulay + GGA                   : -0.406748E-01 -0.385564E-01 -0.954796E-01
   Van der Waals                 : -0.299094E-02  0.112473E-01  0.141749E-02
   ----------------------------------------------------------------
   Total forces(   8)            :  0.182109E-02 -0.299019E-01  0.174053E+00
  atom #    9
   Hellmann-Feynman              :  0.895203E-01  0.428716E-02 -0.198910E+00
   Ionic forces                  :  0.000000E+00  0.000000E+00  0.000000E+00
   Multipole                     :  0.208251E-01  0.132978E+00 -0.699197E-02
   Pulay + GGA                   : -0.456845E-01 -0.115680E+00  0.185533E-01
   Van der Waals                 : -0.324950E-02  0.202372E-02  0.321705E-02
   ----------------------------------------------------------------
   Total forces(   9)            :  0.614113E-01  0.236093E-01 -0.184132E+00
  atom #   10
   Hellmann-Feynman              :  0.331981E+01  0.575560E+01  0.105423E+01
   Ionic forces                  :  0.000000E+00  0.000000E+00  0.000000E+00
   Multipole                     :  0.214185E-01 -0.145041E+00  0.215984E+00
   Pulay + GGA                   : -0.150933E+01 -0.350450E+01 -0.348856E+00
   Van der Waals                 :  0.446472E-02 -0.162094E-01  0.913813E-02
   ----------------------------------------------------------------
   Total forces(  10)            :  0.183636E+01  0.208985E+01  0.930496E+00
  atom #   11
   Hellmann-Feynman              :  0.414988E+01 -0.231582E+01  0.142025E+02
   Ionic forces                  :  0.000000E+00  0.000000E+00  0.000000E+00
   Multipole                     :  0.598871E-01 -0.555027E+00  0.834147E+00
   Pulay + GGA                   : -0.362892E+01  0.341946E+01 -0.133110E+02
   Van der Waals                 : -0.333767E-02 -0.117045E-01  0.917620E-03
   ----------------------------------------------------------------
   Total forces(  11)            :  0.577511E+00  0.536914E+00  0.172649E+01
  atom #   12
   Hellmann-Feynman              : -0.255351E+01 -0.204211E+01 -0.161336E+02
   Ionic forces                  :  0.000000E+00  0.000000E+00  0.000000E+00
   Multipole                     : -0.680782E+00 -0.114807E+01 -0.751287E+00
   Pulay + GGA                   :  0.721768E+00  0.201402E+01  0.147874E+02
   Van der Waals                 : -0.902995E-03 -0.172801E-02  0.117416E-01
   ----------------------------------------------------------------
   Total forces(  12)            : -0.251343E+01 -0.117789E+01 -0.208572E+01
  atom #   13
   Hellmann-Feynman              : -0.332561E+00 -0.136149E+01  0.154838E+00
   Ionic forces                  :  0.000000E+00  0.000000E+00  0.000000E+00
   Multipole                     : -0.507925E-01 -0.284448E-01  0.671063E-01
   Pulay + GGA                   :  0.228982E+00  0.146416E+00 -0.258321E+00
   Van der Waals                 :  0.159362E-02  0.659872E-02 -0.457406E-02
   ----------------------------------------------------------------
   Total forces(  13)            : -0.152777E+00 -0.123692E+01 -0.409507E-01

  Timings for VdW correction (Tkatchenko-Scheffler 2009 or later):
  | CPU time:        0.089 s, Wall clock time:        0.090 s.
  Removing unitary transformations (pure translations, rotations) from forces on atoms.
  Atomic forces before filtering:
  | Net force on center of mass :  -0.443265E-02 -0.423748E-02  0.124558E-03 eV/A
  | Net torque on center of mass:  -0.767628E-02  0.409677E-02  0.127235E-02 eV
  Atomic forces after filtering:
  | Net force on center of mass :   0.356812E-15  0.535218E-15  0.490617E-15 eV/A
  | Net torque on center of mass:   0.849676E-15  0.330430E-15 -0.330430E-15 eV

  Energy and forces in a compact form:
  | Total energy uncorrected      :         -0.880292402078327E+04 eV
  | Total energy corrected        :         -0.880292402078327E+04 eV  <-- do not rely on this value for anything but (periodic) metals
  | Electronic free energy        :         -0.880292402078327E+04 eV
  Total atomic forces (unitary forces cleaned) [eV/Ang]:
  |   1         -0.559129910474227E+00         -0.245903710441054E+00         -0.905081011438014E+00
  |   2          0.316920105437197E+00          0.106253804872449E+00         -0.107736612233081E+00
  |   3          0.915130815437234E+00          0.600754654874599E+00          0.667389381122988E+00
  |   4         -0.310990576774862E+00         -0.302752342749990E-01         -0.110722814873824E+00
  |   5         -0.105428205548244E+00         -0.243076906520330E+00         -0.162716717742642E+00
  |   6          0.192532995226334E+00         -0.432269056185430E+00          0.749444235675148E-01
  |   7         -0.261172120519569E+00          0.376679907483823E-01          0.243446544480014E-01
  |   8          0.197557902889379E-02         -0.298709875612062E-01          0.174357530836229E+00
  |   9          0.618386495198118E-01          0.239112809992831E-01         -0.183670997261448E+00
  |  10          0.183656486830279E+01          0.209007120205176E+01          0.930307507649974E+00
  |  11          0.577531734895018E+00          0.536922294565820E+00          0.172629779921135E+01
  |  12         -0.251314687615110E+01         -0.117752173824995E+01         -0.208617039066902E+01
  |  13         -0.152627058379275E+00         -0.123666359487932E+01         -0.415427526180261E-01

  ------------------------------------ 
  Start decomposition of the XC Energy 
  ------------------------------------ 
  X and C from original XC functional choice 
  Hartree-Fock Energy :          0.000000000 Ha              0.000000000 eV
  X Energy            :        -41.038176891 Ha          -1116.705610568 eV
  C Energy            :         -1.600308055 Ha            -43.546597792 eV
  Total XC Energy     :        -42.638484946 Ha          -1160.252208360 eV
  ------------------------------------ 
  LDA X and C from self-consistent density 
  X Energy LDA        :        -37.256794678 Ha          -1013.808965224 eV
  C Energy LDA        :         -3.138554427 Ha            -85.404411300 eV
  ------------------------------------ 
  End decomposition of the XC Energy 
  ------------------------------------ 

------------------------------------------------------------

------------------------------------------------------------------------------
  Final output of selected total energy values:

  The following output summarizes some interesting total energy values
  at the end of a run (AFTER all relaxation, molecular dynamics, etc.).

  | Total energy of the DFT / Hartree-Fock s.c.f. calculation      :          -8802.924020783 eV
  | Final zero-broadening corrected energy (caution - metals only) :          -8802.924020783 eV
  | For reference only, the value of 1 Hartree used in FHI-aims is :             27.211384500 eV

  Before relying on these values, please be sure to understand exactly which
  total energy value is referred to by a given number. Different objects may
  all carry the same name 'total energy'. Definitions:

  Total energy of the DFT / Hartree-Fock s.c.f. calculation:
  | Note that this energy does not include ANY quantities calculated after the
  | s.c.f. cycle, in particular not ANY RPA, MP2, etc. many-body perturbation terms.

  Final zero-broadening corrected energy:
  | For metallic systems only, a broadening of the occupation numbers at the Fermi
  | level can be extrapolated back to zero broadening by an electron-gas inspired
  | formula. For all systems that are not real metals, this value can be
  | meaningless and should be avoided.

------------------------------------------------------------------------------
  Methods described in the following list of references were used in this FHI-aims run.
  If you publish the results, please make sure to cite these reference if they apply.
  FHI-aims is an academic code, and for our developers (often, Ph.D. students
  and postdocs), scientific credit in the community is essential.
  Thank you for helping us!

  For any use of FHI-aims, please cite:

    Volker Blum, Ralf Gehrke, Felix Hanke, Paula Havu, Ville Havu,
    Xinguo Ren, Karsten Reuter, and Matthias Scheffler
    'Ab initio molecular simulations with numeric atom-centered orbitals'
    Computer Physics Communications 180, 2175-2196 (2009)
    http://dx.doi.org/10.1016/j.cpc.2009.06.022


  The scalable eigensolver library ELPA was used in your run.
  ELPA is essential especially for large systems on hundreds or thousands of CPUs.
  For ELPA, please cite:

    Andreas Marek, Volker Blum, Rainer Johanni, Ville Havu, Bruno Lang,
    Thomas Auckenthaler, Alexander Heinecke, Hans-Joachim Bungartz, and Hermann Lederer,
    'The ELPA Library - Scalable Parallel Eigenvalue Solutions
    for Electronic Structure Theory and Computational Science'
    The Journal of Physics: Condensed Matter 26, 213201 (2014).
    http://dx.doi.org/10.1088/0953-8984/26/21/213201


  The ELSI infrastructure was used in your run to solve the Kohn-Sham electronic structure.
  Please check out http://elsi-interchange.org to learn more.
  If scalability is important for your project, please acknowledge ELSI by citing:

    V. W-z. Yu, F. Corsetti, A. Garcia, W. P. Huhn, M. Jacquelin, W. Jia,
    B. Lange, L. Lin, J. Lu, W. Mi, A. Seifitokaldani, A. Vazquez-Mayagoitia,
    C. Yang, H. Yang, and V. Blum
    'ELSI: A unified software interface for Kohn-Sham electronic structure solvers'
    Computer Physics Communications 222, 267-285 (2018).
    http://dx.doi.org/10.1016/j.cpc.2017.09.007


  For the real-space grid partitioning and parallelization used in this calculation, please cite:

    Ville Havu, Volker Blum, Paula Havu, and Matthias Scheffler,
    'Efficient O(N) integration for all-electron electronic structure calculation'
    'using numerically tabulated basis functions'
    Journal of Computational Physics 228, 8367-8379 (2009).
    http://dx.doi.org/10.1016/j.jcp.2009.08.008

  Of course, there are many other important community references, e.g., those cited in the
  above references. Our list is limited to references that describe implementations in the
  FHI-aims code. The reason is purely practical (length of this list) - please credit others as well.

------------------------------------------------------------
          Leaving FHI-aims.
          Date     :  20200710, Time     :  152712.249

          Computational steps:
          | Number of self-consistency cycles          :           15
          | Number of SCF (re)initializations          :            1

          Detailed time accounting                     :  max(cpu_time)    wall_clock(cpu1)
          | Total time                                 :       21.485 s          21.562 s
          | Preparation time                           :        0.146 s           0.147 s
          | Boundary condition initalization           :        0.000 s           0.000 s
          | Grid partitioning                          :        0.111 s           0.112 s
          | Preloading free-atom quantities on grid    :        0.002 s           0.002 s
          | Free-atom superposition energy             :        0.085 s           0.085 s
          | Total time for integrations                :        8.135 s           8.152 s
          | Total time for solution of K.-S. equations :        0.035 s           0.035 s
          | Total time for density & force components  :        6.728 s           6.741 s
          | Total time for mixing                      :        0.198 s           0.200 s
          | Total time for Hartree multipole update    :        0.130 s           0.131 s
          | Total time for Hartree multipole sum       :        5.520 s           5.521 s
          | Total time for total energy evaluation     :        0.002 s           0.002 s
          | Total time for vdW correction              :        0.089 s           0.090 s

          Partial memory accounting:
          | Residual value for overall tracked memory usage across tasks :           0.000 MB (should be 0.000 MB)
          | Peak values for overall tracked memory usage (after allocating hessian_basis_wave):
          |   Minimum:        1.622 MB (on task 1)
          |   Maximum:        1.622 MB (on task 1)
          |   Average:        1.622 MB
          | Largest tracked array allocation (hessian_basis_wave):
          |   Minimum:        0.794 MB (on task 1)
          |   Maximum:        0.794 MB (on task 1)
          |   Average:        0.794 MB
          Note:  These values currently only include a subset of arrays which are explicitly tracked.
          The "true" memory usage will be greater.

          Have a nice day.
------------------------------------------------------------
