  MPI-parallelism will be employed.
------------------------------------------------------------
          Invoking FHI-aims ...
          Version 171221_1
          Compiled on 2019/09/09 at 14:39:39 on host puhti-login2.bullx.

          When using FHI-aims, please cite the following reference:

          Volker Blum, Ralf Gehrke, Felix Hanke, Paula Havu,
          Ville Havu, Xinguo Ren, Karsten Reuter, and Matthias Scheffler,
          'Ab Initio Molecular Simulations with Numeric Atom-Centered Orbitals',
          Computer Physics Communications 180, 2175-2196 (2009)

          For any questions about FHI-aims, please visit the aimsclub website
          with its forums and wiki. Contributions to both the forums and the
          wiki are warmly encouraged - they are for you, and everyone is welcome there.

------------------------------------------------------------



  Date     :  20200805, Time     :  182157.038
  Time zero on CPU 1             :   0.119220000000000E-01  s.
  Internal wall clock time zero  :           365883717.038  s.

  FHI-aims created a unique identifier for this run for later identification
  aims_uuid : 50E84744-0849-4E47-AD01-A345B7CE8614

  Using        1 parallel tasks.
  Task        0 on host r16c03.bullx reporting.

  Performing system and environment tests:
  | Environment variable OMP_NUM_THREADS correctly set to 1.
  | Stacksize not measured: no C compiler
  | Checking for scalapack...
  | Testing pdtran()...
  | All pdtran() tests passed.

  Obtaining array dimensions for all initial allocations:
  
  -----------------------------------------------------------------------
  Parsing control.in (first pass over file, find array dimensions only).
  The contents of control.in will be repeated verbatim below
  unless switched off by setting 'verbatim_writeout .false.' .
  in the first line of control.in .
  -----------------------------------------------------------------------
  
  #########################################################################################
  #
  #  Volker Blum, FHI 2009 : Test run input file control.in for simple H2O
  #
  #########################################################################################
  #
  #  Physical model
  #
    xc                 pbe
    vdw_correction_hirshfeld
    spin               none
    relativistic       none
    charge             0.
  #
  #  SCF convergence
  #
    occupation_type    gaussian 0.01
    mixer              pulay
      n_max_pulay        10
      charge_mix_param   0.2
    sc_accuracy_rho    1E-5
    sc_accuracy_eev    1E-3
    sc_accuracy_etot   1E-6
    sc_accuracy_forces 1E-4
    sc_iter_limit      100
  #
  #  Relaxation
  #
  #  relax_geometry   bfgs 1.e-3
  #
  ################################################################################
  #
  #  FHI-aims code project
  #  VB, Fritz-Haber Institut, 2009
  #
  #  Suggested "light" defaults for H atom (to be pasted into control.in file)
  #  Be sure to double-check any results obtained with these settings for post-processing,
  #  e.g., with the "tight" defaults and larger basis sets.
  #
  ################################################################################
    species        H
  #     global species definitions
      nucleus             1
      mass                1.00794
  #
      l_hartree           4
  #
      cut_pot             3.5  1.5  1.0
      basis_dep_cutoff    1e-4
  #
      radial_base         24 5.0
      radial_multiplier   1
      angular_grids       specified
        division   0.2421   50
        division   0.3822  110
        division   0.4799  194
        division   0.5341  302
  #      division   0.5626  434
  #      division   0.5922  590
  #      division   0.6542  770
  #      division   0.6868 1202
  #      outer_grid  770
        outer_grid  302
  ################################################################################
  #
  #  Definition of "minimal" basis
  #
  ################################################################################
  #     valence basis states
      valence      1  s   1.
  #     ion occupancy
      ion_occ      1  s   0.5
  ################################################################################
  #
  #  Suggested additional basis functions. For production calculations,
  #  uncomment them one after another (the most important basis functions are
  #  listed first).
  #
  #  Basis constructed for dimers: 0.5 A, 0.7 A, 1.0 A, 1.5 A, 2.5 A
  #
  ################################################################################
  #  "First tier" - improvements: -1014.90 meV to -62.69 meV
       hydro 2 s 2.1
       hydro 2 p 3.5
  #  "Second tier" - improvements: -12.89 meV to -1.83 meV
  #     hydro 1 s 0.85
  #     hydro 2 p 3.7
  #     hydro 2 s 1.2
  #     hydro 3 d 7
  #  "Third tier" - improvements: -0.25 meV to -0.12 meV
  #     hydro 4 f 11.2
  #     hydro 3 p 4.8
  #     hydro 4 d 9
  #     hydro 3 s 3.2
  ################################################################################
  #
  #  FHI-aims code project
  #  VB, Fritz-Haber Institut, 2009
  #
  #  Suggested "light" defaults for C atom (to be pasted into control.in file)
  #  Be sure to double-check any results obtained with these settings for post-processing,
  #  e.g., with the "tight" defaults and larger basis sets.
  #
  ################################################################################
    species        C
  #     global species definitions
      nucleus             6
      mass                12.0107
  #
      l_hartree           4
  #
      cut_pot             3.5  1.5  1.0
      basis_dep_cutoff    1e-4
  #
      radial_base         34 5.0
      radial_multiplier   1
      angular_grids specified
        division   0.3326   50
        division   0.5710  110
        division   0.7727  194
        division   0.8772  302
  #      division   0.9334  434
  #      division   0.9625  590
  #      division   0.9924  770
  #      division   1.0230  974
  #      division   1.4589 1202
  #     outer_grid  974
       outer_grid 302
  ################################################################################
  #
  #  Definition of "minimal" basis
  #
  ################################################################################
  #     valence basis states
      valence      2  s   2.
      valence      2  p   2.
  #     ion occupancy
      ion_occ      2  s   1.
      ion_occ      2  p   1.
  ################################################################################
  #
  #  Suggested additional basis functions. For production calculations,
  #  uncomment them one after another (the most important basis functions are
  #  listed first).
  #
  #  Constructed for dimers: 1.0 A, 1.25 A, 1.5 A, 2.0 A, 3.0 A
  #
  ################################################################################
  #  "First tier" - improvements: -1214.57 meV to -155.61 meV
       hydro 2 p 1.7
       hydro 3 d 6
       hydro 2 s 4.9
  #  "Second tier" - improvements: -67.75 meV to -5.23 meV
  #     hydro 4 f 9.8
  #     hydro 3 p 5.2
  #     hydro 3 s 4.3
  #     hydro 5 g 14.4
  #     hydro 3 d 6.2
  #  "Third tier" - improvements: -2.43 meV to -0.60 meV
  #     hydro 2 p 5.6
  #     hydro 2 s 1.4
  #     hydro 3 d 4.9
  #     hydro 4 f 11.2
  #  "Fourth tier" - improvements: -0.39 meV to -0.18 meV
  #     hydro 2 p 2.1
  #     hydro 5 g 16.4
  #     hydro 4 d 13.2
  #     hydro 3 s 13.6
  #     hydro 4 f 17.6
  #  Further basis functions - improvements: -0.08 meV and below
  #     hydro 3 s 2
  #     hydro 3 p 6
  #     hydro 4 d 20
  ################################################################################
  #
  #  FHI-aims code project
  #  VB, Fritz-Haber Institut, 2009
  #
  #  Suggested "light" defaults for N atom (to be pasted into control.in file)
  #  Be sure to double-check any results obtained with these settings for post-processing,
  #  e.g., with the "tight" defaults and larger basis sets.
  #
  ################################################################################
    species        N
  #     global species definitions
      nucleus             7
      mass                14.0067
  #
      l_hartree           4
  #
      cut_pot             3.5  1.5  1.0
      basis_dep_cutoff    1e-4
  #
      radial_base         35 5.0
      radial_multiplier   1
      angular_grids       specified
        division   0.2599   50
        division   0.4601  110
        division   0.5885  194
        division   0.6503  302
  #      division   0.6939  434
  #      division   0.7396  590
  #      division   0.7632  770
  #      division   0.8122  974
  #      division   1.1604 1202
  #      outer_grid  974
        outer_grid  302
  ################################################################################
  #
  #  Definition of "minimal" basis
  #
  ################################################################################
  #     valence basis states
      valence      2  s   2.
      valence      2  p   3.
  #     ion occupancy
      ion_occ      2  s   1.
      ion_occ      2  p   2.
  ################################################################################
  #
  #  Suggested additional basis functions. For production calculations,
  #  uncomment them one after another (the most important basis functions are
  #  listed first).
  #
  #  Constructed for dimers: 1.0 A, 1.1 A, 1.5 A, 2.0 A, 3.0 A
  #
  ################################################################################
  #  "First tier" - improvements: -1193.42 meV to -220.60 meV
       hydro 2 p 1.8
       hydro 3 d 6.8
       hydro 3 s 5.8
  #  "Second tier" - improvements: -80.21 meV to -6.86 meV
  #     hydro 4 f 10.8
  #     hydro 3 p 5.8
  #     hydro 1 s 0.8
  #     hydro 5 g 16
  #     hydro 3 d 4.9
  #  "Third tier" - improvements: -4.29 meV to -0.53 meV
  #     hydro 3 s 16
  #     ionic 2 p auto
  #     hydro 3 d 6.6
  #     hydro 4 f 11.6
  #  "Fourth tier" - improvements: -0.75 meV to -0.25 meV
  #     hydro 2 p 4.5
  #     hydro 2 s 2.4
  #     hydro 5 g 14.4
  #     hydro 4 d 14.4
  #     hydro 4 f 16.8
  # Further basis functions - -0.21 meV and below
  #     hydro 3 p 14.8
  #     hydro 3 s 4.4
  #     hydro 3 d 19.6
  #     hydro 5 g 12.8
  ################################################################################
  #
  #  FHI-aims code project
  #  VB, Fritz-Haber Institut, 2009
  #
  #  Suggested "light" defaults for O atom (to be pasted into control.in file)
  #  Be sure to double-check any results obtained with these settings for post-processing,
  #  e.g., with the "tight" defaults and larger basis sets.
  #
  ################################################################################
    species        O
  #     global species definitions
      nucleus             8
      mass                15.9994
  #
      l_hartree           4
  #
      cut_pot             3.5  1.5  1.0
      basis_dep_cutoff    1e-4
  #
      radial_base         36 5.0
      radial_multiplier   1
       angular_grids specified
        division   0.2659   50
        division   0.4451  110
        division   0.6052  194
        division   0.7543  302
  #      division   0.8014  434
  #      division   0.8507  590
  #      division   0.8762  770
  #      division   0.9023  974
  #      division   1.2339 1202
  #      outer_grid 974
        outer_grid 302
  ################################################################################
  #
  #  Definition of "minimal" basis
  #
  ################################################################################
  #     valence basis states
      valence      2  s   2.
      valence      2  p   4.
  #     ion occupancy
      ion_occ      2  s   1.
      ion_occ      2  p   3.
  ################################################################################
  #
  #  Suggested additional basis functions. For production calculations,
  #  uncomment them one after another (the most important basis functions are
  #  listed first).
  #
  #  Constructed for dimers: 1.0 A, 1.208 A, 1.5 A, 2.0 A, 3.0 A
  #
  ################################################################################
  #  "First tier" - improvements: -699.05 meV to -159.38 meV
       hydro 2 p 1.8
       hydro 3 d 7.6
       hydro 3 s 6.4
  #  "Second tier" - improvements: -49.91 meV to -5.39 meV
  #     hydro 4 f 11.6
  #     hydro 3 p 6.2
  #     hydro 3 d 5.6
  #     hydro 5 g 17.6
  #     hydro 1 s 0.75
  #  "Third tier" - improvements: -2.83 meV to -0.50 meV
  #     ionic 2 p auto
  #     hydro 4 f 10.8
  #     hydro 4 d 4.7
  #     hydro 2 s 6.8
  #  "Fourth tier" - improvements: -0.40 meV to -0.12 meV
  #     hydro 3 p 5
  #     hydro 3 s 3.3
  #     hydro 5 g 15.6
  #     hydro 4 f 17.6
  #     hydro 4 d 14
  # Further basis functions - -0.08 meV and below
  #     hydro 3 s 2.1
  #     hydro 4 d 11.6
  #     hydro 3 p 16
  #     hydro 2 s 17.2
  
  -----------------------------------------------------------------------
  Completed first pass over input file control.in .
  -----------------------------------------------------------------------
  
  
  -----------------------------------------------------------------------
  Parsing geometry.in (first pass over file, find array dimensions only).
  The contents of geometry.in will be repeated verbatim below
  unless switched off by setting 'verbatim_writeout .false.' .
  in the first line of geometry.in .
  -----------------------------------------------------------------------
  
  atom  0.00000 0.00000 0.00000 C
  atom  1.09300 0.00000 0.00000 H
  atom  -0.47961 0.00000 -1.41207 N
  atom  0.32012 0.14663 -2.02913 H
  atom  -0.91596 -0.89828 -1.60906 H
  atom  -0.49584 1.26211 0.72868 C
  atom  -1.58789 1.28919 0.74431 H
  atom  -0.13407 1.27425 1.75947 H
  atom  -0.13407 2.16087 0.22380 H
  atom  -0.39425 -1.28861 0.74398 C
  atom  -0.10189 -1.56493 1.88303 O
  atom  -1.10210 -2.13717 0.06896 O
  atom  -0.38107 -2.56089 -0.42658 H
  
  -----------------------------------------------------------------------
  Completed first pass over input file geometry.in .
  -----------------------------------------------------------------------
  

  Basic array size parameters:
  | Number of species                 :        4
  | Number of atoms                   :       13
  | Max. basis fn. angular momentum   :        2
  | Max. atomic/ionic basis occupied n:        2
  | Max. number of basis fn. types    :        2
  | Max. radial fns per species/type  :        3
  | Max. logarithmic grid size        :     1301
  | Max. radial integration grid size :       36
  | Max. angular integration grid size:      302
  | Max. angular grid division number :        8
  | Radial grid for Hartree potential :     1301
  | Number of spin channels           :        1

------------------------------------------------------------
          Reading file control.in.
------------------------------------------------------------
  XC: Using PBE gradient-corrected functionals.
  Spin treatment: No spin polarisation.
  Non-relativistic treatment of kinetic energy.
  Charge =   0.000000E+00: Neutral system requested explicitly.
  Occupation type: Gaussian broadening, width =   0.100000E-01 eV.
  Using pulay charge density mixing.
  Pulay mixing - number of memorized iterations:   10
  Charge density mixing - mixing parameter:     0.2000
  Convergence accuracy of self-consistent charge density:  0.1000E-04
  Convergence accuracy of sum of eigenvalues:  0.1000E-02
  Convergence accuracy of total energy:  0.1000E-05
  Convergence accuracy of forces:  0.1000E-03
  Maximum number of s.-c. iterations  :   100
 
  Reading configuration options for species H                   .
  | Found nuclear charge :   1.0000
  | Found atomic mass :    1.00794000000000      amu
  | Found l_max for Hartree potential  :   4
  | Found cutoff potl. onset [A], width [A], scale factor :    3.50000    1.50000    1.00000
  | Threshold for basis-dependent cutoff potential is   0.100000E-03
  | Found data for basic radial integration grid :    24 points, outermost radius =    5.000 A
  | Found multiplier for basic radial grid :   1
  | Found angular grid specification: user-specified.
  | Specified grid contains     5 separate shells.
  | Check grid settings after all constraints further below.
  | Found free-atom valence shell :  1 s   1.000
  | No ionic wave fns used. Skipping ion_occ.
  | Found hydrogenic basis function :  2 s   2.100
  | Found hydrogenic basis function :  2 p   3.500
  Species H                   : Missing cutoff potential type.
  Defaulting to exp(1/x)/(1-x)^2 type cutoff potential.
  Species H : No 'logarithmic' tag. Using default grid for free atom:
  | Default logarithmic grid data [bohr] : 0.1000E-03 0.1000E+03 0.1012E+01
  Species H : On-site basis accuracy parameter (for Gram-Schmidt orthonormalisation) not specified.
  Using default value basis_acc =  0.1000000E-03.
  Species H                   : Using default innermost maximum threshold i_radial=  2 for radial functions.
  Species H                   : Default cutoff onset for free atom density etc. : 0.35000000E+01 AA.
  Species H                   : Basic radial grid will be enhanced according to radial_multiplier =   1, to contain    24 grid points.
 
  Reading configuration options for species C                   .
  | Found nuclear charge :   6.0000
  | Found atomic mass :    12.0107000000000      amu
  | Found l_max for Hartree potential  :   4
  | Found cutoff potl. onset [A], width [A], scale factor :    3.50000    1.50000    1.00000
  | Threshold for basis-dependent cutoff potential is   0.100000E-03
  | Found data for basic radial integration grid :    34 points, outermost radius =    5.000 A
  | Found multiplier for basic radial grid :   1
  | Found angular grid specification: user-specified.
  | Specified grid contains     5 separate shells.
  | Check grid settings after all constraints further below.
  | Found free-atom valence shell :  2 s   2.000
  | Found free-atom valence shell :  2 p   2.000
  | No ionic wave fns used. Skipping ion_occ.
  | No ionic wave fns used. Skipping ion_occ.
  | Found hydrogenic basis function :  2 p   1.700
  | Found hydrogenic basis function :  3 d   6.000
  | Found hydrogenic basis function :  2 s   4.900
  Species C                   : Missing cutoff potential type.
  Defaulting to exp(1/x)/(1-x)^2 type cutoff potential.
  Species C : No 'logarithmic' tag. Using default grid for free atom:
  | Default logarithmic grid data [bohr] : 0.1000E-03 0.1000E+03 0.1012E+01
  Species C : On-site basis accuracy parameter (for Gram-Schmidt orthonormalisation) not specified.
  Using default value basis_acc =  0.1000000E-03.
  Species C                   : Using default innermost maximum threshold i_radial=  2 for radial functions.
  Species C                   : Default cutoff onset for free atom density etc. : 0.35000000E+01 AA.
  Species C                   : Basic radial grid will be enhanced according to radial_multiplier =   1, to contain    34 grid points.
 
  Reading configuration options for species N                   .
  | Found nuclear charge :   7.0000
  | Found atomic mass :    14.0067000000000      amu
  | Found l_max for Hartree potential  :   4
  | Found cutoff potl. onset [A], width [A], scale factor :    3.50000    1.50000    1.00000
  | Threshold for basis-dependent cutoff potential is   0.100000E-03
  | Found data for basic radial integration grid :    35 points, outermost radius =    5.000 A
  | Found multiplier for basic radial grid :   1
  | Found angular grid specification: user-specified.
  | Specified grid contains     5 separate shells.
  | Check grid settings after all constraints further below.
  | Found free-atom valence shell :  2 s   2.000
  | Found free-atom valence shell :  2 p   3.000
  | No ionic wave fns used. Skipping ion_occ.
  | No ionic wave fns used. Skipping ion_occ.
  | Found hydrogenic basis function :  2 p   1.800
  | Found hydrogenic basis function :  3 d   6.800
  | Found hydrogenic basis function :  3 s   5.800
  Species N                   : Missing cutoff potential type.
  Defaulting to exp(1/x)/(1-x)^2 type cutoff potential.
  Species N : No 'logarithmic' tag. Using default grid for free atom:
  | Default logarithmic grid data [bohr] : 0.1000E-03 0.1000E+03 0.1012E+01
  Species N : On-site basis accuracy parameter (for Gram-Schmidt orthonormalisation) not specified.
  Using default value basis_acc =  0.1000000E-03.
  Species N                   : Using default innermost maximum threshold i_radial=  2 for radial functions.
  Species N                   : Default cutoff onset for free atom density etc. : 0.35000000E+01 AA.
  Species N                   : Basic radial grid will be enhanced according to radial_multiplier =   1, to contain    35 grid points.
 
  Reading configuration options for species O                   .
  | Found nuclear charge :   8.0000
  | Found atomic mass :    15.9994000000000      amu
  | Found l_max for Hartree potential  :   4
  | Found cutoff potl. onset [A], width [A], scale factor :    3.50000    1.50000    1.00000
  | Threshold for basis-dependent cutoff potential is   0.100000E-03
  | Found data for basic radial integration grid :    36 points, outermost radius =    5.000 A
  | Found multiplier for basic radial grid :   1
  | Found angular grid specification: user-specified.
  | Specified grid contains     5 separate shells.
  | Check grid settings after all constraints further below.
  | Found free-atom valence shell :  2 s   2.000
  | Found free-atom valence shell :  2 p   4.000
  | No ionic wave fns used. Skipping ion_occ.
  | No ionic wave fns used. Skipping ion_occ.
  | Found hydrogenic basis function :  2 p   1.800
  | Found hydrogenic basis function :  3 d   7.600
  | Found hydrogenic basis function :  3 s   6.400
  Species O                   : Missing cutoff potential type.
  Defaulting to exp(1/x)/(1-x)^2 type cutoff potential.
  Species O : No 'logarithmic' tag. Using default grid for free atom:
  | Default logarithmic grid data [bohr] : 0.1000E-03 0.1000E+03 0.1012E+01
  Species O : On-site basis accuracy parameter (for Gram-Schmidt orthonormalisation) not specified.
  Using default value basis_acc =  0.1000000E-03.
  Species O                   : Using default innermost maximum threshold i_radial=  2 for radial functions.
  Species O                   : Default cutoff onset for free atom density etc. : 0.35000000E+01 AA.
  Species O                   : Basic radial grid will be enhanced according to radial_multiplier =   1, to contain    36 grid points.
 
  Finished reading input file 'control.in'. Consistency checks are next.
 
  MPI_IN_PLACE appears to work with this MPI implementation.
  | Keeping use_mpi_in_place .true. (see manual).
  Target number of points in a grid batch is not set. Defaulting to  100
  Method for grid partitioning is not set. Defaulting to parallel hash+maxmin partitioning.
  Batch size limit is not set. Defaulting to    200
  By default, will store active basis functions for each batch.
  If in need of memory, prune_basis_once .false. can be used to disable this option.
  communication_type for Hartree potential was not specified.
  Defaulting to calc_hartree .
  Pulay mixer: Number of initial linear mixing iterations not set.
  Defaulting to    0 iterations.
  Work space size for distributed Hartree potential not set.
  Defaulting to   0.200000E+03 MB.
  Algorithm-dependent basis array size parameters:
  | n_max_pulay                         :       10
  Presetting      1001 iterations before the initial mixing cycle
  is restarted anyway using the sc_init_iter criterion / keyword.
  Presetting a factor      1.000 between actual scf density residual
  and density convergence criterion sc_accuracy_rho below which sc_init_iter
  takes no effect.
  Geometry relaxation not requested: no relaxation will be performed.
  Handling of forces: Unphysical translation and rotation will be removed from forces.
  No accuracy limit for integral partition fn. given. Defaulting to  0.1000E-14.
  No threshold value for u(r) in integrations given. Defaulting to  0.1000E-05.
  No accuracy for occupation numbers given. Defaulting to  0.1000E-12.
  No threshold value for occupation numbers given. Defaulting to  0.0000E+00.
  No accuracy for fermi level given. Defaulting to  0.1000E-19.
  Maximum # of iterations to find E_F not set. Defaulting to  200.
  Preferred method for the eigenvalue solver ('KS_method') not specified in 'control.in'.
  Defaulting to serial version, 'lapack_fast'.
  Will not use alltoall communication since running on < 1024 CPUs.
  Threshold for basis singularities not set.
  Default threshold for basis singularities:  0.1000E-04
  partition_type (choice of integration weights) for integrals was not specified.
  | Using a version of the partition function of Stratmann and coworkers ('stratmann_smoother').
  | At each grid point, the set of atoms used to build the partition table is smoothly restricted to
  | only those atoms whose free-atom density would be non-zero at that grid point.
  Partitioning for Hartree potential was not defined. Using partition_type for integrals.
  | Adjusted default value of keyword multip_moments_threshold to:       0.10000000E-11
  | This value may affect high angular momentum components of the Hartree potential in periodic systems.
  No q(lm)/r^(l+1) cutoff set for long-range Hartree potential.
  | Using default value of  0.100000E-09 .
  | Verify using the multipole_threshold keyword.
  Defaulting to new monopole extrapolation.
  Density update method: automatic selection selected.
------------------------------------------------------------


------------------------------------------------------------
          Reading geometry description geometry.in.
------------------------------------------------------------
  Input structure read successfully.
  The structure contains       13 atoms,  and a total of         48.000 electrons.

  Input geometry:
  | No unit cell requested.
  | Atomic structure:
  |       Atom                x [A]            y [A]            z [A]
  |    1: Species C             0.00000000        0.00000000        0.00000000
  |    2: Species H             1.09300000        0.00000000        0.00000000
  |    3: Species N            -0.47961000        0.00000000       -1.41207000
  |    4: Species H             0.32012000        0.14663000       -2.02913000
  |    5: Species H            -0.91596000       -0.89828000       -1.60906000
  |    6: Species C            -0.49584000        1.26211000        0.72868000
  |    7: Species H            -1.58789000        1.28919000        0.74431000
  |    8: Species H            -0.13407000        1.27425000        1.75947000
  |    9: Species H            -0.13407000        2.16087000        0.22380000
  |   10: Species C            -0.39425000       -1.28861000        0.74398000
  |   11: Species O            -0.10189000       -1.56493000        1.88303000
  |   12: Species O            -1.10210000       -2.13717000        0.06896000
  |   13: Species H            -0.38107000       -2.56089000       -0.42658000
  |

  | The smallest distance between any two atoms is         0.97210225 AA.
  |
  | The first atom of this pair is atom number                     12 .
  | The second atom of this pair is atom number                    13 .

  Number of empty states per atom not set in control.in - providing a guess from actual geometry.
  | Total number of empty states used during s.c.f. cycle:       29
  If you use a very high smearing, use empty_states (per atom!) in control.in to increase this value.

  Structure-dependent array size parameters: 
  | Maximum number of distinct radial functions  :       21
  | Maximum number of basis functions            :      119
  | Number of Kohn-Sham states (occupied + empty):       53
------------------------------------------------------------

------------------------------------------------------------
          Preparing all fixed parts of the calculation.
------------------------------------------------------------
  Determining machine precision:
    2.225073858507201E-308
  Setting up grids for atomic and cluster calculations.

  Creating wave function, potential, and density for free atoms.

  Species: H

  List of occupied orbitals and eigenvalues:
    n    l              occ      energy [Ha]    energy [eV]
    1    0           1.0000        -0.237589        -6.4651


  Species: C

  List of occupied orbitals and eigenvalues:
    n    l              occ      energy [Ha]    energy [eV]
    1    0           2.0000       -10.038835      -273.1706
    2    0           2.0000        -0.502696       -13.6791
    2    1           2.0000        -0.191971        -5.2238


  Species: N

  List of occupied orbitals and eigenvalues:
    n    l              occ      energy [Ha]    energy [eV]
    1    0           2.0000       -14.128000      -384.4424
    2    0           2.0000        -0.681077       -18.5330
    2    1           3.0000        -0.259788        -7.0692


  Species: O

  List of occupied orbitals and eigenvalues:
    n    l              occ      energy [Ha]    energy [eV]
    1    0           2.0000       -18.898188      -514.2459
    2    0           2.0000        -0.878505       -23.9053
    2    1           4.0000        -0.331779        -9.0282

  Creating fixed part of basis set: Ionic, confined, hydrogenic.
 
  H                    hydrogenic:
 
  List of hydrogenic basis orbitals: 
    n    l      effective z      eigenvalue [eV]  inner max. [A]     outer max. [A]     outer radius [A]   
    2    0         2.100000       -14.9728           0.193243           1.317208           4.583499
    2    1         3.500000       -41.6669           0.602369           0.602369           3.723403
 
 
  C                    hydrogenic:
 
  List of hydrogenic basis orbitals: 
    n    l      effective z      eigenvalue [eV]  inner max. [A]     outer max. [A]     outer radius [A]   
    2    1         1.700000        -9.7616           1.230570           1.230570           4.607917
    3    2         6.000000       -54.4224           0.792453           0.792453           3.883070
    2    0         4.900000       -81.6679           0.082559           0.562749           3.078220
 
 
  N                    hydrogenic:
 
  List of hydrogenic basis orbitals: 
    n    l      effective z      eigenvalue [eV]  inner max. [A]     outer max. [A]     outer radius [A]   
    2    1         1.800000       -10.9749           1.177451           1.177451           4.573712
    3    2         6.800000       -69.9026           0.704619           0.704619           3.538137
    3    0         5.800000       -50.8545           0.067388           1.191934           4.250239
 
 
  O                    hydrogenic:
 
  List of hydrogenic basis orbitals: 
    n    l      effective z      eigenvalue [eV]  inner max. [A]     outer max. [A]     outer radius [A]   
    2    1         1.800000       -10.9749           1.164242           1.164242           4.578029
    3    2         7.600000       -87.3180           0.624125           0.624125           3.251020
    3    0         6.400000       -61.9207           0.061167           1.081902           4.001998
 

  Adding cutoff potential to free-atom effective potential.
  Creating atomic-like basis functions for current effective potential.

  Species H                   :

  List of atomic basis orbitals and eigenvalues:
    n    l      energy [Ha]    energy [eV]    outer radius [A]
    1    0        -0.237589        -6.4651       4.527807


  Species C                   :

  List of atomic basis orbitals and eigenvalues:
    n    l      energy [Ha]    energy [eV]    outer radius [A]
    1    0       -10.038835      -273.1706       1.934409
    2    0        -0.502696       -13.6791       4.496620
    2    1        -0.191971        -5.2238       4.551928


  Species N                   :

  List of atomic basis orbitals and eigenvalues:
    n    l      energy [Ha]    energy [eV]    outer radius [A]
    1    0       -14.128000      -384.4424       1.637919
    2    0        -0.681077       -18.5330       4.463241
    2    1        -0.259788        -7.0692       4.518138


  Species O                   :

  List of atomic basis orbitals and eigenvalues:
    n    l      energy [Ha]    energy [eV]    outer radius [A]
    1    0       -18.898188      -514.2459       1.415765
    2    0        -0.878505       -23.9053       4.413171
    2    1        -0.331779        -9.0282       4.522403

  Assembling full basis from fixed parts.
  | Species H :   atomic orbital   1 s accepted.
  | Species H :    hydro orbital   2 s accepted.
  | Species H :    hydro orbital   2 p accepted.
  | Species C :   atomic orbital   1 s accepted.
  | Species C :    hydro orbital   2 s accepted.
  | Species C :   atomic orbital   2 s accepted.
  | Species C :   atomic orbital   2 p accepted.
  | Species C :    hydro orbital   2 p accepted.
  | Species C :    hydro orbital   3 d accepted.
  | Species N :   atomic orbital   1 s accepted.
  | Species N :    hydro orbital   3 s accepted.
  | Species N :   atomic orbital   2 s accepted.
  | Species N :   atomic orbital   2 p accepted.
  | Species N :    hydro orbital   2 p accepted.
  | Species N :    hydro orbital   3 d accepted.
  | Species O :   atomic orbital   1 s accepted.
  | Species O :    hydro orbital   3 s accepted.
  | Species O :   atomic orbital   2 s accepted.
  | Species O :   atomic orbital   2 p accepted.
  | Species O :    hydro orbital   2 p accepted.
  | Species O :    hydro orbital   3 d accepted.
 
  Basis size parameters after reduction:
  | Total number of radial functions:       21
  | Total number of basis functions :      119
 
  Per-task memory consumption for arrays in subroutine allocate_ext:
  |           5.250512MB.
  Testing on-site integration grid accuracy.
  |  Species  Function  <phi|h_atom|phi> (log., in eV)  <phi|h_atom|phi> (rad., in eV)
           1        1                 -6.4663192853                 -6.4651273558
           1        2                 13.7111246313                 13.7170609718
           1        3                 25.2673269279                 25.2674696378
           2        4               -273.1705927641               -273.1705631568
           2        5                -10.7109323383                -10.7107120029
           2        6                 17.4381822266                 17.4352413244
           2        7                 -5.2255326521                 -5.2270484734
           2        8                  8.6835629259                  8.6603288385
           2        9                 27.4952418996                 27.4953360207
           3       10               -384.4424306495               -384.4423701208
           3       11                 12.5842251816                 12.5842222903
           3       12                -15.7264628251                -15.7264433455
           3       13                 -7.0696854293                 -7.0701769954
           3       14                  8.8090390882                  8.7901077751
           3       15                 35.9586762123                 35.9588528632
           4       16               -514.2458688638               -514.2457643834
           4       17                 15.1795651126                 15.1795290741
           4       18                -21.5359799773                -21.5360846186
           4       19                 -9.0283069236                 -9.0284644067
           4       20                  8.3027758564                  8.2834874195
           4       21                 45.8339351984                 45.8338762259

  Preparing densities etc. for the partition functions (integrals / Hartree potential).

  Preparations completed.
  max(cpu_time)          :      0.148 s.
  Wall clock time (cpu1) :      0.150 s.
------------------------------------------------------------

------------------------------------------------------------
          Begin self-consistency loop: Initialization.

          Date     :  20200805, Time     :  182157.207
------------------------------------------------------------

  Initializing index lists of integration centers etc. from given atomic structure:
  | Number of centers in hartree potential         :        13
  | Number of centers in hartree multipole         :        13
  | Number of centers in electron density summation:        13
  | Number of centers in basis integrals           :        13
  | Number of centers in integrals                 :        13
  | Number of centers in hamiltonian               :        13
  Partitioning the integration grid into batches with parallel hashing+maxmin method.
  | Number of batches:      955
  | Maximal batch size:     138
  | Minimal batch size:      66
  | Average batch size:      72.928
  | Standard deviation of batch sizes:      17.586

  Integration load balanced across     1 MPI tasks.
  Work distribution over tasks is as follows:
  Task     0 has      69646 integration points.
  Initializing partition tables, free-atom densities, potentials, etc. across the integration grid (initialize_grid_storage).
  | initialize_grid_storage: Actual outermost partition radius vs. multipole_radius_free
  | (-- VB: in principle, multipole_radius_free should be larger, hence this output)
  | Species        1: Confinement radius =              4.999999999999999 AA, multipole_radius_free =              5.054417573612229 AA.
  | Species        1: outer_partition_radius set to              5.054417573612229 AA .
  | Species        2: Confinement radius =              4.999999999999999 AA, multipole_radius_free =              5.019602836301480 AA.
  | Species        2: outer_partition_radius set to              5.019602836301480 AA .
  | Species        3: Confinement radius =              4.999999999999999 AA, multipole_radius_free =              5.043624274424571 AA.
  | Species        3: outer_partition_radius set to              5.043624274424571 AA .
  | Species        4: Confinement radius =              4.999999999999999 AA, multipole_radius_free =              5.048384829883283 AA.
  | Species        4: outer_partition_radius set to              5.048384829883283 AA .
  | Original list of interatomic distances with          13 x         13 entries is created.
  | Net number of integration points:    69646
  | of which are non-zero points    :    59531
  Renormalizing the initial density to the exact electron count on the 3D integration grid.
  | Initial density: Formal number of electrons (from input files) :      48.0000000000
  | Integrated number of electrons on 3D grid     :      48.0000052818
  | Charge integration error                      :       0.0000052818
  | Normalization factor for density and gradient :       0.9999998900
  Obtaining max. number of non-zero basis functions in each batch (get_n_compute_maxes).
  | Maximal number of non-zero basis functions:      119 in task     0
  Selecting the method for density update.
  Loop over occupied states selected for charge density update.
  Allocating        0.050 MB for KS_eigenvector
  Integrating Hamiltonian matrix: batch-based integration.
  Time summed over all CPUs for integration: real work        0.495 s, elapsed        0.495 s
  Integrating overlap matrix.
  Time summed over all CPUs for integration: real work        0.212 s, elapsed        0.212 s

  Updating Kohn-Sham eigenvalues and eigenvectors using ELSI and the ELPA eigensolver.
  Overlap matrix is nonsingular
  | Lowest eigenvalue of overlap  :  0.46E-02
  | Highest eigenvalue of overlap :  0.62E+01
  Finished singularity check of overlap matrix
  | Time :     0.002 s
  Finished Cholesky decomposition
  | Time :     0.001 s
  Finished transformation to standard eigenproblem
  | Time :     0.000 s
  Starting LAPACK eigensolver
  Finished solving standard eigenproblem
  | Time :     0.002 s
  Finished back-transformation of eigenvectors
  | Time :     0.000 s

  Obtaining occupation numbers and chemical potential using ELSI.
  | Chemical potential (Fermi level):    -9.74687949eV
  Writing Kohn-Sham eigenvalues.

  State    Occupation    Eigenvalue [Ha]    Eigenvalue [eV]
      1       2.00000         -19.008456         -517.24639
      2       2.00000         -18.977259         -516.39749
      3       2.00000         -14.245872         -387.64989
      4       2.00000         -10.166583         -276.64681
      5       2.00000         -10.141363         -275.96052
      6       2.00000         -10.132152         -275.70989
      7       2.00000          -1.184067          -32.22010
      8       2.00000          -1.098625          -29.89511
      9       2.00000          -0.990653          -26.95705
     10       2.00000          -0.861766          -23.44985
     11       2.00000          -0.751833          -20.45842
     12       2.00000          -0.682624          -18.57515
     13       2.00000          -0.636385          -17.31691
     14       2.00000          -0.610482          -16.61205
     15       2.00000          -0.578637          -15.74551
     16       2.00000          -0.568591          -15.47216
     17       2.00000          -0.555070          -15.10423
     18       2.00000          -0.530746          -14.44234
     19       2.00000          -0.517260          -14.07536
     20       2.00000          -0.500321          -13.61444
     21       2.00000          -0.459671          -12.50830
     22       2.00000          -0.428071          -11.64841
     23       2.00000          -0.405863          -11.04410
     24       2.00000          -0.386882          -10.52759
     25       0.00000          -0.162753           -4.42873
     26       0.00000          -0.066333           -1.80500
     27       0.00000          -0.028750           -0.78233
     28       0.00000          -0.024628           -0.67015
     29       0.00000           0.001100            0.02994
     30       0.00000           0.010520            0.28627
     31       0.00000           0.022387            0.60919
     32       0.00000           0.029659            0.80708
     33       0.00000           0.046898            1.27615
     34       0.00000           0.070447            1.91696
     35       0.00000           0.088218            2.40053
     36       0.00000           0.130869            3.56112
     37       0.00000           0.159418            4.33798
     38       0.00000           0.197402            5.37159
     39       0.00000           0.216358            5.88741
     40       0.00000           0.225788            6.14400
     41       0.00000           0.256664            6.98419
     42       0.00000           0.276749            7.53073
     43       0.00000           0.286245            7.78911
     44       0.00000           0.319830            8.70303
     45       0.00000           0.334076            9.09067
     46       0.00000           0.351208            9.55686
     47       0.00000           0.367745           10.00684
     48       0.00000           0.393629           10.71119
     49       0.00000           0.424398           11.54846
     50       0.00000           0.486521           13.23891
     51       0.00000           0.519888           14.14687
     52       0.00000           0.532872           14.50018
     53       0.00000           0.559035           15.21211

  Highest occupied state (VBM) at    -10.52759050 eV
  | Occupation number:      2.00000000

  Lowest unoccupied state (CBM) at    -4.42872597 eV
  | Occupation number:      0.00000000

  Overall HOMO-LUMO gap:      6.09886453 eV.
  Calculating total energy contributions from superposition of free atom densities.

  Total energy components:
  | Sum of eigenvalues            :        -188.83846653 Ha       -5138.55612110 eV
  | XC energy correction          :         -41.79105370 Ha       -1137.19243092 eV
  | XC potential correction       :          53.72332964 Ha        1461.88617948 eV
  | Free-atom electrostatic energy:        -146.84940884 Ha       -3995.97572746 eV
  | Hartree energy correction     :           0.00000000 Ha           0.00000000 eV
  | vdW energy correction         :           0.00000000 Ha           0.00000000 eV
  | Entropy correction            :           0.00000000 Ha           0.00000000 eV
  | ---------------------------
  | Total energy                  :        -323.75559943 Ha       -8809.83810001 eV
  | Total energy, T -> 0          :        -323.75559943 Ha       -8809.83810001 eV  <-- do not rely on this value for anything but (periodic) metals
  | Electronic free energy        :        -323.75559943 Ha       -8809.83810001 eV

  Derived energy quantities:
  | Kinetic energy                :         320.50533354 Ha        8721.39386514 eV
  | Electrostatic energy          :        -602.46987926 Ha      -16394.03953423 eV
  | Energy correction for multipole
  | error in Hartree potential    :           0.00000000 Ha           0.00000000 eV
  | Sum of eigenvalues per atom                           :        -395.27354778 eV
  | Total energy (T->0) per atom                          :        -677.67985385 eV  <-- do not rely on this value for anything but (periodic) metals
  | Electronic free energy per atom                       :        -677.67985385 eV
  Initialize hartree_potential_storage
  Max. number of atoms included in rho_multipole:           13

  End scf initialization - timings             :  max(cpu_time)    wall_clock(cpu1)
  | Time for scf. initialization               :        1.152 s           1.154 s
  | Boundary condition initialization          :        0.000 s           0.000 s
  | Integration                                :        0.707 s           0.707 s
  | Solution of K.-S. eqns.                    :        0.004 s           0.005 s
  | Grid partitioning                          :        0.113 s           0.113 s
  | Preloading free-atom quantities on grid    :        0.002 s           0.003 s
  | Free-atom superposition energy             :        0.085 s           0.084 s
  | Total energy evaluation                    :        0.000 s           0.001 s

  Partial memory accounting:
  | Current value for overall tracked memory usage on task 0  :           0.165 MB
  | Peak value for overall tracked memory usage on task 0     :           0.676 MB after allocating wave
  | Largest tracked array allocation on task 0 so far         :           0.131 MB  when allocating H_times_psi
  Note:  These values currently only include a subset of arrays which are explicitly tracked.
  The "true" memory usage will be greater.
------------------------------------------------------------

------------------------------------------------------------
          Begin self-consistency iteration #    1

  Date     :  20200805, Time     :  182158.361
------------------------------------------------------------
  Evaluating new KS density.
  Integration grid: deviation in total charge (<rho> - N_e) =   2.131628E-14
  Pulay mixing of updated and previous charge densities.

  Evaluating partitioned Hartree potential by multipole expansion.
  | Analytical far-field extrapolation by fixed multipoles:
  | Hartree multipole sum: apparent total charge =  -0.986998E-04
  Summing up the Hartree potential.
  Time summed over all CPUs for potential: real work        0.286 s, elapsed        0.286 s
  | RMS charge density error from multipole expansion :   0.593568E-02

  Integrating Hamiltonian matrix: batch-based integration.
  Time summed over all CPUs for integration: real work        0.496 s, elapsed        0.496 s

  Updating Kohn-Sham eigenvalues and eigenvectors using ELSI and the ELPA eigensolver.
  Finished Cholesky decomposition
  | Time :     0.000 s
  Finished transformation to standard eigenproblem
  | Time :     0.000 s
  Starting LAPACK eigensolver
  Finished solving standard eigenproblem
  | Time :     0.002 s
  Finished back-transformation of eigenvectors
  | Time :     0.000 s

  Obtaining occupation numbers and chemical potential using ELSI.
  | Chemical potential (Fermi level):    -4.67900719eV
  Writing Kohn-Sham eigenvalues.

  State    Occupation    Eigenvalue [Ha]    Eigenvalue [eV]
      1       2.00000         -18.902169         -514.35419
      2       2.00000         -18.840400         -512.67337
      3       2.00000         -14.096981         -383.59837
      4       2.00000         -10.120091         -275.38168
      5       2.00000         -10.063439         -273.84012
      6       2.00000         -10.027106         -272.85144
      7       2.00000          -1.136803          -30.93399
      8       2.00000          -1.037565          -28.23357
      9       2.00000          -0.922211          -25.09463
     10       2.00000          -0.794575          -21.62149
     11       2.00000          -0.699597          -19.03700
     12       2.00000          -0.640600          -17.43160
     13       2.00000          -0.582959          -15.86312
     14       2.00000          -0.550182          -14.97120
     15       2.00000          -0.527401          -14.35132
     16       2.00000          -0.505574          -13.75736
     17       2.00000          -0.493647          -13.43282
     18       2.00000          -0.467587          -12.72368
     19       2.00000          -0.452416          -12.31086
     20       2.00000          -0.440558          -11.98820
     21       2.00000          -0.399946          -10.88308
     22       2.00000          -0.374989          -10.20397
     23       2.00000          -0.335897           -9.14022
     24       2.00000          -0.312557           -8.50512
     25       0.00000          -0.129118           -3.51349
     26       0.00000          -0.048520           -1.32031
     27       0.00000          -0.005454           -0.14842
     28       0.00000           0.015321            0.41690
     29       0.00000           0.030628            0.83344
     30       0.00000           0.053201            1.44766
     31       0.00000           0.062334            1.69620
     32       0.00000           0.074523            2.02788
     33       0.00000           0.086318            2.34883
     34       0.00000           0.105587            2.87316
     35       0.00000           0.125753            3.42191
     36       0.00000           0.159230            4.33286
     37       0.00000           0.182195            4.95777
     38       0.00000           0.225190            6.12773
     39       0.00000           0.254411            6.92287
     40       0.00000           0.260301            7.08314
     41       0.00000           0.295172            8.03203
     42       0.00000           0.311313            8.47127
     43       0.00000           0.317715            8.64547
     44       0.00000           0.357930            9.73978
     45       0.00000           0.369592           10.05710
     46       0.00000           0.385779           10.49758
     47       0.00000           0.411202           11.18938
     48       0.00000           0.432275           11.76281
     49       0.00000           0.460434           12.52904
     50       0.00000           0.521937           14.20264
     51       0.00000           0.556370           15.13959
     52       0.00000           0.568951           15.48194
     53       0.00000           0.589441           16.03950

  Highest occupied state (VBM) at     -8.50511910 eV
  | Occupation number:      2.00000000

  Lowest unoccupied state (CBM) at    -3.51349315 eV
  | Occupation number:      0.00000000

  Overall HOMO-LUMO gap:      4.99162595 eV.

  Total energy components:
  | Sum of eigenvalues            :        -185.45049886 Ha       -5046.36483013 eV
  | XC energy correction          :         -42.12014784 Ha       -1146.14753800 eV
  | XC potential correction       :          54.15134958 Ha        1473.53319453 eV
  | Free-atom electrostatic energy:        -146.84940884 Ha       -3995.97572746 eV
  | Hartree energy correction     :          -3.30026940 Ha         -89.80489971 eV
  | vdW energy correction         :           0.00000000 Ha           0.00000000 eV
  | Entropy correction            :           0.00000000 Ha           0.00000000 eV
  | ---------------------------
  | Total energy                  :        -323.56897536 Ha       -8804.75980078 eV
  | Total energy, T -> 0          :        -323.56897536 Ha       -8804.75980078 eV  <-- do not rely on this value for anything but (periodic) metals
  | Electronic free energy        :        -323.56897536 Ha       -8804.75980078 eV

  Derived energy quantities:
  | Kinetic energy                :         322.30411729 Ha        8770.34126162 eV
  | Electrostatic energy          :        -603.75294482 Ha      -16428.95352440 eV
  | Energy correction for multipole
  | error in Hartree potential    :           0.01210099 Ha           0.32928466 eV
  | Sum of eigenvalues per atom                           :        -388.18191001 eV
  | Total energy (T->0) per atom                          :        -677.28921544 eV  <-- do not rely on this value for anything but (periodic) metals
  | Electronic free energy per atom                       :        -677.28921544 eV

  Self-consistency convergence accuracy:
  | Change of charge density      :  0.5886E+00
  | Change of sum of eigenvalues  :  0.9219E+02 eV
  | Change of total energy        :  0.5078E+01 eV

  End self-consistency iteration #     1       :  max(cpu_time)    wall_clock(cpu1)
  | Time for this iteration                    :        1.193 s           1.196 s
  | Charge density update                      :        0.396 s           0.396 s
  | Density mixing                             :        0.005 s           0.005 s
  | Hartree multipole update                   :        0.009 s           0.009 s
  | Hartree multipole summation                :        0.285 s           0.287 s
  | Integration                                :        0.496 s           0.496 s
  | Solution of K.-S. eqns.                    :        0.002 s           0.002 s
  | Total energy evaluation                    :        0.000 s           0.000 s

  Partial memory accounting:
  | Current value for overall tracked memory usage on task 0  :           0.165 MB
  | Peak value for overall tracked memory usage on task 0     :           0.691 MB after allocating gradient_basis_wave
  | Largest tracked array allocation on task 0 so far         :           0.394 MB  when allocating gradient_basis_wave
  Note:  These values currently only include a subset of arrays which are explicitly tracked.
  The "true" memory usage will be greater.
------------------------------------------------------------

------------------------------------------------------------
          Begin self-consistency iteration #    2

  Date     :  20200805, Time     :  182159.559
------------------------------------------------------------
  Evaluating new KS density.
  Integration grid: deviation in total charge (<rho> - N_e) =   7.105427E-15
  Pulay mixing of updated and previous charge densities.

  Evaluating partitioned Hartree potential by multipole expansion.
  | Analytical far-field extrapolation by fixed multipoles:
  | Hartree multipole sum: apparent total charge =  -0.229180E-03
  Summing up the Hartree potential.
  Time summed over all CPUs for potential: real work        0.284 s, elapsed        0.284 s
  | RMS charge density error from multipole expansion :   0.139753E-01

  Integrating Hamiltonian matrix: batch-based integration.
  Time summed over all CPUs for integration: real work        0.501 s, elapsed        0.501 s

  Updating Kohn-Sham eigenvalues and eigenvectors using ELSI and the ELPA eigensolver.
  Finished Cholesky decomposition
  | Time :     0.000 s
  Finished transformation to standard eigenproblem
  | Time :     0.000 s
  Starting LAPACK eigensolver
  Finished solving standard eigenproblem
  | Time :     0.002 s
  Finished back-transformation of eigenvectors
  | Time :     0.000 s

  Obtaining occupation numbers and chemical potential using ELSI.
  | Chemical potential (Fermi level):    -3.61149396eV
  Highest occupied state (VBM) at     -6.51682685 eV
  | Occupation number:      2.00000000

  Lowest unoccupied state (CBM) at    -2.35593066 eV
  | Occupation number:      0.00000000

  Overall HOMO-LUMO gap:      4.16089619 eV.

  Checking to see if s.c.f. parameters should be adjusted.

  Total energy components:
  | Sum of eigenvalues            :        -181.93500191 Ha       -4950.70329109 eV
  | XC energy correction          :         -42.47515340 Ha       -1155.80773093 eV
  | XC potential correction       :          54.61151665 Ha        1486.05497774 eV
  | Free-atom electrostatic energy:        -146.84940884 Ha       -3995.97572746 eV
  | Hartree energy correction     :          -6.84124329 Ha        -186.15970162 eV
  | vdW energy correction         :           0.00000000 Ha           0.00000000 eV
  | Entropy correction            :           0.00000000 Ha           0.00000000 eV
  | ---------------------------
  | Total energy                  :        -323.48929079 Ha       -8802.59147337 eV
  | Total energy, T -> 0          :        -323.48929079 Ha       -8802.59147337 eV  <-- do not rely on this value for anything but (periodic) metals
  | Electronic free energy        :        -323.48929079 Ha       -8802.59147337 eV

  Derived energy quantities:
  | Kinetic energy                :         323.60629986 Ha        8805.77545198 eV
  | Electrostatic energy          :        -604.62043724 Ha      -16452.55919442 eV
  | Energy correction for multipole
  | error in Hartree potential    :           0.02640127 Ha           0.71841508 eV
  | Sum of eigenvalues per atom                           :        -380.82333008 eV
  | Total energy (T->0) per atom                          :        -677.12242103 eV  <-- do not rely on this value for anything but (periodic) metals
  | Electronic free energy per atom                       :        -677.12242103 eV

  Self-consistency convergence accuracy:
  | Change of charge density      :  0.3682E+00
  | Change of sum of eigenvalues  :  0.9566E+02 eV
  | Change of total energy        :  0.2168E+01 eV

  End self-consistency iteration #     2       :  max(cpu_time)    wall_clock(cpu1)
  | Time for this iteration                    :        1.185 s           1.193 s
  | Charge density update                      :        0.388 s           0.388 s
  | Density mixing                             :        0.007 s           0.008 s
  | Hartree multipole update                   :        0.009 s           0.008 s
  | Hartree multipole summation                :        0.284 s           0.285 s
  | Integration                                :        0.495 s           0.502 s
  | Solution of K.-S. eqns.                    :        0.002 s           0.002 s
  | Total energy evaluation                    :        0.000 s           0.000 s

  Partial memory accounting:
  | Current value for overall tracked memory usage on task 0  :           0.166 MB
  | Peak value for overall tracked memory usage on task 0     :           0.691 MB after allocating gradient_basis_wave
  | Largest tracked array allocation on task 0 so far         :           0.394 MB  when allocating gradient_basis_wave
  Note:  These values currently only include a subset of arrays which are explicitly tracked.
  The "true" memory usage will be greater.
------------------------------------------------------------

------------------------------------------------------------
          Begin self-consistency iteration #    3

  Date     :  20200805, Time     :  182200.755
------------------------------------------------------------
  Evaluating new KS density.
  Integration grid: deviation in total charge (<rho> - N_e) =   7.105427E-15
  Pulay mixing of updated and previous charge densities.

  Evaluating partitioned Hartree potential by multipole expansion.
  | Analytical far-field extrapolation by fixed multipoles:
  | Hartree multipole sum: apparent total charge =  -0.321000E-03
  Summing up the Hartree potential.
  Time summed over all CPUs for potential: real work        0.284 s, elapsed        0.284 s
  | RMS charge density error from multipole expansion :   0.219523E-01

  Integrating Hamiltonian matrix: batch-based integration.
  Time summed over all CPUs for integration: real work        0.496 s, elapsed        0.496 s

  Updating Kohn-Sham eigenvalues and eigenvectors using ELSI and the ELPA eigensolver.
  Finished Cholesky decomposition
  | Time :     0.000 s
  Finished transformation to standard eigenproblem
  | Time :     0.000 s
  Starting LAPACK eigensolver
  Finished solving standard eigenproblem
  | Time :     0.002 s
  Finished back-transformation of eigenvectors
  | Time :     0.000 s

  Obtaining occupation numbers and chemical potential using ELSI.
  | Chemical potential (Fermi level):    -3.04592798eV
  Highest occupied state (VBM) at     -5.83881900 eV
  | Occupation number:      2.00000000

  Lowest unoccupied state (CBM) at    -1.69833460 eV
  | Occupation number:      0.00000000

  Overall HOMO-LUMO gap:      4.14048440 eV.

  Total energy components:
  | Sum of eigenvalues            :        -180.60675650 Ha       -4914.55989431 eV
  | XC energy correction          :         -42.63007890 Ha       -1160.02346812 eV
  | XC potential correction       :          54.80924004 Ha        1491.43530490 eV
  | Free-atom electrostatic energy:        -146.84940884 Ha       -3995.97572746 eV
  | Hartree energy correction     :          -8.19869529 Ha        -223.09784999 eV
  | vdW energy correction         :           0.00000000 Ha           0.00000000 eV
  | Entropy correction            :           0.00000000 Ha           0.00000000 eV
  | ---------------------------
  | Total energy                  :        -323.47569948 Ha       -8802.22163499 eV
  | Total energy, T -> 0          :        -323.47569948 Ha       -8802.22163499 eV  <-- do not rely on this value for anything but (periodic) metals
  | Electronic free energy        :        -323.47569948 Ha       -8802.22163499 eV

  Derived energy quantities:
  | Kinetic energy                :         323.23796916 Ha        8795.75266370 eV
  | Electrostatic energy          :        -604.08358974 Ha      -16437.95083056 eV
  | Energy correction for multipole
  | error in Hartree potential    :           0.03724509 Ha           1.01349051 eV
  | Sum of eigenvalues per atom                           :        -378.04306879 eV
  | Total energy (T->0) per atom                          :        -677.09397192 eV  <-- do not rely on this value for anything but (periodic) metals
  | Electronic free energy per atom                       :        -677.09397192 eV

  Self-consistency convergence accuracy:
  | Change of charge density      :  0.2079E+00
  | Change of sum of eigenvalues  :  0.3614E+02 eV
  | Change of total energy        :  0.3698E+00 eV

  End self-consistency iteration #     3       :  max(cpu_time)    wall_clock(cpu1)
  | Time for this iteration                    :        1.189 s           1.191 s
  | Charge density update                      :        0.388 s           0.389 s
  | Density mixing                             :        0.009 s           0.009 s
  | Hartree multipole update                   :        0.009 s           0.009 s
  | Hartree multipole summation                :        0.285 s           0.285 s
  | Integration                                :        0.496 s           0.496 s
  | Solution of K.-S. eqns.                    :        0.002 s           0.002 s
  | Total energy evaluation                    :        0.000 s           0.001 s

  Partial memory accounting:
  | Current value for overall tracked memory usage on task 0  :           0.166 MB
  | Peak value for overall tracked memory usage on task 0     :           0.692 MB after allocating gradient_basis_wave
  | Largest tracked array allocation on task 0 so far         :           0.394 MB  when allocating gradient_basis_wave
  Note:  These values currently only include a subset of arrays which are explicitly tracked.
  The "true" memory usage will be greater.
------------------------------------------------------------

------------------------------------------------------------
          Begin self-consistency iteration #    4

  Date     :  20200805, Time     :  182201.948
------------------------------------------------------------
  Evaluating new KS density.
  Integration grid: deviation in total charge (<rho> - N_e) =   0.000000E+00
  Pulay mixing of updated and previous charge densities.

  Evaluating partitioned Hartree potential by multipole expansion.
  | Analytical far-field extrapolation by fixed multipoles:
  | Hartree multipole sum: apparent total charge =  -0.352233E-03
  Summing up the Hartree potential.
  Time summed over all CPUs for potential: real work        0.284 s, elapsed        0.284 s
  | RMS charge density error from multipole expansion :   0.254610E-01

  Integrating Hamiltonian matrix: batch-based integration.
  Time summed over all CPUs for integration: real work        0.496 s, elapsed        0.496 s

  Updating Kohn-Sham eigenvalues and eigenvectors using ELSI and the ELPA eigensolver.
  Finished Cholesky decomposition
  | Time :     0.000 s
  Finished transformation to standard eigenproblem
  | Time :     0.000 s
  Starting LAPACK eigensolver
  Finished solving standard eigenproblem
  | Time :     0.002 s
  Finished back-transformation of eigenvectors
  | Time :     0.000 s

  Obtaining occupation numbers and chemical potential using ELSI.
  | Chemical potential (Fermi level):    -2.93499179eV
  Highest occupied state (VBM) at     -5.67075387 eV
  | Occupation number:      2.00000000

  Lowest unoccupied state (CBM) at    -1.59791902 eV
  | Occupation number:      0.00000000

  Overall HOMO-LUMO gap:      4.07283485 eV.

  Total energy components:
  | Sum of eigenvalues            :        -180.45646933 Ha       -4910.47037250 eV
  | XC energy correction          :         -42.66896946 Ha       -1161.08173414 eV
  | XC potential correction       :          54.85817854 Ha        1492.76698912 eV
  | Free-atom electrostatic energy:        -146.84940884 Ha       -3995.97572746 eV
  | Hartree energy correction     :          -8.35799647 Ha        -227.43265550 eV
  | vdW energy correction         :           0.00000000 Ha           0.00000000 eV
  | Entropy correction            :           0.00000000 Ha           0.00000000 eV
  | ---------------------------
  | Total energy                  :        -323.47466556 Ha       -8802.19350049 eV
  | Total energy, T -> 0          :        -323.47466556 Ha       -8802.19350049 eV  <-- do not rely on this value for anything but (periodic) metals
  | Electronic free energy        :        -323.47466556 Ha       -8802.19350049 eV

  Derived energy quantities:
  | Kinetic energy                :         322.84713752 Ha        8785.11759367 eV
  | Electrostatic energy          :        -603.65283361 Ha      -16426.22936001 eV
  | Energy correction for multipole
  | error in Hartree potential    :           0.04147630 Ha           1.12862764 eV
  | Sum of eigenvalues per atom                           :        -377.72849019 eV
  | Total energy (T->0) per atom                          :        -677.09180773 eV  <-- do not rely on this value for anything but (periodic) metals
  | Electronic free energy per atom                       :        -677.09180773 eV

  Self-consistency convergence accuracy:
  | Change of charge density      :  0.6854E-01
  | Change of sum of eigenvalues  :  0.4090E+01 eV
  | Change of total energy        :  0.2813E-01 eV

  End self-consistency iteration #     4       :  max(cpu_time)    wall_clock(cpu1)
  | Time for this iteration                    :        1.189 s           1.191 s
  | Charge density update                      :        0.388 s           0.389 s
  | Density mixing                             :        0.010 s           0.010 s
  | Hartree multipole update                   :        0.009 s           0.009 s
  | Hartree multipole summation                :        0.284 s           0.284 s
  | Integration                                :        0.496 s           0.496 s
  | Solution of K.-S. eqns.                    :        0.002 s           0.002 s
  | Total energy evaluation                    :        0.000 s           0.000 s

  Partial memory accounting:
  | Current value for overall tracked memory usage on task 0  :           0.166 MB
  | Peak value for overall tracked memory usage on task 0     :           0.692 MB after allocating gradient_basis_wave
  | Largest tracked array allocation on task 0 so far         :           0.394 MB  when allocating gradient_basis_wave
  Note:  These values currently only include a subset of arrays which are explicitly tracked.
  The "true" memory usage will be greater.
------------------------------------------------------------

------------------------------------------------------------
          Begin self-consistency iteration #    5

  Date     :  20200805, Time     :  182203.141
------------------------------------------------------------
  Evaluating new KS density.
  Integration grid: deviation in total charge (<rho> - N_e) =   1.421085E-14
  Pulay mixing of updated and previous charge densities.

  Evaluating partitioned Hartree potential by multipole expansion.
  | Analytical far-field extrapolation by fixed multipoles:
  | Hartree multipole sum: apparent total charge =  -0.346537E-03
  Summing up the Hartree potential.
  Time summed over all CPUs for potential: real work        0.285 s, elapsed        0.285 s
  | RMS charge density error from multipole expansion :   0.252650E-01

  Integrating Hamiltonian matrix: batch-based integration.
  Time summed over all CPUs for integration: real work        0.496 s, elapsed        0.496 s

  Updating Kohn-Sham eigenvalues and eigenvectors using ELSI and the ELPA eigensolver.
  Finished Cholesky decomposition
  | Time :     0.000 s
  Finished transformation to standard eigenproblem
  | Time :     0.000 s
  Starting LAPACK eigensolver
  Finished solving standard eigenproblem
  | Time :     0.002 s
  Finished back-transformation of eigenvectors
  | Time :     0.000 s

  Obtaining occupation numbers and chemical potential using ELSI.
  | Chemical potential (Fermi level):    -2.98997666eV
  Highest occupied state (VBM) at     -5.76018164 eV
  | Occupation number:      2.00000000

  Lowest unoccupied state (CBM) at    -1.69354754 eV
  | Occupation number:      0.00000000

  Overall HOMO-LUMO gap:      4.06663410 eV.

  Total energy components:
  | Sum of eigenvalues            :        -180.66845669 Ha       -4916.23884212 eV
  | XC energy correction          :         -42.64302594 Ha       -1160.37577497 eV
  | XC potential correction       :          54.82450440 Ha        1491.85066931 eV
  | Free-atom electrostatic energy:        -146.84940884 Ha       -3995.97572746 eV
  | Hartree energy correction     :          -8.13798878 Ha        -221.44594170 eV
  | vdW energy correction         :           0.00000000 Ha           0.00000000 eV
  | Entropy correction            :           0.00000000 Ha           0.00000000 eV
  | ---------------------------
  | Total energy                  :        -323.47437584 Ha       -8802.18561694 eV
  | Total energy, T -> 0          :        -323.47437584 Ha       -8802.18561694 eV  <-- do not rely on this value for anything but (periodic) metals
  | Electronic free energy        :        -323.47437584 Ha       -8802.18561694 eV

  Derived energy quantities:
  | Kinetic energy                :         322.71349214 Ha        8781.48091804 eV
  | Electrostatic energy          :        -603.54484205 Ha      -16423.29076000 eV
  | Energy correction for multipole
  | error in Hartree potential    :           0.04084331 Ha           1.11140305 eV
  | Sum of eigenvalues per atom                           :        -378.17221862 eV
  | Total energy (T->0) per atom                          :        -677.09120130 eV  <-- do not rely on this value for anything but (periodic) metals
  | Electronic free energy per atom                       :        -677.09120130 eV

  Self-consistency convergence accuracy:
  | Change of charge density      :  0.2080E-01
  | Change of sum of eigenvalues  : -0.5768E+01 eV
  | Change of total energy        :  0.7884E-02 eV

  End self-consistency iteration #     5       :  max(cpu_time)    wall_clock(cpu1)
  | Time for this iteration                    :        1.191 s           1.192 s
  | Charge density update                      :        0.388 s           0.388 s
  | Density mixing                             :        0.011 s           0.011 s
  | Hartree multipole update                   :        0.009 s           0.009 s
  | Hartree multipole summation                :        0.285 s           0.285 s
  | Integration                                :        0.496 s           0.495 s
  | Solution of K.-S. eqns.                    :        0.002 s           0.003 s
  | Total energy evaluation                    :        0.000 s           0.000 s

  Partial memory accounting:
  | Current value for overall tracked memory usage on task 0  :           0.166 MB
  | Peak value for overall tracked memory usage on task 0     :           0.692 MB after allocating gradient_basis_wave
  | Largest tracked array allocation on task 0 so far         :           0.394 MB  when allocating gradient_basis_wave
  Note:  These values currently only include a subset of arrays which are explicitly tracked.
  The "true" memory usage will be greater.
------------------------------------------------------------

------------------------------------------------------------
          Begin self-consistency iteration #    6

  Date     :  20200805, Time     :  182204.335
------------------------------------------------------------
  Evaluating new KS density.
  Integration grid: deviation in total charge (<rho> - N_e) =   2.842171E-14
  Pulay mixing of updated and previous charge densities.

  Evaluating partitioned Hartree potential by multipole expansion.
  | Analytical far-field extrapolation by fixed multipoles:
  | Hartree multipole sum: apparent total charge =  -0.350957E-03
  Summing up the Hartree potential.
  Time summed over all CPUs for potential: real work        0.283 s, elapsed        0.284 s
  | RMS charge density error from multipole expansion :   0.257570E-01

  Integrating Hamiltonian matrix: batch-based integration.
  Time summed over all CPUs for integration: real work        0.495 s, elapsed        0.495 s

  Updating Kohn-Sham eigenvalues and eigenvectors using ELSI and the ELPA eigensolver.
  Finished Cholesky decomposition
  | Time :     0.000 s
  Finished transformation to standard eigenproblem
  | Time :     0.000 s
  Starting LAPACK eigensolver
  Finished solving standard eigenproblem
  | Time :     0.002 s
  Finished back-transformation of eigenvectors
  | Time :     0.000 s

  Obtaining occupation numbers and chemical potential using ELSI.
  | Chemical potential (Fermi level):    -2.97631661eV
  Highest occupied state (VBM) at     -5.71562503 eV
  | Occupation number:      2.00000000

  Lowest unoccupied state (CBM) at    -1.69741085 eV
  | Occupation number:      0.00000000

  Overall HOMO-LUMO gap:      4.01821418 eV.

  Total energy components:
  | Sum of eigenvalues            :        -180.64444673 Ha       -4915.58549773 eV
  | XC energy correction          :         -42.64520171 Ha       -1160.43498089 eV
  | XC potential correction       :          54.82729938 Ha        1491.92672459 eV
  | Free-atom electrostatic energy:        -146.84940884 Ha       -3995.97572746 eV
  | Hartree energy correction     :          -8.16257415 Ha        -222.11494374 eV
  | vdW energy correction         :           0.00000000 Ha           0.00000000 eV
  | Entropy correction            :           0.00000000 Ha           0.00000000 eV
  | ---------------------------
  | Total energy                  :        -323.47433205 Ha       -8802.18442523 eV
  | Total energy, T -> 0          :        -323.47433205 Ha       -8802.18442523 eV  <-- do not rely on this value for anything but (periodic) metals
  | Electronic free energy        :        -323.47433205 Ha       -8802.18442523 eV

  Derived energy quantities:
  | Kinetic energy                :         322.64334337 Ha        8779.57207293 eV
  | Electrostatic energy          :        -603.47247371 Ha      -16421.32151726 eV
  | Energy correction for multipole
  | error in Hartree potential    :           0.04130605 Ha           1.12399471 eV
  | Sum of eigenvalues per atom                           :        -378.12196136 eV
  | Total energy (T->0) per atom                          :        -677.09110963 eV  <-- do not rely on this value for anything but (periodic) metals
  | Electronic free energy per atom                       :        -677.09110963 eV

  Self-consistency convergence accuracy:
  | Change of charge density      :  0.1094E-01
  | Change of sum of eigenvalues  :  0.6533E+00 eV
  | Change of total energy        :  0.1192E-02 eV

  End self-consistency iteration #     6       :  max(cpu_time)    wall_clock(cpu1)
  | Time for this iteration                    :        1.190 s           1.192 s
  | Charge density update                      :        0.388 s           0.389 s
  | Density mixing                             :        0.012 s           0.012 s
  | Hartree multipole update                   :        0.009 s           0.009 s
  | Hartree multipole summation                :        0.284 s           0.284 s
  | Integration                                :        0.495 s           0.495 s
  | Solution of K.-S. eqns.                    :        0.002 s           0.002 s
  | Total energy evaluation                    :        0.000 s           0.001 s

  Partial memory accounting:
  | Current value for overall tracked memory usage on task 0  :           0.166 MB
  | Peak value for overall tracked memory usage on task 0     :           0.692 MB after allocating gradient_basis_wave
  | Largest tracked array allocation on task 0 so far         :           0.394 MB  when allocating gradient_basis_wave
  Note:  These values currently only include a subset of arrays which are explicitly tracked.
  The "true" memory usage will be greater.
------------------------------------------------------------

------------------------------------------------------------
          Begin self-consistency iteration #    7

  Date     :  20200805, Time     :  182205.529
------------------------------------------------------------
  Evaluating new KS density.
  Integration grid: deviation in total charge (<rho> - N_e) =  -2.842171E-14
  Pulay mixing of updated and previous charge densities.

  Evaluating partitioned Hartree potential by multipole expansion.
  | Analytical far-field extrapolation by fixed multipoles:
  | Hartree multipole sum: apparent total charge =  -0.351548E-03
  Summing up the Hartree potential.
  Time summed over all CPUs for potential: real work        0.285 s, elapsed        0.285 s
  | RMS charge density error from multipole expansion :   0.258473E-01

  Integrating Hamiltonian matrix: batch-based integration.
  Time summed over all CPUs for integration: real work        0.495 s, elapsed        0.495 s

  Updating Kohn-Sham eigenvalues and eigenvectors using ELSI and the ELPA eigensolver.
  Finished Cholesky decomposition
  | Time :     0.000 s
  Finished transformation to standard eigenproblem
  | Time :     0.000 s
  Starting LAPACK eigensolver
  Finished solving standard eigenproblem
  | Time :     0.002 s
  Finished back-transformation of eigenvectors
  | Time :     0.000 s

[...]
  |   Hirshfeld dipole moment :      0.05541470
  |   Hirshfeld second moments:      0.01776365      -0.03243857      -0.01844827
  |                                 -0.03243857      -0.01945455       0.00830908
  |                                 -0.01844827       0.00830908      -0.01377061
  ----------------------------------------------------------------------
  | Atom    12: O
  |   Hirshfeld charge        :     -0.15272612
  |   Free atom volume        :     23.61338643
  |   Hirshfeld volume        :     20.74336067
  |   Hirshfeld dipole vector :      0.03078440       0.02966735      -0.00612310
  |   Hirshfeld dipole moment :      0.04318939
  |   Hirshfeld second moments:      0.05920939      -0.02797671      -0.01418129
  |                                 -0.02797671       0.06869604       0.03555551
  |                                 -0.01418129       0.03555551       0.05904744
  ----------------------------------------------------------------------
  | Atom    13: H
  |   Hirshfeld charge        :      0.18656032
  |   Free atom volume        :      9.95071624
  |   Hirshfeld volume        :      5.99952956
  |   Hirshfeld dipole vector :      0.08666774      -0.06411902      -0.06731967
  |   Hirshfeld dipole moment :      0.12710029
  |   Hirshfeld second moments:      0.12243812      -0.00418931       0.00513482
  |                                 -0.00418931       0.12061649       0.00887591
  |                                  0.00513482       0.00887591       0.11459355
  ----------------------------------------------------------------------


  Total energy components:
  | Sum of eigenvalues            :        -180.64502847 Ha       -4915.60132778 eV
  | XC energy correction          :         -42.64186512 Ha       -1160.34418745 eV
  | XC potential correction       :          54.82306703 Ha        1491.81155630 eV
  | Free-atom electrostatic energy:        -146.84940884 Ha       -3995.97572746 eV
  | Hartree energy correction     :          -8.16107342 Ha        -222.07410673 eV
  | vdW energy correction         :          -0.00322233 Ha          -0.08768418 eV
  | Entropy correction            :           0.00000000 Ha           0.00000000 eV
  | ---------------------------
  | Total energy                  :        -323.47753115 Ha       -8802.27147732 eV
  | Total energy, T -> 0          :        -323.47753115 Ha       -8802.27147732 eV  <-- do not rely on this value for anything but (periodic) metals
  | Electronic free energy        :        -323.47753115 Ha       -8802.27147732 eV

  Derived energy quantities:
  | Kinetic energy                :         322.60768822 Ha        8778.60184684 eV
  | Electrostatic energy          :        -603.44013192 Ha      -16420.44145252 eV
  | Energy correction for multipole
  | error in Hartree potential    :           0.04132079 Ha           1.12439593 eV
  | Sum of eigenvalues per atom                           :        -378.12317906 eV
  | Total energy (T->0) per atom                          :        -677.09780595 eV  <-- do not rely on this value for anything but (periodic) metals
  | Electronic free energy per atom                       :        -677.09780595 eV

  atomic forces [eV/Ang]:
  -----------------------
  atom #    1
   Hellmann-Feynman              :  0.509192E+00  0.222936E+00  0.105533E+01
   Ionic forces                  :  0.000000E+00  0.000000E+00  0.000000E+00
   Multipole                     :  0.229825E+00  0.108447E+00 -0.287968E+00
   Pulay + GGA                   : -0.111153E+01 -0.100218E+00 -0.123992E+01
   Van der Waals                 :  0.232565E-02  0.574080E-02 -0.530057E-03
   ----------------------------------------------------------------
   Total forces(   1)            : -0.370183E+00  0.236905E+00 -0.473083E+00
  atom #    2
   Hellmann-Feynman              :  0.340407E+00  0.293622E-01  0.166748E+00
   Ionic forces                  :  0.000000E+00  0.000000E+00  0.000000E+00
   Multipole                     :  0.165580E+00  0.985226E-02 -0.604441E-03
   Pulay + GGA                   : -0.121819E+00  0.212010E-01  0.396098E-01
   Van der Waals                 :  0.613902E-02 -0.572065E-02 -0.483064E-02
   ----------------------------------------------------------------
   Total forces(   2)            :  0.390307E+00  0.546948E-01  0.200922E+00
  atom #    3
   Hellmann-Feynman              : -0.785147E+01  0.823309E+01 -0.223711E+00
   Ionic forces                  :  0.000000E+00  0.000000E+00  0.000000E+00
   Multipole                     : -0.138826E+00  0.166570E+00 -0.112979E+01
   Pulay + GGA                   :  0.827916E+01 -0.817604E+01  0.183208E+01
   Van der Waals                 :  0.323103E-02  0.121995E-02 -0.107542E-01
   ----------------------------------------------------------------
   Total forces(   3)            :  0.292095E+00  0.224840E+00  0.467825E+00
  atom #    4
   Hellmann-Feynman              :  0.395389E-02 -0.179294E+00 -0.159866E+00
   Ionic forces                  :  0.000000E+00  0.000000E+00  0.000000E+00
   Multipole                     :  0.338295E-01 -0.376102E-02 -0.996225E-01
   Pulay + GGA                   : -0.194413E+00  0.529444E-01  0.115772E+00
   Van der Waals                 : -0.395828E-02 -0.269475E-02  0.675117E-02
   ----------------------------------------------------------------
   Total forces(   4)            : -0.160588E+00 -0.132805E+00 -0.136965E+00
  atom #    5
   Hellmann-Feynman              :  0.227338E-01 -0.148412E+00 -0.263564E+00
   Ionic forces                  :  0.000000E+00  0.000000E+00  0.000000E+00
   Multipole                     : -0.374682E-01 -0.710493E-01 -0.785940E-01
   Pulay + GGA                   : -0.478046E-01  0.250043E+00  0.639040E-01
   Van der Waals                 : -0.211083E-02  0.432444E-02  0.151550E-02
   ----------------------------------------------------------------
   Total forces(   5)            : -0.646498E-01  0.349058E-01 -0.276738E+00
  atom #    6
   Hellmann-Feynman              : -0.932117E-01 -0.398324E+00  0.607997E+00
   Ionic forces                  :  0.000000E+00  0.000000E+00  0.000000E+00
   Multipole                     : -0.859007E-01  0.609586E+00  0.236321E+00
   Pulay + GGA                   :  0.318422E+00 -0.532482E+00 -0.618999E+00
   Van der Waals                 : -0.322248E-02  0.472479E-02 -0.435166E-02
   ----------------------------------------------------------------
   Total forces(   6)            :  0.136087E+00 -0.316496E+00  0.220966E+00
  atom #    7
   Hellmann-Feynman              : -0.194203E+00 -0.590850E-01 -0.673769E-01
   Ionic forces                  :  0.000000E+00  0.000000E+00  0.000000E+00
   Multipole                     : -0.121057E+00  0.497244E-01  0.243305E-01
   Pulay + GGA                   :  0.123686E+00  0.424972E-02 -0.260267E-01
   Van der Waals                 : -0.119226E-02  0.116415E-02  0.277210E-02
   ----------------------------------------------------------------
   Total forces(   7)            : -0.192766E+00 -0.394671E-02 -0.663009E-01
  atom #    8
   Hellmann-Feynman              :  0.961993E-01 -0.274479E-01  0.169061E+00
   Ionic forces                  :  0.000000E+00  0.000000E+00  0.000000E+00
   Multipole                     :  0.146753E-01  0.599653E-01  0.123267E+00
   Pulay + GGA                   : -0.414926E-01 -0.349001E-01 -0.828819E-01
   Van der Waals                 : -0.251487E-02  0.115192E-01  0.160356E-02
   ----------------------------------------------------------------
   Total forces(   8)            :  0.668671E-01  0.913645E-02  0.211050E+00
  atom #    9
   Hellmann-Feynman              :  0.978497E-01  0.226984E-01 -0.186894E+00
   Ionic forces                  :  0.000000E+00  0.000000E+00  0.000000E+00
   Multipole                     :  0.144048E-01  0.125516E+00 -0.137747E-01
   Pulay + GGA                   : -0.609811E-01 -0.873199E-01  0.381073E-01
   Van der Waals                 : -0.172259E-02  0.217757E-02  0.267411E-02
   ----------------------------------------------------------------
   Total forces(   9)            :  0.495508E-01  0.630722E-01 -0.159887E+00
  atom #   10
   Hellmann-Feynman              :  0.376456E+01  0.531194E+01  0.218680E+01
   Ionic forces                  :  0.000000E+00  0.000000E+00  0.000000E+00
   Multipole                     :  0.829012E-01 -0.834830E-02  0.276141E+00
   Pulay + GGA                   : -0.240652E+01 -0.265601E+01  0.297517E-02
   Van der Waals                 :  0.351165E-02 -0.117313E-01 -0.956529E-03
   ----------------------------------------------------------------
   Total forces(  10)            :  0.144445E+01  0.263585E+01  0.246496E+01
  atom #   11
   Hellmann-Feynman              :  0.412072E+01 -0.243712E+01  0.136820E+02
   Ionic forces                  :  0.000000E+00  0.000000E+00  0.000000E+00
   Multipole                     :  0.559060E-01 -0.593314E+00  0.732874E+00
   Pulay + GGA                   : -0.360575E+01  0.380830E+01 -0.134671E+02
   Van der Waals                 : -0.327066E-02 -0.105014E-01  0.455028E-02
   ----------------------------------------------------------------
   Total forces(  11)            :  0.567604E+00  0.767366E+00  0.952330E+00
  atom #   12
   Hellmann-Feynman              : -0.147943E+02 -0.462869E+01 -0.223638E+01
   Ionic forces                  :  0.000000E+00  0.000000E+00  0.000000E+00
   Multipole                     : -0.103132E+01 -0.130057E+01 -0.177611E+00
   Pulay + GGA                   :  0.140950E+02  0.326036E+01 -0.198977E+00
   Van der Waals                 :  0.158698E-02  0.717267E-02  0.316414E-02
   ----------------------------------------------------------------
   Total forces(  12)            : -0.172907E+01 -0.266172E+01 -0.260980E+01
  atom #   13
   Hellmann-Feynman              : -0.155138E+00 -0.981448E+00 -0.102791E+01
   Ionic forces                  :  0.000000E+00  0.000000E+00  0.000000E+00
   Multipole                     :  0.544541E-01 -0.383891E-01 -0.179679E-01
   Pulay + GGA                   : -0.328258E+00  0.111720E+00  0.246309E+00
   Van der Waals                 :  0.119763E-02 -0.739552E-02 -0.160782E-02
   ----------------------------------------------------------------
   Total forces(  13)            : -0.427745E+00 -0.915513E+00 -0.801181E+00

  Timings for VdW correction (Tkatchenko-Scheffler 2009 or later):
  | CPU time:        0.090 s, Wall clock time:        0.091 s.
  Removing unitary transformations (pure translations, rotations) from forces on atoms.
  Atomic forces before filtering:
  | Net force on center of mass :   0.196067E-02 -0.371170E-02 -0.591060E-02 eV/A
  | Net torque on center of mass:   0.130711E-02  0.393794E-02  0.320910E-02 eV
  Atomic forces after filtering:
  | Net force on center of mass :  -0.267609E-15  0.535218E-15 -0.267609E-15 eV/A
  | Net torque on center of mass:  -0.103849E-14 -0.542849E-15  0.944085E-15 eV

  Energy and forces in a compact form:
  | Total energy uncorrected      :         -0.880227147731597E+04 eV
  | Total energy corrected        :         -0.880227147731597E+04 eV  <-- do not rely on this value for anything but (periodic) metals
  | Electronic free energy        :         -0.880227147731597E+04 eV
  Total atomic forces (unitary forces cleaned) [eV/Ang]:
  |   1         -0.370302320436193E+00          0.237147913926999E+00         -0.472569895145464E+00
  |   2          0.390188195560260E+00          0.548029439813694E-01          0.201645796994885E+00
  |   3          0.292248144533704E+00          0.225094563832157E+00          0.468244650156984E+00
  |   4         -0.160297003075752E+00         -0.132670217215044E+00         -0.136395355262380E+00
  |   5         -0.645689683904135E-01          0.352071193599913E-01         -0.276371981118288E+00
  |   6          0.135983233642326E+00         -0.316167134156000E+00          0.221340408994300E+00
  |   7         -0.192869923001099E+00         -0.348294989530510E-02         -0.661381612826762E-01
  |   8          0.665659422274659E-01          0.945537493102988E-02          0.211494140494401E+00
  |   9          0.496551778996663E-01          0.633391223115130E-01         -0.159473754266003E+00
  |  10          0.144402898861207E+01          0.263616760852503E+01          0.246543533550244E+01
  |  11          0.566928926450087E+00          0.767685334681287E+00          0.952876299703449E+00
  |  12         -0.172946348253112E+01         -0.266134214525481E+01         -0.260943194057986E+01
  |  13         -0.428096911490997E+00         -0.915237535028212E+00         -0.800655544191789E+00

  ------------------------------------ 
  Start decomposition of the XC Energy 
  ------------------------------------ 
  X and C from original XC functional choice 
  Hartree-Fock Energy :          0.000000000 Ha              0.000000000 eV
  X Energy            :        -41.040687706 Ha          -1116.773933300 eV
  C Energy            :         -1.601177410 Ha            -43.570254151 eV
  Total XC Energy     :        -42.641865115 Ha          -1160.344187451 eV
  ------------------------------------ 
  LDA X and C from self-consistent density 
  X Energy LDA        :        -37.260038109 Ha          -1013.897223462 eV
  C Energy LDA        :         -3.138843948 Ha            -85.412289557 eV
  ------------------------------------ 
  End decomposition of the XC Energy 
  ------------------------------------ 

------------------------------------------------------------

------------------------------------------------------------------------------
  Final output of selected total energy values:

  The following output summarizes some interesting total energy values
  at the end of a run (AFTER all relaxation, molecular dynamics, etc.).

  | Total energy of the DFT / Hartree-Fock s.c.f. calculation      :          -8802.271477316 eV
  | Final zero-broadening corrected energy (caution - metals only) :          -8802.271477316 eV
  | For reference only, the value of 1 Hartree used in FHI-aims is :             27.211384500 eV

  Before relying on these values, please be sure to understand exactly which
  total energy value is referred to by a given number. Different objects may
  all carry the same name 'total energy'. Definitions:

  Total energy of the DFT / Hartree-Fock s.c.f. calculation:
  | Note that this energy does not include ANY quantities calculated after the
  | s.c.f. cycle, in particular not ANY RPA, MP2, etc. many-body perturbation terms.

  Final zero-broadening corrected energy:
  | For metallic systems only, a broadening of the occupation numbers at the Fermi
  | level can be extrapolated back to zero broadening by an electron-gas inspired
  | formula. For all systems that are not real metals, this value can be
  | meaningless and should be avoided.

------------------------------------------------------------------------------
  Methods described in the following list of references were used in this FHI-aims run.
  If you publish the results, please make sure to cite these reference if they apply.
  FHI-aims is an academic code, and for our developers (often, Ph.D. students
  and postdocs), scientific credit in the community is essential.
  Thank you for helping us!

  For any use of FHI-aims, please cite:

    Volker Blum, Ralf Gehrke, Felix Hanke, Paula Havu, Ville Havu,
    Xinguo Ren, Karsten Reuter, and Matthias Scheffler
    'Ab initio molecular simulations with numeric atom-centered orbitals'
    Computer Physics Communications 180, 2175-2196 (2009)
    http://dx.doi.org/10.1016/j.cpc.2009.06.022


  The scalable eigensolver library ELPA was used in your run.
  ELPA is essential especially for large systems on hundreds or thousands of CPUs.
  For ELPA, please cite:

    Andreas Marek, Volker Blum, Rainer Johanni, Ville Havu, Bruno Lang,
    Thomas Auckenthaler, Alexander Heinecke, Hans-Joachim Bungartz, and Hermann Lederer,
    'The ELPA Library - Scalable Parallel Eigenvalue Solutions
    for Electronic Structure Theory and Computational Science'
    The Journal of Physics: Condensed Matter 26, 213201 (2014).
    http://dx.doi.org/10.1088/0953-8984/26/21/213201


  The ELSI infrastructure was used in your run to solve the Kohn-Sham electronic structure.
  Please check out http://elsi-interchange.org to learn more.
  If scalability is important for your project, please acknowledge ELSI by citing:

    V. W-z. Yu, F. Corsetti, A. Garcia, W. P. Huhn, M. Jacquelin, W. Jia,
    B. Lange, L. Lin, J. Lu, W. Mi, A. Seifitokaldani, A. Vazquez-Mayagoitia,
    C. Yang, H. Yang, and V. Blum
    'ELSI: A unified software interface for Kohn-Sham electronic structure solvers'
    Computer Physics Communications 222, 267-285 (2018).
    http://dx.doi.org/10.1016/j.cpc.2017.09.007


  For the real-space grid partitioning and parallelization used in this calculation, please cite:

    Ville Havu, Volker Blum, Paula Havu, and Matthias Scheffler,
    'Efficient O(N) integration for all-electron electronic structure calculation'
    'using numerically tabulated basis functions'
    Journal of Computational Physics 228, 8367-8379 (2009).
    http://dx.doi.org/10.1016/j.jcp.2009.08.008

  Of course, there are many other important community references, e.g., those cited in the
  above references. Our list is limited to references that describe implementations in the
  FHI-aims code. The reason is purely practical (length of this list) - please credit others as well.

------------------------------------------------------------
          Leaving FHI-aims.
          Date     :  20200805, Time     :  182219.895

          Computational steps:
          | Number of self-consistency cycles          :           16
          | Number of SCF (re)initializations          :            1

          Detailed time accounting                     :  max(cpu_time)    wall_clock(cpu1)
          | Total time                                 :       22.771 s          22.857 s
          | Preparation time                           :        0.148 s           0.150 s
          | Boundary condition initalization           :        0.000 s           0.000 s
          | Grid partitioning                          :        0.113 s           0.113 s
          | Preloading free-atom quantities on grid    :        0.002 s           0.003 s
          | Free-atom superposition energy             :        0.085 s           0.084 s
          | Total time for integrations                :        8.634 s           8.644 s
          | Total time for solution of K.-S. equations :        0.037 s           0.040 s
          | Total time for density & force components  :        7.180 s           7.197 s
          | Total time for mixing                      :        0.220 s           0.222 s
          | Total time for Hartree multipole update    :        0.141 s           0.142 s
          | Total time for Hartree multipole sum       :        5.811 s           5.817 s
          | Total time for total energy evaluation     :        0.003 s           0.006 s
          | Total time for vdW correction              :        0.090 s           0.091 s

          Partial memory accounting:
          | Residual value for overall tracked memory usage across tasks :           0.000 MB (should be 0.000 MB)
          | Peak values for overall tracked memory usage (after allocating hessian_basis_wave):
          |   Minimum:        1.612 MB (on task 1)
          |   Maximum:        1.612 MB (on task 1)
          |   Average:        1.612 MB
          | Largest tracked array allocation (hessian_basis_wave):
          |   Minimum:        0.788 MB (on task 1)
          |   Maximum:        0.788 MB (on task 1)
          |   Average:        0.788 MB
          Note:  These values currently only include a subset of arrays which are explicitly tracked.
          The "true" memory usage will be greater.

          Have a nice day.
------------------------------------------------------------
