  MPI-parallelism will be employed.
------------------------------------------------------------
          Invoking FHI-aims ...
          Version 171221_1
          Compiled on 2019/09/09 at 14:39:39 on host puhti-login2.bullx.

          When using FHI-aims, please cite the following reference:

          Volker Blum, Ralf Gehrke, Felix Hanke, Paula Havu,
          Ville Havu, Xinguo Ren, Karsten Reuter, and Matthias Scheffler,
          'Ab Initio Molecular Simulations with Numeric Atom-Centered Orbitals',
          Computer Physics Communications 180, 2175-2196 (2009)

          For any questions about FHI-aims, please visit the aimsclub website
          with its forums and wiki. Contributions to both the forums and the
          wiki are warmly encouraged - they are for you, and everyone is welcome there.

------------------------------------------------------------



  Date     :  20200815, Time     :  010304.564
  Time zero on CPU 1             :   0.124130000000000E-01  s.
  Internal wall clock time zero  :           366685384.564  s.

  FHI-aims created a unique identifier for this run for later identification
  aims_uuid : D08BE009-5DB1-4355-A93C-4DA1D7ADBEA3

  Using        1 parallel tasks.
  Task        0 on host r18c47.bullx reporting.

  Performing system and environment tests:
  | Environment variable OMP_NUM_THREADS correctly set to 1.
  | Stacksize not measured: no C compiler
  | Checking for scalapack...
  | Testing pdtran()...
  | All pdtran() tests passed.

  Obtaining array dimensions for all initial allocations:
  
  -----------------------------------------------------------------------
  Parsing control.in (first pass over file, find array dimensions only).
  The contents of control.in will be repeated verbatim below
  unless switched off by setting 'verbatim_writeout .false.' .
  in the first line of control.in .
  -----------------------------------------------------------------------
  
  #########################################################################################
  #
  #  Volker Blum, FHI 2009 : Test run input file control.in for simple H2O
  #
  #########################################################################################
  #
  #  Physical model
  #
    xc                 pbe
    vdw_correction_hirshfeld
    spin               none
    relativistic       none
    charge             0.
  #
  #  SCF convergence
  #
    occupation_type    gaussian 0.01
    mixer              pulay
      n_max_pulay        10
      charge_mix_param   0.2
    sc_accuracy_rho    1E-5
    sc_accuracy_eev    1E-3
    sc_accuracy_etot   1E-6
    sc_accuracy_forces 1E-4
    sc_iter_limit      100
  #
  #  Relaxation
  #
  #  relax_geometry   bfgs 1.e-3
  #
  ################################################################################
  #
  #  FHI-aims code project
  #  VB, Fritz-Haber Institut, 2009
  #
  #  Suggested "light" defaults for H atom (to be pasted into control.in file)
  #  Be sure to double-check any results obtained with these settings for post-processing,
  #  e.g., with the "tight" defaults and larger basis sets.
  #
  ################################################################################
    species        H
  #     global species definitions
      nucleus             1
      mass                1.00794
  #
      l_hartree           4
  #
      cut_pot             3.5  1.5  1.0
      basis_dep_cutoff    1e-4
  #
      radial_base         24 5.0
      radial_multiplier   1
      angular_grids       specified
        division   0.2421   50
        division   0.3822  110
        division   0.4799  194
        division   0.5341  302
  #      division   0.5626  434
  #      division   0.5922  590
  #      division   0.6542  770
  #      division   0.6868 1202
  #      outer_grid  770
        outer_grid  302
  ################################################################################
  #
  #  Definition of "minimal" basis
  #
  ################################################################################
  #     valence basis states
      valence      1  s   1.
  #     ion occupancy
      ion_occ      1  s   0.5
  ################################################################################
  #
  #  Suggested additional basis functions. For production calculations,
  #  uncomment them one after another (the most important basis functions are
  #  listed first).
  #
  #  Basis constructed for dimers: 0.5 A, 0.7 A, 1.0 A, 1.5 A, 2.5 A
  #
  ################################################################################
  #  "First tier" - improvements: -1014.90 meV to -62.69 meV
       hydro 2 s 2.1
       hydro 2 p 3.5
  #  "Second tier" - improvements: -12.89 meV to -1.83 meV
  #     hydro 1 s 0.85
  #     hydro 2 p 3.7
  #     hydro 2 s 1.2
  #     hydro 3 d 7
  #  "Third tier" - improvements: -0.25 meV to -0.12 meV
  #     hydro 4 f 11.2
  #     hydro 3 p 4.8
  #     hydro 4 d 9
  #     hydro 3 s 3.2
  ################################################################################
  #
  #  FHI-aims code project
  #  VB, Fritz-Haber Institut, 2009
  #
  #  Suggested "light" defaults for C atom (to be pasted into control.in file)
  #  Be sure to double-check any results obtained with these settings for post-processing,
  #  e.g., with the "tight" defaults and larger basis sets.
  #
  ################################################################################
    species        C
  #     global species definitions
      nucleus             6
      mass                12.0107
  #
      l_hartree           4
  #
      cut_pot             3.5  1.5  1.0
      basis_dep_cutoff    1e-4
  #
      radial_base         34 5.0
      radial_multiplier   1
      angular_grids specified
        division   0.3326   50
        division   0.5710  110
        division   0.7727  194
        division   0.8772  302
  #      division   0.9334  434
  #      division   0.9625  590
  #      division   0.9924  770
  #      division   1.0230  974
  #      division   1.4589 1202
  #     outer_grid  974
       outer_grid 302
  ################################################################################
  #
  #  Definition of "minimal" basis
  #
  ################################################################################
  #     valence basis states
      valence      2  s   2.
      valence      2  p   2.
  #     ion occupancy
      ion_occ      2  s   1.
      ion_occ      2  p   1.
  ################################################################################
  #
  #  Suggested additional basis functions. For production calculations,
  #  uncomment them one after another (the most important basis functions are
  #  listed first).
  #
  #  Constructed for dimers: 1.0 A, 1.25 A, 1.5 A, 2.0 A, 3.0 A
  #
  ################################################################################
  #  "First tier" - improvements: -1214.57 meV to -155.61 meV
       hydro 2 p 1.7
       hydro 3 d 6
       hydro 2 s 4.9
  #  "Second tier" - improvements: -67.75 meV to -5.23 meV
  #     hydro 4 f 9.8
  #     hydro 3 p 5.2
  #     hydro 3 s 4.3
  #     hydro 5 g 14.4
  #     hydro 3 d 6.2
  #  "Third tier" - improvements: -2.43 meV to -0.60 meV
  #     hydro 2 p 5.6
  #     hydro 2 s 1.4
  #     hydro 3 d 4.9
  #     hydro 4 f 11.2
  #  "Fourth tier" - improvements: -0.39 meV to -0.18 meV
  #     hydro 2 p 2.1
  #     hydro 5 g 16.4
  #     hydro 4 d 13.2
  #     hydro 3 s 13.6
  #     hydro 4 f 17.6
  #  Further basis functions - improvements: -0.08 meV and below
  #     hydro 3 s 2
  #     hydro 3 p 6
  #     hydro 4 d 20
  ################################################################################
  #
  #  FHI-aims code project
  #  VB, Fritz-Haber Institut, 2009
  #
  #  Suggested "light" defaults for N atom (to be pasted into control.in file)
  #  Be sure to double-check any results obtained with these settings for post-processing,
  #  e.g., with the "tight" defaults and larger basis sets.
  #
  ################################################################################
    species        N
  #     global species definitions
      nucleus             7
      mass                14.0067
  #
      l_hartree           4
  #
      cut_pot             3.5  1.5  1.0
      basis_dep_cutoff    1e-4
  #
      radial_base         35 5.0
      radial_multiplier   1
      angular_grids       specified
        division   0.2599   50
        division   0.4601  110
        division   0.5885  194
        division   0.6503  302
  #      division   0.6939  434
  #      division   0.7396  590
  #      division   0.7632  770
  #      division   0.8122  974
  #      division   1.1604 1202
  #      outer_grid  974
        outer_grid  302
  ################################################################################
  #
  #  Definition of "minimal" basis
  #
  ################################################################################
  #     valence basis states
      valence      2  s   2.
      valence      2  p   3.
  #     ion occupancy
      ion_occ      2  s   1.
      ion_occ      2  p   2.
  ################################################################################
  #
  #  Suggested additional basis functions. For production calculations,
  #  uncomment them one after another (the most important basis functions are
  #  listed first).
  #
  #  Constructed for dimers: 1.0 A, 1.1 A, 1.5 A, 2.0 A, 3.0 A
  #
  ################################################################################
  #  "First tier" - improvements: -1193.42 meV to -220.60 meV
       hydro 2 p 1.8
       hydro 3 d 6.8
       hydro 3 s 5.8
  #  "Second tier" - improvements: -80.21 meV to -6.86 meV
  #     hydro 4 f 10.8
  #     hydro 3 p 5.8
  #     hydro 1 s 0.8
  #     hydro 5 g 16
  #     hydro 3 d 4.9
  #  "Third tier" - improvements: -4.29 meV to -0.53 meV
  #     hydro 3 s 16
  #     ionic 2 p auto
  #     hydro 3 d 6.6
  #     hydro 4 f 11.6
  #  "Fourth tier" - improvements: -0.75 meV to -0.25 meV
  #     hydro 2 p 4.5
  #     hydro 2 s 2.4
  #     hydro 5 g 14.4
  #     hydro 4 d 14.4
  #     hydro 4 f 16.8
  # Further basis functions - -0.21 meV and below
  #     hydro 3 p 14.8
  #     hydro 3 s 4.4
  #     hydro 3 d 19.6
  #     hydro 5 g 12.8
  ################################################################################
  #
  #  FHI-aims code project
  #  VB, Fritz-Haber Institut, 2009
  #
  #  Suggested "light" defaults for O atom (to be pasted into control.in file)
  #  Be sure to double-check any results obtained with these settings for post-processing,
  #  e.g., with the "tight" defaults and larger basis sets.
  #
  ################################################################################
    species        O
  #     global species definitions
      nucleus             8
      mass                15.9994
  #
      l_hartree           4
  #
      cut_pot             3.5  1.5  1.0
      basis_dep_cutoff    1e-4
  #
      radial_base         36 5.0
      radial_multiplier   1
       angular_grids specified
        division   0.2659   50
        division   0.4451  110
        division   0.6052  194
        division   0.7543  302
  #      division   0.8014  434
  #      division   0.8507  590
  #      division   0.8762  770
  #      division   0.9023  974
  #      division   1.2339 1202
  #      outer_grid 974
        outer_grid 302
  ################################################################################
  #
  #  Definition of "minimal" basis
  #
  ################################################################################
  #     valence basis states
      valence      2  s   2.
      valence      2  p   4.
  #     ion occupancy
      ion_occ      2  s   1.
      ion_occ      2  p   3.
  ################################################################################
  #
  #  Suggested additional basis functions. For production calculations,
  #  uncomment them one after another (the most important basis functions are
  #  listed first).
  #
  #  Constructed for dimers: 1.0 A, 1.208 A, 1.5 A, 2.0 A, 3.0 A
  #
  ################################################################################
  #  "First tier" - improvements: -699.05 meV to -159.38 meV
       hydro 2 p 1.8
       hydro 3 d 7.6
       hydro 3 s 6.4
  #  "Second tier" - improvements: -49.91 meV to -5.39 meV
  #     hydro 4 f 11.6
  #     hydro 3 p 6.2
  #     hydro 3 d 5.6
  #     hydro 5 g 17.6
  #     hydro 1 s 0.75
  #  "Third tier" - improvements: -2.83 meV to -0.50 meV
  #     ionic 2 p auto
  #     hydro 4 f 10.8
  #     hydro 4 d 4.7
  #     hydro 2 s 6.8
  #  "Fourth tier" - improvements: -0.40 meV to -0.12 meV
  #     hydro 3 p 5
  #     hydro 3 s 3.3
  #     hydro 5 g 15.6
  #     hydro 4 f 17.6
  #     hydro 4 d 14
  # Further basis functions - -0.08 meV and below
  #     hydro 3 s 2.1
  #     hydro 4 d 11.6
  #     hydro 3 p 16
  #     hydro 2 s 17.2
  
  -----------------------------------------------------------------------
  Completed first pass over input file control.in .
  -----------------------------------------------------------------------
  
  
  -----------------------------------------------------------------------
  Parsing geometry.in (first pass over file, find array dimensions only).
  The contents of geometry.in will be repeated verbatim below
  unless switched off by setting 'verbatim_writeout .false.' .
  in the first line of geometry.in .
  -----------------------------------------------------------------------
  
  atom  0.00000 0.00000 0.00000 C
  atom  1.09300 0.00000 0.00000 H
  atom  -0.47961 0.00000 -1.41207 N
  atom  0.06649 0.67951 -1.94299 H
  atom  -0.35385 -0.93265 -1.79998 H
  atom  -0.49584 1.26211 0.72868 C
  atom  -1.58789 1.28919 0.74431 H
  atom  -0.13407 1.27425 1.75947 H
  atom  -0.13407 2.16087 0.22380 H
  atom  -0.39425 -1.28861 0.74398 C
  atom  -0.10189 -1.56493 1.88303 O
  atom  -1.10210 -2.13717 0.06896 O
  atom  -1.12223 -2.85662 0.72239 H
  
  -----------------------------------------------------------------------
  Completed first pass over input file geometry.in .
  -----------------------------------------------------------------------
  

  Basic array size parameters:
  | Number of species                 :        4
  | Number of atoms                   :       13
  | Max. basis fn. angular momentum   :        2
  | Max. atomic/ionic basis occupied n:        2
  | Max. number of basis fn. types    :        2
  | Max. radial fns per species/type  :        3
  | Max. logarithmic grid size        :     1301
  | Max. radial integration grid size :       36
  | Max. angular integration grid size:      302
  | Max. angular grid division number :        8
  | Radial grid for Hartree potential :     1301
  | Number of spin channels           :        1

------------------------------------------------------------
          Reading file control.in.
------------------------------------------------------------
  XC: Using PBE gradient-corrected functionals.
  Spin treatment: No spin polarisation.
  Non-relativistic treatment of kinetic energy.
  Charge =   0.000000E+00: Neutral system requested explicitly.
  Occupation type: Gaussian broadening, width =   0.100000E-01 eV.
  Using pulay charge density mixing.
  Pulay mixing - number of memorized iterations:   10
  Charge density mixing - mixing parameter:     0.2000
  Convergence accuracy of self-consistent charge density:  0.1000E-04
  Convergence accuracy of sum of eigenvalues:  0.1000E-02
  Convergence accuracy of total energy:  0.1000E-05
  Convergence accuracy of forces:  0.1000E-03
  Maximum number of s.-c. iterations  :   100
 
  Reading configuration options for species H                   .
  | Found nuclear charge :   1.0000
  | Found atomic mass :    1.00794000000000      amu
  | Found l_max for Hartree potential  :   4
  | Found cutoff potl. onset [A], width [A], scale factor :    3.50000    1.50000    1.00000
  | Threshold for basis-dependent cutoff potential is   0.100000E-03
  | Found data for basic radial integration grid :    24 points, outermost radius =    5.000 A
  | Found multiplier for basic radial grid :   1
  | Found angular grid specification: user-specified.
  | Specified grid contains     5 separate shells.
  | Check grid settings after all constraints further below.
  | Found free-atom valence shell :  1 s   1.000
  | No ionic wave fns used. Skipping ion_occ.
  | Found hydrogenic basis function :  2 s   2.100
  | Found hydrogenic basis function :  2 p   3.500
  Species H                   : Missing cutoff potential type.
  Defaulting to exp(1/x)/(1-x)^2 type cutoff potential.
  Species H : No 'logarithmic' tag. Using default grid for free atom:
  | Default logarithmic grid data [bohr] : 0.1000E-03 0.1000E+03 0.1012E+01
  Species H : On-site basis accuracy parameter (for Gram-Schmidt orthonormalisation) not specified.
  Using default value basis_acc =  0.1000000E-03.
  Species H                   : Using default innermost maximum threshold i_radial=  2 for radial functions.
  Species H                   : Default cutoff onset for free atom density etc. : 0.35000000E+01 AA.
  Species H                   : Basic radial grid will be enhanced according to radial_multiplier =   1, to contain    24 grid points.
 
  Reading configuration options for species C                   .
  | Found nuclear charge :   6.0000
  | Found atomic mass :    12.0107000000000      amu
  | Found l_max for Hartree potential  :   4
  | Found cutoff potl. onset [A], width [A], scale factor :    3.50000    1.50000    1.00000
  | Threshold for basis-dependent cutoff potential is   0.100000E-03
  | Found data for basic radial integration grid :    34 points, outermost radius =    5.000 A
  | Found multiplier for basic radial grid :   1
  | Found angular grid specification: user-specified.
  | Specified grid contains     5 separate shells.
  | Check grid settings after all constraints further below.
  | Found free-atom valence shell :  2 s   2.000
  | Found free-atom valence shell :  2 p   2.000
  | No ionic wave fns used. Skipping ion_occ.
  | No ionic wave fns used. Skipping ion_occ.
  | Found hydrogenic basis function :  2 p   1.700
  | Found hydrogenic basis function :  3 d   6.000
  | Found hydrogenic basis function :  2 s   4.900
  Species C                   : Missing cutoff potential type.
  Defaulting to exp(1/x)/(1-x)^2 type cutoff potential.
  Species C : No 'logarithmic' tag. Using default grid for free atom:
  | Default logarithmic grid data [bohr] : 0.1000E-03 0.1000E+03 0.1012E+01
  Species C : On-site basis accuracy parameter (for Gram-Schmidt orthonormalisation) not specified.
  Using default value basis_acc =  0.1000000E-03.
  Species C                   : Using default innermost maximum threshold i_radial=  2 for radial functions.
  Species C                   : Default cutoff onset for free atom density etc. : 0.35000000E+01 AA.
  Species C                   : Basic radial grid will be enhanced according to radial_multiplier =   1, to contain    34 grid points.
 
  Reading configuration options for species N                   .
  | Found nuclear charge :   7.0000
  | Found atomic mass :    14.0067000000000      amu
  | Found l_max for Hartree potential  :   4
  | Found cutoff potl. onset [A], width [A], scale factor :    3.50000    1.50000    1.00000
  | Threshold for basis-dependent cutoff potential is   0.100000E-03
  | Found data for basic radial integration grid :    35 points, outermost radius =    5.000 A
  | Found multiplier for basic radial grid :   1
  | Found angular grid specification: user-specified.
  | Specified grid contains     5 separate shells.
  | Check grid settings after all constraints further below.
  | Found free-atom valence shell :  2 s   2.000
  | Found free-atom valence shell :  2 p   3.000
  | No ionic wave fns used. Skipping ion_occ.
  | No ionic wave fns used. Skipping ion_occ.
  | Found hydrogenic basis function :  2 p   1.800
  | Found hydrogenic basis function :  3 d   6.800
  | Found hydrogenic basis function :  3 s   5.800
  Species N                   : Missing cutoff potential type.
  Defaulting to exp(1/x)/(1-x)^2 type cutoff potential.
  Species N : No 'logarithmic' tag. Using default grid for free atom:
  | Default logarithmic grid data [bohr] : 0.1000E-03 0.1000E+03 0.1012E+01
  Species N : On-site basis accuracy parameter (for Gram-Schmidt orthonormalisation) not specified.
  Using default value basis_acc =  0.1000000E-03.
  Species N                   : Using default innermost maximum threshold i_radial=  2 for radial functions.
  Species N                   : Default cutoff onset for free atom density etc. : 0.35000000E+01 AA.
  Species N                   : Basic radial grid will be enhanced according to radial_multiplier =   1, to contain    35 grid points.
 
  Reading configuration options for species O                   .
  | Found nuclear charge :   8.0000
  | Found atomic mass :    15.9994000000000      amu
  | Found l_max for Hartree potential  :   4
  | Found cutoff potl. onset [A], width [A], scale factor :    3.50000    1.50000    1.00000
  | Threshold for basis-dependent cutoff potential is   0.100000E-03
  | Found data for basic radial integration grid :    36 points, outermost radius =    5.000 A
  | Found multiplier for basic radial grid :   1
  | Found angular grid specification: user-specified.
  | Specified grid contains     5 separate shells.
  | Check grid settings after all constraints further below.
  | Found free-atom valence shell :  2 s   2.000
  | Found free-atom valence shell :  2 p   4.000
  | No ionic wave fns used. Skipping ion_occ.
  | No ionic wave fns used. Skipping ion_occ.
  | Found hydrogenic basis function :  2 p   1.800
  | Found hydrogenic basis function :  3 d   7.600
  | Found hydrogenic basis function :  3 s   6.400
  Species O                   : Missing cutoff potential type.
  Defaulting to exp(1/x)/(1-x)^2 type cutoff potential.
  Species O : No 'logarithmic' tag. Using default grid for free atom:
  | Default logarithmic grid data [bohr] : 0.1000E-03 0.1000E+03 0.1012E+01
  Species O : On-site basis accuracy parameter (for Gram-Schmidt orthonormalisation) not specified.
  Using default value basis_acc =  0.1000000E-03.
  Species O                   : Using default innermost maximum threshold i_radial=  2 for radial functions.
  Species O                   : Default cutoff onset for free atom density etc. : 0.35000000E+01 AA.
  Species O                   : Basic radial grid will be enhanced according to radial_multiplier =   1, to contain    36 grid points.
 
  Finished reading input file 'control.in'. Consistency checks are next.
 
  MPI_IN_PLACE appears to work with this MPI implementation.
  | Keeping use_mpi_in_place .true. (see manual).
  Target number of points in a grid batch is not set. Defaulting to  100
  Method for grid partitioning is not set. Defaulting to parallel hash+maxmin partitioning.
  Batch size limit is not set. Defaulting to    200
  By default, will store active basis functions for each batch.
  If in need of memory, prune_basis_once .false. can be used to disable this option.
  communication_type for Hartree potential was not specified.
  Defaulting to calc_hartree .
  Pulay mixer: Number of initial linear mixing iterations not set.
  Defaulting to    0 iterations.
  Work space size for distributed Hartree potential not set.
  Defaulting to   0.200000E+03 MB.
  Algorithm-dependent basis array size parameters:
  | n_max_pulay                         :       10
  Presetting      1001 iterations before the initial mixing cycle
  is restarted anyway using the sc_init_iter criterion / keyword.
  Presetting a factor      1.000 between actual scf density residual
  and density convergence criterion sc_accuracy_rho below which sc_init_iter
  takes no effect.
  Geometry relaxation not requested: no relaxation will be performed.
  Handling of forces: Unphysical translation and rotation will be removed from forces.
  No accuracy limit for integral partition fn. given. Defaulting to  0.1000E-14.
  No threshold value for u(r) in integrations given. Defaulting to  0.1000E-05.
  No accuracy for occupation numbers given. Defaulting to  0.1000E-12.
  No threshold value for occupation numbers given. Defaulting to  0.0000E+00.
  No accuracy for fermi level given. Defaulting to  0.1000E-19.
  Maximum # of iterations to find E_F not set. Defaulting to  200.
  Preferred method for the eigenvalue solver ('KS_method') not specified in 'control.in'.
  Defaulting to serial version, 'lapack_fast'.
  Will not use alltoall communication since running on < 1024 CPUs.
  Threshold for basis singularities not set.
  Default threshold for basis singularities:  0.1000E-04
  partition_type (choice of integration weights) for integrals was not specified.
  | Using a version of the partition function of Stratmann and coworkers ('stratmann_smoother').
  | At each grid point, the set of atoms used to build the partition table is smoothly restricted to
  | only those atoms whose free-atom density would be non-zero at that grid point.
  Partitioning for Hartree potential was not defined. Using partition_type for integrals.
  | Adjusted default value of keyword multip_moments_threshold to:       0.10000000E-11
  | This value may affect high angular momentum components of the Hartree potential in periodic systems.
  No q(lm)/r^(l+1) cutoff set for long-range Hartree potential.
  | Using default value of  0.100000E-09 .
  | Verify using the multipole_threshold keyword.
  Defaulting to new monopole extrapolation.
  Density update method: automatic selection selected.
------------------------------------------------------------


------------------------------------------------------------
          Reading geometry description geometry.in.
------------------------------------------------------------
  Input structure read successfully.
  The structure contains       13 atoms,  and a total of         48.000 electrons.

  Input geometry:
  | No unit cell requested.
  | Atomic structure:
  |       Atom                x [A]            y [A]            z [A]
  |    1: Species C             0.00000000        0.00000000        0.00000000
  |    2: Species H             1.09300000        0.00000000        0.00000000
  |    3: Species N            -0.47961000        0.00000000       -1.41207000
  |    4: Species H             0.06649000        0.67951000       -1.94299000
  |    5: Species H            -0.35385000       -0.93265000       -1.79998000
  |    6: Species C            -0.49584000        1.26211000        0.72868000
  |    7: Species H            -1.58789000        1.28919000        0.74431000
  |    8: Species H            -0.13407000        1.27425000        1.75947000
  |    9: Species H            -0.13407000        2.16087000        0.22380000
  |   10: Species C            -0.39425000       -1.28861000        0.74398000
  |   11: Species O            -0.10189000       -1.56493000        1.88303000
  |   12: Species O            -1.10210000       -2.13717000        0.06896000
  |   13: Species H            -1.12223000       -2.85662000        0.72239000
  |

  | The smallest distance between any two atoms is         0.97210302 AA.
  |
  | The first atom of this pair is atom number                     12 .
  | The second atom of this pair is atom number                    13 .

  Number of empty states per atom not set in control.in - providing a guess from actual geometry.
  | Total number of empty states used during s.c.f. cycle:       29
  If you use a very high smearing, use empty_states (per atom!) in control.in to increase this value.

  Structure-dependent array size parameters: 
  | Maximum number of distinct radial functions  :       21
  | Maximum number of basis functions            :      119
  | Number of Kohn-Sham states (occupied + empty):       53
------------------------------------------------------------

------------------------------------------------------------
          Preparing all fixed parts of the calculation.
------------------------------------------------------------
  Determining machine precision:
    2.225073858507201E-308
  Setting up grids for atomic and cluster calculations.

  Creating wave function, potential, and density for free atoms.

  Species: H

  List of occupied orbitals and eigenvalues:
    n    l              occ      energy [Ha]    energy [eV]
    1    0           1.0000        -0.237589        -6.4651


  Species: C

  List of occupied orbitals and eigenvalues:
    n    l              occ      energy [Ha]    energy [eV]
    1    0           2.0000       -10.038835      -273.1706
    2    0           2.0000        -0.502696       -13.6791
    2    1           2.0000        -0.191971        -5.2238


  Species: N

  List of occupied orbitals and eigenvalues:
    n    l              occ      energy [Ha]    energy [eV]
    1    0           2.0000       -14.128000      -384.4424
    2    0           2.0000        -0.681077       -18.5330
    2    1           3.0000        -0.259788        -7.0692


  Species: O

  List of occupied orbitals and eigenvalues:
    n    l              occ      energy [Ha]    energy [eV]
    1    0           2.0000       -18.898188      -514.2459
    2    0           2.0000        -0.878505       -23.9053
    2    1           4.0000        -0.331779        -9.0282

  Creating fixed part of basis set: Ionic, confined, hydrogenic.
 
  H                    hydrogenic:
 
  List of hydrogenic basis orbitals: 
    n    l      effective z      eigenvalue [eV]  inner max. [A]     outer max. [A]     outer radius [A]   
    2    0         2.100000       -14.9728           0.193243           1.317208           4.583499
    2    1         3.500000       -41.6669           0.602369           0.602369           3.723403
 
 
  C                    hydrogenic:
 
  List of hydrogenic basis orbitals: 
    n    l      effective z      eigenvalue [eV]  inner max. [A]     outer max. [A]     outer radius [A]   
    2    1         1.700000        -9.7616           1.230570           1.230570           4.607917
    3    2         6.000000       -54.4224           0.792453           0.792453           3.883070
    2    0         4.900000       -81.6679           0.082559           0.562749           3.078220
 
 
  N                    hydrogenic:
 
  List of hydrogenic basis orbitals: 
    n    l      effective z      eigenvalue [eV]  inner max. [A]     outer max. [A]     outer radius [A]   
    2    1         1.800000       -10.9749           1.177451           1.177451           4.573712
    3    2         6.800000       -69.9026           0.704619           0.704619           3.538137
    3    0         5.800000       -50.8545           0.067388           1.191934           4.250239
 
 
  O                    hydrogenic:
 
  List of hydrogenic basis orbitals: 
    n    l      effective z      eigenvalue [eV]  inner max. [A]     outer max. [A]     outer radius [A]   
    2    1         1.800000       -10.9749           1.164242           1.164242           4.578029
    3    2         7.600000       -87.3180           0.624125           0.624125           3.251020
    3    0         6.400000       -61.9207           0.061167           1.081902           4.001998
 

  Adding cutoff potential to free-atom effective potential.
  Creating atomic-like basis functions for current effective potential.

  Species H                   :

  List of atomic basis orbitals and eigenvalues:
    n    l      energy [Ha]    energy [eV]    outer radius [A]
    1    0        -0.237589        -6.4651       4.527807


  Species C                   :

  List of atomic basis orbitals and eigenvalues:
    n    l      energy [Ha]    energy [eV]    outer radius [A]
    1    0       -10.038835      -273.1706       1.934409
    2    0        -0.502696       -13.6791       4.496620
    2    1        -0.191971        -5.2238       4.551928


  Species N                   :

  List of atomic basis orbitals and eigenvalues:
    n    l      energy [Ha]    energy [eV]    outer radius [A]
    1    0       -14.128000      -384.4424       1.637919
    2    0        -0.681077       -18.5330       4.463241
    2    1        -0.259788        -7.0692       4.518138


  Species O                   :

  List of atomic basis orbitals and eigenvalues:
    n    l      energy [Ha]    energy [eV]    outer radius [A]
    1    0       -18.898188      -514.2459       1.415765
    2    0        -0.878505       -23.9053       4.413171
    2    1        -0.331779        -9.0282       4.522403

  Assembling full basis from fixed parts.
  | Species H :   atomic orbital   1 s accepted.
  | Species H :    hydro orbital   2 s accepted.
  | Species H :    hydro orbital   2 p accepted.
  | Species C :   atomic orbital   1 s accepted.
  | Species C :    hydro orbital   2 s accepted.
  | Species C :   atomic orbital   2 s accepted.
  | Species C :   atomic orbital   2 p accepted.
  | Species C :    hydro orbital   2 p accepted.
  | Species C :    hydro orbital   3 d accepted.
  | Species N :   atomic orbital   1 s accepted.
  | Species N :    hydro orbital   3 s accepted.
  | Species N :   atomic orbital   2 s accepted.
  | Species N :   atomic orbital   2 p accepted.
  | Species N :    hydro orbital   2 p accepted.
  | Species N :    hydro orbital   3 d accepted.
  | Species O :   atomic orbital   1 s accepted.
  | Species O :    hydro orbital   3 s accepted.
  | Species O :   atomic orbital   2 s accepted.
  | Species O :   atomic orbital   2 p accepted.
  | Species O :    hydro orbital   2 p accepted.
  | Species O :    hydro orbital   3 d accepted.
 
  Basis size parameters after reduction:
  | Total number of radial functions:       21
  | Total number of basis functions :      119
 
  Per-task memory consumption for arrays in subroutine allocate_ext:
  |           5.250512MB.
  Testing on-site integration grid accuracy.
  |  Species  Function  <phi|h_atom|phi> (log., in eV)  <phi|h_atom|phi> (rad., in eV)
           1        1                 -6.4663192853                 -6.4651273558
           1        2                 13.7111246313                 13.7170609718
           1        3                 25.2673269279                 25.2674696378
           2        4               -273.1705927641               -273.1705631568
           2        5                -10.7109323383                -10.7107120029
           2        6                 17.4381822266                 17.4352413244
           2        7                 -5.2255326521                 -5.2270484734
           2        8                  8.6835629259                  8.6603288385
           2        9                 27.4952418996                 27.4953360207
           3       10               -384.4424306495               -384.4423701208
           3       11                 12.5842251816                 12.5842222903
           3       12                -15.7264628251                -15.7264433455
           3       13                 -7.0696854293                 -7.0701769954
           3       14                  8.8090390882                  8.7901077751
           3       15                 35.9586762123                 35.9588528632
           4       16               -514.2458688638               -514.2457643834
           4       17                 15.1795651126                 15.1795290741
           4       18                -21.5359799773                -21.5360846186
           4       19                 -9.0283069236                 -9.0284644067
           4       20                  8.3027758564                  8.2834874195
           4       21                 45.8339351984                 45.8338762259

  Preparing densities etc. for the partition functions (integrals / Hartree potential).

  Preparations completed.
  max(cpu_time)          :      0.154 s.
  Wall clock time (cpu1) :      0.156 s.
------------------------------------------------------------

------------------------------------------------------------
          Begin self-consistency loop: Initialization.

          Date     :  20200815, Time     :  010304.740
------------------------------------------------------------

  Initializing index lists of integration centers etc. from given atomic structure:
  | Number of centers in hartree potential         :        13
  | Number of centers in hartree multipole         :        13
  | Number of centers in electron density summation:        13
  | Number of centers in basis integrals           :        13
  | Number of centers in integrals                 :        13
  | Number of centers in hamiltonian               :        13
  Partitioning the integration grid into batches with parallel hashing+maxmin method.
  | Number of batches:      956
  | Maximal batch size:     139
  | Minimal batch size:      66
  | Average batch size:      72.851
  | Standard deviation of batch sizes:      17.480

  Integration load balanced across     1 MPI tasks.
  Work distribution over tasks is as follows:
  Task     0 has      69646 integration points.
  Initializing partition tables, free-atom densities, potentials, etc. across the integration grid (initialize_grid_storage).
  | initialize_grid_storage: Actual outermost partition radius vs. multipole_radius_free
  | (-- VB: in principle, multipole_radius_free should be larger, hence this output)
  | Species        1: Confinement radius =              4.999999999999999 AA, multipole_radius_free =              5.054417573612229 AA.
  | Species        1: outer_partition_radius set to              5.054417573612229 AA .
  | Species        2: Confinement radius =              4.999999999999999 AA, multipole_radius_free =              5.019602836301480 AA.
  | Species        2: outer_partition_radius set to              5.019602836301480 AA .
  | Species        3: Confinement radius =              4.999999999999999 AA, multipole_radius_free =              5.043624274424571 AA.
  | Species        3: outer_partition_radius set to              5.043624274424571 AA .
  | Species        4: Confinement radius =              4.999999999999999 AA, multipole_radius_free =              5.048384829883283 AA.
  | Species        4: outer_partition_radius set to              5.048384829883283 AA .
  | Original list of interatomic distances with          13 x         13 entries is created.
  | Net number of integration points:    69646
  | of which are non-zero points    :    59644
  Renormalizing the initial density to the exact electron count on the 3D integration grid.
  | Initial density: Formal number of electrons (from input files) :      48.0000000000
  | Integrated number of electrons on 3D grid     :      47.9999016226
  | Charge integration error                      :      -0.0000983774
  | Normalization factor for density and gradient :       1.0000020495
  Obtaining max. number of non-zero basis functions in each batch (get_n_compute_maxes).
  | Maximal number of non-zero basis functions:      119 in task     0
  Selecting the method for density update.
  Loop over occupied states selected for charge density update.
  Allocating        0.050 MB for KS_eigenvector
  Integrating Hamiltonian matrix: batch-based integration.
  Time summed over all CPUs for integration: real work        0.500 s, elapsed        0.500 s
  Integrating overlap matrix.
  Time summed over all CPUs for integration: real work        0.211 s, elapsed        0.211 s

  Updating Kohn-Sham eigenvalues and eigenvectors using ELSI and the ELPA eigensolver.
  Overlap matrix is nonsingular
  | Lowest eigenvalue of overlap  :  0.52E-02
  | Highest eigenvalue of overlap :  0.60E+01
  Finished singularity check of overlap matrix
  | Time :     0.002 s
  Finished Cholesky decomposition
  | Time :     0.000 s
  Finished transformation to standard eigenproblem
  | Time :     0.000 s
  Starting LAPACK eigensolver
  Finished solving standard eigenproblem
  | Time :     0.002 s
  Finished back-transformation of eigenvectors
  | Time :     0.000 s

  Obtaining occupation numbers and chemical potential using ELSI.
  | Chemical potential (Fermi level):    -8.70451204eV
  Writing Kohn-Sham eigenvalues.

  State    Occupation    Eigenvalue [Ha]    Eigenvalue [eV]
      1       2.00000         -19.007871         -517.23048
      2       2.00000         -18.978362         -516.42751
      3       2.00000         -14.245788         -387.64760
      4       2.00000         -10.166632         -276.64812
      5       2.00000         -10.141236         -275.95708
      6       2.00000         -10.132039         -275.70681
      7       2.00000          -1.188536          -32.34172
      8       2.00000          -1.093093          -29.74458
      9       2.00000          -0.991212          -26.97224
     10       2.00000          -0.861491          -23.44236
     11       2.00000          -0.761048          -20.70917
     12       2.00000          -0.680039          -18.50479
     13       2.00000          -0.619276          -16.85135
     14       2.00000          -0.605408          -16.47400
     15       2.00000          -0.584661          -15.90944
     16       2.00000          -0.575533          -15.66106
     17       2.00000          -0.543265          -14.78301
     18       2.00000          -0.530804          -14.44392
     19       2.00000          -0.514173          -13.99135
     20       2.00000          -0.503045          -13.68856
     21       2.00000          -0.482573          -13.13149
     22       2.00000          -0.429423          -11.68518
     23       2.00000          -0.402590          -10.95504
     24       2.00000          -0.388555          -10.57311
     25       0.00000          -0.148309           -4.03570
     26       0.00000          -0.057954           -1.57700
     27       0.00000          -0.027462           -0.74729
     28       0.00000          -0.019331           -0.52601
     29       0.00000           0.005377            0.14631
     30       0.00000           0.012074            0.32855
     31       0.00000           0.016525            0.44967
     32       0.00000           0.029794            0.81072
     33       0.00000           0.044274            1.20476
     34       0.00000           0.056715            1.54330
     35       0.00000           0.079664            2.16777
     36       0.00000           0.132516            3.60594
     37       0.00000           0.151157            4.11318
     38       0.00000           0.200852            5.46545
     39       0.00000           0.211304            5.74986
     40       0.00000           0.220476            5.99945
     41       0.00000           0.261719            7.12173
     42       0.00000           0.278946            7.59050
     43       0.00000           0.293454            7.98529
     44       0.00000           0.298649            8.12665
     45       0.00000           0.336686            9.16168
     46       0.00000           0.358560            9.75691
     47       0.00000           0.389996           10.61232
     48       0.00000           0.425295           11.57287
     49       0.00000           0.437971           11.91780
     50       0.00000           0.463868           12.62248
     51       0.00000           0.472766           12.86462
     52       0.00000           0.533461           14.51621
     53       0.00000           0.599196           16.30496

  Highest occupied state (VBM) at    -10.57310937 eV
  | Occupation number:      2.00000000

  Lowest unoccupied state (CBM) at    -4.03569652 eV
  | Occupation number:      0.00000000

  Overall HOMO-LUMO gap:      6.53741285 eV.
  Calculating total energy contributions from superposition of free atom densities.

  Total energy components:
  | Sum of eigenvalues            :        -188.85330554 Ha       -5138.95991116 eV
  | XC energy correction          :         -41.78687361 Ha       -1137.07868492 eV
  | XC potential correction       :          53.71738156 Ha        1461.72432386 eV
  | Free-atom electrostatic energy:        -146.85215155 Ha       -3996.05036043 eV
  | Hartree energy correction     :           0.00000000 Ha           0.00000000 eV
  | vdW energy correction         :           0.00000000 Ha           0.00000000 eV
  | Entropy correction            :           0.00000000 Ha           0.00000000 eV
  | ---------------------------
  | Total energy                  :        -323.77494915 Ha       -8810.36463265 eV
  | Total energy, T -> 0          :        -323.77494915 Ha       -8810.36463265 eV  <-- do not rely on this value for anything but (periodic) metals
  | Electronic free energy        :        -323.77494915 Ha       -8810.36463265 eV

  Derived energy quantities:
  | Kinetic energy                :         320.47882474 Ha        8720.67252402 eV
  | Electrostatic energy          :        -602.46690027 Ha      -16393.95847175 eV
  | Energy correction for multipole
  | error in Hartree potential    :           0.00000000 Ha           0.00000000 eV
  | Sum of eigenvalues per atom                           :        -395.30460855 eV
  | Total energy (T->0) per atom                          :        -677.72035636 eV  <-- do not rely on this value for anything but (periodic) metals
  | Electronic free energy per atom                       :        -677.72035636 eV
  Initialize hartree_potential_storage
  Max. number of atoms included in rho_multipole:           13

  End scf initialization - timings             :  max(cpu_time)    wall_clock(cpu1)
  | Time for scf. initialization               :        1.160 s           1.162 s
  | Boundary condition initialization          :        0.000 s           0.000 s
  | Integration                                :        0.712 s           0.712 s
  | Solution of K.-S. eqns.                    :        0.004 s           0.005 s
  | Grid partitioning                          :        0.113 s           0.114 s
  | Preloading free-atom quantities on grid    :        0.002 s           0.002 s
  | Free-atom superposition energy             :        0.086 s           0.086 s
  | Total energy evaluation                    :        0.000 s           0.000 s

  Partial memory accounting:
  | Current value for overall tracked memory usage on task 0  :           0.165 MB
  | Peak value for overall tracked memory usage on task 0     :           0.678 MB after allocating wave
  | Largest tracked array allocation on task 0 so far         :           0.132 MB  when allocating H_times_psi
  Note:  These values currently only include a subset of arrays which are explicitly tracked.
  The "true" memory usage will be greater.
------------------------------------------------------------

------------------------------------------------------------
          Begin self-consistency iteration #    1

  Date     :  20200815, Time     :  010305.903
------------------------------------------------------------
  Evaluating new KS density.
  Integration grid: deviation in total charge (<rho> - N_e) =   2.131628E-14
  Pulay mixing of updated and previous charge densities.

  Evaluating partitioned Hartree potential by multipole expansion.
  | Analytical far-field extrapolation by fixed multipoles:
  | Hartree multipole sum: apparent total charge =  -0.211348E-03
  Summing up the Hartree potential.
  Time summed over all CPUs for potential: real work        0.287 s, elapsed        0.287 s
  | RMS charge density error from multipole expansion :   0.590281E-02

  Integrating Hamiltonian matrix: batch-based integration.
  Time summed over all CPUs for integration: real work        0.500 s, elapsed        0.500 s

  Updating Kohn-Sham eigenvalues and eigenvectors using ELSI and the ELPA eigensolver.
  Finished Cholesky decomposition
  | Time :     0.000 s
  Finished transformation to standard eigenproblem
  | Time :     0.000 s
  Starting LAPACK eigensolver
  Finished solving standard eigenproblem
  | Time :     0.001 s
  Finished back-transformation of eigenvectors
  | Time :     0.000 s

  Obtaining occupation numbers and chemical potential using ELSI.
  | Chemical potential (Fermi level):    -7.60291639eV
  Writing Kohn-Sham eigenvalues.

  State    Occupation    Eigenvalue [Ha]    Eigenvalue [eV]
      1       2.00000         -18.908471         -514.52567
      2       2.00000         -18.838854         -512.63130
      3       2.00000         -14.094087         -383.51963
      4       2.00000         -10.115619         -275.25999
      5       2.00000         -10.061764         -273.79453
      6       2.00000         -10.028538         -272.89040
      7       2.00000          -1.140540          -31.03567
      8       2.00000          -1.031549          -28.06988
      9       2.00000          -0.920159          -25.03879
     10       2.00000          -0.793830          -21.60122
     11       2.00000          -0.710506          -19.33385
     12       2.00000          -0.632158          -17.20190
     13       2.00000          -0.561861          -15.28901
     14       2.00000          -0.541288          -14.72921
     15       2.00000          -0.527757          -14.36100
     16       2.00000          -0.516064          -14.04282
     17       2.00000          -0.487833          -13.27461
     18       2.00000          -0.471287          -12.82437
     19       2.00000          -0.448322          -12.19947
     20       2.00000          -0.442028          -12.02820
     21       2.00000          -0.428532          -11.66095
     22       2.00000          -0.368991          -10.04075
     23       2.00000          -0.332841           -9.05707
     24       2.00000          -0.313702           -8.53627
     25       0.00000          -0.111346           -3.02989
     26       0.00000          -0.031539           -0.85822
     27       0.00000           0.000180            0.00489
     28       0.00000           0.016577            0.45108
     29       0.00000           0.039367            1.07122
     30       0.00000           0.047798            1.30066
     31       0.00000           0.058407            1.58933
     32       0.00000           0.068544            1.86518
     33       0.00000           0.088147            2.39861
     34       0.00000           0.097196            2.64485
     35       0.00000           0.121017            3.29303
     36       0.00000           0.159845            4.34961
     37       0.00000           0.176501            4.80285
     38       0.00000           0.228790            6.22568
     39       0.00000           0.241956            6.58397
     40       0.00000           0.261884            7.12624
     41       0.00000           0.296946            8.08032
     42       0.00000           0.312646            8.50753
     43       0.00000           0.329128            8.95604
     44       0.00000           0.340856            9.27517
     45       0.00000           0.376427           10.24309
     46       0.00000           0.394705           10.74046
     47       0.00000           0.427311           11.62772
     48       0.00000           0.462820           12.59397
     49       0.00000           0.479461           13.04678
     50       0.00000           0.498457           13.56372
     51       0.00000           0.512033           13.93314
     52       0.00000           0.568741           15.47624
     53       0.00000           0.636782           17.32771

  Highest occupied state (VBM) at     -8.53627128 eV
  | Occupation number:      2.00000000

  Lowest unoccupied state (CBM) at    -3.02988841 eV
  | Occupation number:      0.00000000

  Overall HOMO-LUMO gap:      5.50638287 eV.

  Total energy components:
  | Sum of eigenvalues            :        -185.43316261 Ha       -5045.89308670 eV
  | XC energy correction          :         -42.11450131 Ha       -1145.99388815 eV
  | XC potential correction       :          54.14349112 Ha        1473.31935501 eV
  | Free-atom electrostatic energy:        -146.85215155 Ha       -3996.05036043 eV
  | Hartree energy correction     :          -3.33891299 Ha         -90.85644507 eV
  | vdW energy correction         :           0.00000000 Ha           0.00000000 eV
  | Entropy correction            :           0.00000000 Ha           0.00000000 eV
  | ---------------------------
  | Total energy                  :        -323.59523733 Ha       -8805.47442535 eV
  | Total energy, T -> 0          :        -323.59523733 Ha       -8805.47442535 eV  <-- do not rely on this value for anything but (periodic) metals
  | Electronic free energy        :        -323.59523733 Ha       -8805.47442535 eV

  Derived energy quantities:
  | Kinetic energy                :         322.26056659 Ha        8769.15618656 eV
  | Electrostatic energy          :        -603.74130261 Ha      -16428.63672375 eV
  | Energy correction for multipole
  | error in Hartree potential    :           0.01207247 Ha           0.32850851 eV
  | Sum of eigenvalues per atom                           :        -388.14562205 eV
  | Total energy (T->0) per atom                          :        -677.34418657 eV  <-- do not rely on this value for anything but (periodic) metals
  | Electronic free energy per atom                       :        -677.34418657 eV

  Self-consistency convergence accuracy:
  | Change of charge density      :  0.5802E+00
  | Change of sum of eigenvalues  :  0.9307E+02 eV
  | Change of total energy        :  0.4890E+01 eV

  End self-consistency iteration #     1       :  max(cpu_time)    wall_clock(cpu1)
  | Time for this iteration                    :        1.204 s           1.206 s
  | Charge density update                      :        0.399 s           0.399 s
  | Density mixing                             :        0.006 s           0.006 s
  | Hartree multipole update                   :        0.009 s           0.009 s
  | Hartree multipole summation                :        0.288 s           0.288 s
  | Integration                                :        0.500 s           0.501 s
  | Solution of K.-S. eqns.                    :        0.002 s           0.002 s
  | Total energy evaluation                    :        0.000 s           0.001 s

  Partial memory accounting:
  | Current value for overall tracked memory usage on task 0  :           0.165 MB
  | Peak value for overall tracked memory usage on task 0     :           0.695 MB after allocating gradient_basis_wave
  | Largest tracked array allocation on task 0 so far         :           0.397 MB  when allocating gradient_basis_wave
  Note:  These values currently only include a subset of arrays which are explicitly tracked.
  The "true" memory usage will be greater.
------------------------------------------------------------

------------------------------------------------------------
          Begin self-consistency iteration #    2

  Date     :  20200815, Time     :  010307.135
------------------------------------------------------------
  Evaluating new KS density.
  Integration grid: deviation in total charge (<rho> - N_e) =   7.815970E-14
  Pulay mixing of updated and previous charge densities.

  Evaluating partitioned Hartree potential by multipole expansion.
  | Analytical far-field extrapolation by fixed multipoles:
  | Hartree multipole sum: apparent total charge =  -0.356889E-03
  Summing up the Hartree potential.
  Time summed over all CPUs for potential: real work        0.287 s, elapsed        0.287 s
  | RMS charge density error from multipole expansion :   0.141379E-01

  Integrating Hamiltonian matrix: batch-based integration.
  Time summed over all CPUs for integration: real work        0.498 s, elapsed        0.498 s

  Updating Kohn-Sham eigenvalues and eigenvectors using ELSI and the ELPA eigensolver.
  Finished Cholesky decomposition
  | Time :     0.000 s
  Finished transformation to standard eigenproblem
  | Time :     0.000 s
  Starting LAPACK eigensolver
  Finished solving standard eigenproblem
  | Time :     0.002 s
  Finished back-transformation of eigenvectors
  | Time :     0.000 s

  Obtaining occupation numbers and chemical potential using ELSI.
  | Chemical potential (Fermi level):    -6.37312422eV
  Highest occupied state (VBM) at     -6.45012426 eV
  | Occupation number:      2.00000000

  Lowest unoccupied state (CBM) at    -1.74647293 eV
  | Occupation number:      0.00000000

  Overall HOMO-LUMO gap:      4.70365134 eV.

  Checking to see if s.c.f. parameters should be adjusted.

  Total energy components:
  | Sum of eigenvalues            :        -181.81858996 Ha       -4947.53556074 eV
  | XC energy correction          :         -42.47695232 Ha       -1155.85668209 eV
  | XC potential correction       :          54.61334031 Ha        1486.10460197 eV
  | Free-atom electrostatic energy:        -146.85215155 Ha       -3996.05036043 eV
  | Hartree energy correction     :          -6.98386855 Ha        -190.04073239 eV
  | vdW energy correction         :           0.00000000 Ha           0.00000000 eV
  | Entropy correction            :          -0.00000000 Ha          -0.00000000 eV
  | ---------------------------
  | Total energy                  :        -323.51822208 Ha       -8803.37873366 eV
  | Total energy, T -> 0          :        -323.51822208 Ha       -8803.37873366 eV  <-- do not rely on this value for anything but (periodic) metals
  | Electronic free energy        :        -323.51822208 Ha       -8803.37873366 eV

  Derived energy quantities:
  | Kinetic energy                :         323.58768714 Ha        8805.26897417 eV
  | Electrostatic energy          :        -604.62895689 Ha      -16452.79102575 eV
  | Energy correction for multipole
  | error in Hartree potential    :           0.02696449 Ha           0.73374112 eV
  | Sum of eigenvalues per atom                           :        -380.57965852 eV
  | Total energy (T->0) per atom                          :        -677.18297951 eV  <-- do not rely on this value for anything but (periodic) metals
  | Electronic free energy per atom                       :        -677.18297951 eV

  Self-consistency convergence accuracy:
  | Change of charge density      :  0.3621E+00
  | Change of sum of eigenvalues  :  0.9836E+02 eV
  | Change of total energy        :  0.2096E+01 eV

  End self-consistency iteration #     2       :  max(cpu_time)    wall_clock(cpu1)
  | Time for this iteration                    :        1.196 s           1.197 s
  | Charge density update                      :        0.392 s           0.392 s
  | Density mixing                             :        0.007 s           0.008 s
  | Hartree multipole update                   :        0.009 s           0.009 s
  | Hartree multipole summation                :        0.287 s           0.287 s
  | Integration                                :        0.498 s           0.499 s
  | Solution of K.-S. eqns.                    :        0.002 s           0.002 s
  | Total energy evaluation                    :        0.000 s           0.000 s

  Partial memory accounting:
  | Current value for overall tracked memory usage on task 0  :           0.166 MB
  | Peak value for overall tracked memory usage on task 0     :           0.695 MB after allocating gradient_basis_wave
  | Largest tracked array allocation on task 0 so far         :           0.397 MB  when allocating gradient_basis_wave
  Note:  These values currently only include a subset of arrays which are explicitly tracked.
  The "true" memory usage will be greater.
------------------------------------------------------------

------------------------------------------------------------
          Begin self-consistency iteration #    3

  Date     :  20200815, Time     :  010308.335
------------------------------------------------------------
  Evaluating new KS density.
  Integration grid: deviation in total charge (<rho> - N_e) =   1.421085E-14
  Pulay mixing of updated and previous charge densities.

  Evaluating partitioned Hartree potential by multipole expansion.
  | Analytical far-field extrapolation by fixed multipoles:
  | Hartree multipole sum: apparent total charge =  -0.460548E-03
  Summing up the Hartree potential.
  Time summed over all CPUs for potential: real work        0.442 s, elapsed        0.442 s
  | RMS charge density error from multipole expansion :   0.225931E-01

  Integrating Hamiltonian matrix: batch-based integration.
  Time summed over all CPUs for integration: real work        0.500 s, elapsed        0.500 s

  Updating Kohn-Sham eigenvalues and eigenvectors using ELSI and the ELPA eigensolver.
  Finished Cholesky decomposition
  | Time :     0.000 s
  Finished transformation to standard eigenproblem
  | Time :     0.000 s
  Starting LAPACK eigensolver
  Finished solving standard eigenproblem
  | Time :     0.002 s
  Finished back-transformation of eigenvectors
  | Time :     0.000 s

  Obtaining occupation numbers and chemical potential using ELSI.
  | Chemical potential (Fermi level):    -5.74213562eV
  Highest occupied state (VBM) at     -5.79526630 eV
  | Occupation number:      2.00000000

  Lowest unoccupied state (CBM) at    -1.04441066 eV
  | Occupation number:      0.00000000

  Overall HOMO-LUMO gap:      4.75085564 eV.

  Total energy components:
  | Sum of eigenvalues            :        -180.56199476 Ha       -4913.34186558 eV
  | XC energy correction          :         -42.62579544 Ha       -1159.90690927 eV
  | XC potential correction       :          54.80287935 Ha        1491.26222183 eV
  | Free-atom electrostatic energy:        -146.85215155 Ha       -3996.05036043 eV
  | Hartree energy correction     :          -8.26906142 Ha        -225.01260985 eV
  | vdW energy correction         :           0.00000000 Ha           0.00000000 eV
  | Entropy correction            :          -0.00000000 Ha          -0.00000000 eV
  | ---------------------------
  | Total energy                  :        -323.50612382 Ha       -8803.04952329 eV
  | Total energy, T -> 0          :        -323.50612382 Ha       -8803.04952329 eV  <-- do not rely on this value for anything but (periodic) metals
  | Electronic free energy        :        -323.50612382 Ha       -8803.04952329 eV

  Derived energy quantities:
  | Kinetic energy                :         323.11413428 Ha        8792.38294538 eV
  | Electrostatic energy          :        -603.99446266 Ha      -16435.52555941 eV
  | Energy correction for multipole
  | error in Hartree potential    :           0.03884529 Ha           1.05703420 eV
  | Sum of eigenvalues per atom                           :        -377.94937428 eV
  | Total energy (T->0) per atom                          :        -677.15765564 eV  <-- do not rely on this value for anything but (periodic) metals
  | Electronic free energy per atom                       :        -677.15765564 eV

  Self-consistency convergence accuracy:
  | Change of charge density      :  0.2008E+00
  | Change of sum of eigenvalues  :  0.3419E+02 eV
  | Change of total energy        :  0.3292E+00 eV

  End self-consistency iteration #     3       :  max(cpu_time)    wall_clock(cpu1)
  | Time for this iteration                    :        1.197 s           1.354 s
  | Charge density update                      :        0.390 s           0.391 s
  | Density mixing                             :        0.009 s           0.009 s
  | Hartree multipole update                   :        0.009 s           0.009 s
  | Hartree multipole summation                :        0.288 s           0.442 s
  | Integration                                :        0.499 s           0.500 s
  | Solution of K.-S. eqns.                    :        0.002 s           0.002 s
  | Total energy evaluation                    :        0.000 s           0.001 s

  Partial memory accounting:
  | Current value for overall tracked memory usage on task 0  :           0.166 MB
  | Peak value for overall tracked memory usage on task 0     :           0.695 MB after allocating gradient_basis_wave
  | Largest tracked array allocation on task 0 so far         :           0.397 MB  when allocating gradient_basis_wave
  Note:  These values currently only include a subset of arrays which are explicitly tracked.
  The "true" memory usage will be greater.
------------------------------------------------------------

------------------------------------------------------------
          Begin self-consistency iteration #    4

  Date     :  20200815, Time     :  010309.691
------------------------------------------------------------
  Evaluating new KS density.
  Integration grid: deviation in total charge (<rho> - N_e) =  -4.973799E-14
  Pulay mixing of updated and previous charge densities.

  Evaluating partitioned Hartree potential by multipole expansion.
  | Analytical far-field extrapolation by fixed multipoles:
  | Hartree multipole sum: apparent total charge =  -0.492172E-03
  Summing up the Hartree potential.
  Time summed over all CPUs for potential: real work        0.287 s, elapsed        0.287 s
  | RMS charge density error from multipole expansion :   0.257921E-01

  Integrating Hamiltonian matrix: batch-based integration.
  Time summed over all CPUs for integration: real work        0.499 s, elapsed        0.499 s

  Updating Kohn-Sham eigenvalues and eigenvectors using ELSI and the ELPA eigensolver.
  Finished Cholesky decomposition
  | Time :     0.000 s
  Finished transformation to standard eigenproblem
  | Time :     0.000 s
  Starting LAPACK eigensolver
  Finished solving standard eigenproblem
  | Time :     0.002 s
  Finished back-transformation of eigenvectors
  | Time :     0.000 s

  Obtaining occupation numbers and chemical potential using ELSI.
  | Chemical potential (Fermi level):    -1.50491031eV
  Highest occupied state (VBM) at     -5.61671101 eV
  | Occupation number:      2.00000000

  Lowest unoccupied state (CBM) at    -0.97266617 eV
  | Occupation number:      0.00000000

  Overall HOMO-LUMO gap:      4.64404485 eV.

  Total energy components:
  | Sum of eigenvalues            :        -180.40606385 Ha       -4909.09876954 eV
  | XC energy correction          :         -42.66260277 Ha       -1160.90848769 eV
  | XC potential correction       :          54.84934564 Ha        1492.52663383 eV
  | Free-atom electrostatic energy:        -146.85215155 Ha       -3996.05036043 eV
  | Hartree energy correction     :          -8.43395226 Ha        -229.49951770 eV
  | vdW energy correction         :           0.00000000 Ha           0.00000000 eV
  | Entropy correction            :           0.00000000 Ha           0.00000000 eV
  | ---------------------------
  | Total energy                  :        -323.50542478 Ha       -8803.03050152 eV
  | Total energy, T -> 0          :        -323.50542478 Ha       -8803.03050152 eV  <-- do not rely on this value for anything but (periodic) metals
  | Electronic free energy        :        -323.50542478 Ha       -8803.03050152 eV

  Derived energy quantities:
  | Kinetic energy                :         322.78136813 Ha        8783.32791761 eV
  | Electrostatic energy          :        -603.62419014 Ha      -16425.44993144 eV
  | Energy correction for multipole
  | error in Hartree potential    :           0.04294636 Ha           1.16862982 eV
  | Sum of eigenvalues per atom                           :        -377.62298227 eV
  | Total energy (T->0) per atom                          :        -677.15619242 eV  <-- do not rely on this value for anything but (periodic) metals
  | Electronic free energy per atom                       :        -677.15619242 eV

  Self-consistency convergence accuracy:
  | Change of charge density      :  0.5830E-01
  | Change of sum of eigenvalues  :  0.4243E+01 eV
  | Change of total energy        :  0.1902E-01 eV

  End self-consistency iteration #     4       :  max(cpu_time)    wall_clock(cpu1)
  | Time for this iteration                    :        1.197 s           1.199 s
  | Charge density update                      :        0.389 s           0.390 s
  | Density mixing                             :        0.010 s           0.010 s
  | Hartree multipole update                   :        0.009 s           0.009 s
  | Hartree multipole summation                :        0.287 s           0.287 s
  | Integration                                :        0.499 s           0.499 s
  | Solution of K.-S. eqns.                    :        0.002 s           0.003 s
  | Total energy evaluation                    :        0.000 s           0.000 s

  Partial memory accounting:
  | Current value for overall tracked memory usage on task 0  :           0.166 MB
  | Peak value for overall tracked memory usage on task 0     :           0.696 MB after allocating gradient_basis_wave
  | Largest tracked array allocation on task 0 so far         :           0.397 MB  when allocating gradient_basis_wave
  Note:  These values currently only include a subset of arrays which are explicitly tracked.
  The "true" memory usage will be greater.
------------------------------------------------------------

------------------------------------------------------------
          Begin self-consistency iteration #    5

  Date     :  20200815, Time     :  010310.892
------------------------------------------------------------
  Evaluating new KS density.
  Integration grid: deviation in total charge (<rho> - N_e) =  -1.421085E-14
  Pulay mixing of updated and previous charge densities.

  Evaluating partitioned Hartree potential by multipole expansion.
  | Analytical far-field extrapolation by fixed multipoles:
  | Hartree multipole sum: apparent total charge =  -0.486101E-03
  Summing up the Hartree potential.
  Time summed over all CPUs for potential: real work        0.287 s, elapsed        0.287 s
  | RMS charge density error from multipole expansion :   0.255455E-01

  Integrating Hamiltonian matrix: batch-based integration.
  Time summed over all CPUs for integration: real work        0.499 s, elapsed        0.499 s

  Updating Kohn-Sham eigenvalues and eigenvectors using ELSI and the ELPA eigensolver.
  Finished Cholesky decomposition
  | Time :     0.000 s
  Finished transformation to standard eigenproblem
  | Time :     0.000 s
  Starting LAPACK eigensolver
  Finished solving standard eigenproblem
  | Time :     0.001 s
  Finished back-transformation of eigenvectors
  | Time :     0.000 s

  Obtaining occupation numbers and chemical potential using ELSI.
  | Chemical potential (Fermi level):    -1.55328102eV
  Highest occupied state (VBM) at     -5.68813101 eV
  | Occupation number:      2.00000000

  Lowest unoccupied state (CBM) at    -1.04898389 eV
  | Occupation number:      0.00000000

  Overall HOMO-LUMO gap:      4.63914712 eV.

  Total energy components:
  | Sum of eigenvalues            :        -180.58066960 Ha       -4913.85003369 eV
  | XC energy correction          :         -42.64110460 Ha       -1160.32349265 eV
  | XC potential correction       :          54.82146608 Ha        1491.76799249 eV
  | Free-atom electrostatic energy:        -146.85215155 Ha       -3996.05036043 eV
  | Hartree energy correction     :          -8.25266508 Ha        -224.56644277 eV
  | vdW energy correction         :           0.00000000 Ha           0.00000000 eV
  | Entropy correction            :           0.00000000 Ha           0.00000000 eV
  | ---------------------------
  | Total energy                  :        -323.50512474 Ha       -8803.02233704 eV
  | Total energy, T -> 0          :        -323.50512474 Ha       -8803.02233704 eV  <-- do not rely on this value for anything but (periodic) metals
  | Electronic free energy        :        -323.50512474 Ha       -8803.02233704 eV

  Derived energy quantities:
  | Kinetic energy                :         322.68682222 Ha        8780.75519248 eV
  | Electrostatic energy          :        -603.55084236 Ha      -16423.45403688 eV
  | Energy correction for multipole
  | error in Hartree potential    :           0.04236167 Ha           1.15271966 eV
  | Sum of eigenvalues per atom                           :        -377.98846413 eV
  | Total energy (T->0) per atom                          :        -677.15556439 eV  <-- do not rely on this value for anything but (periodic) metals
  | Electronic free energy per atom                       :        -677.15556439 eV

  Self-consistency convergence accuracy:
  | Change of charge density      :  0.2093E-01
  | Change of sum of eigenvalues  : -0.4751E+01 eV
  | Change of total energy        :  0.8164E-02 eV

  End self-consistency iteration #     5       :  max(cpu_time)    wall_clock(cpu1)
  | Time for this iteration                    :        1.198 s           1.200 s
  | Charge density update                      :        0.390 s           0.390 s
  | Density mixing                             :        0.011 s           0.012 s
  | Hartree multipole update                   :        0.009 s           0.009 s
  | Hartree multipole summation                :        0.287 s           0.287 s
  | Integration                                :        0.499 s           0.499 s
  | Solution of K.-S. eqns.                    :        0.002 s           0.003 s
  | Total energy evaluation                    :        0.000 s           0.000 s

  Partial memory accounting:
  | Current value for overall tracked memory usage on task 0  :           0.166 MB
  | Peak value for overall tracked memory usage on task 0     :           0.696 MB after allocating gradient_basis_wave
  | Largest tracked array allocation on task 0 so far         :           0.397 MB  when allocating gradient_basis_wave
  Note:  These values currently only include a subset of arrays which are explicitly tracked.
  The "true" memory usage will be greater.
------------------------------------------------------------

------------------------------------------------------------
          Begin self-consistency iteration #    6

  Date     :  20200815, Time     :  010312.094
------------------------------------------------------------
  Evaluating new KS density.
  Integration grid: deviation in total charge (<rho> - N_e) =  -3.552714E-14
  Pulay mixing of updated and previous charge densities.

  Evaluating partitioned Hartree potential by multipole expansion.
  | Analytical far-field extrapolation by fixed multipoles:
  | Hartree multipole sum: apparent total charge =  -0.487990E-03
  Summing up the Hartree potential.
  Time summed over all CPUs for potential: real work        0.287 s, elapsed        0.287 s
  | RMS charge density error from multipole expansion :   0.258953E-01

  Integrating Hamiltonian matrix: batch-based integration.
  Time summed over all CPUs for integration: real work        0.498 s, elapsed        0.498 s

  Updating Kohn-Sham eigenvalues and eigenvectors using ELSI and the ELPA eigensolver.
  Finished Cholesky decomposition
  | Time :     0.000 s
  Finished transformation to standard eigenproblem
  | Time :     0.000 s
  Starting LAPACK eigensolver
  Finished solving standard eigenproblem
  | Time :     0.002 s
  Finished back-transformation of eigenvectors
  | Time :     0.000 s

  Obtaining occupation numbers and chemical potential using ELSI.
  | Chemical potential (Fermi level):    -1.55956152eV
  Highest occupied state (VBM) at     -5.66928557 eV
  | Occupation number:      2.00000000

  Lowest unoccupied state (CBM) at    -1.07793315 eV
  | Occupation number:      0.00000000

  Overall HOMO-LUMO gap:      4.59135242 eV.

  Total energy components:
  | Sum of eigenvalues            :        -180.61977555 Ha       -4914.91416086 eV
  | XC energy correction          :         -42.63505001 Ha       -1160.15873897 eV
  | XC potential correction       :          54.81360028 Ha        1491.55395303 eV
  | Free-atom electrostatic energy:        -146.85215155 Ha       -3996.05036043 eV
  | Hartree energy correction     :          -8.21168251 Ha        -223.45125019 eV
  | vdW energy correction         :           0.00000000 Ha           0.00000000 eV
  | Entropy correction            :           0.00000000 Ha           0.00000000 eV
  | ---------------------------
  | Total energy                  :        -323.50505934 Ha       -8803.02055741 eV
  | Total energy, T -> 0          :        -323.50505934 Ha       -8803.02055741 eV  <-- do not rely on this value for anything but (periodic) metals
  | Electronic free energy        :        -323.50505934 Ha       -8803.02055741 eV

  Derived energy quantities:
  | Kinetic energy                :         322.59137893 Ha        8778.15804853 eV
  | Electrostatic energy          :        -603.46138826 Ha      -16421.01986698 eV
  | Energy correction for multipole
  | error in Hartree potential    :           0.04260139 Ha           1.15924288 eV
  | Sum of eigenvalues per atom                           :        -378.07032007 eV
  | Total energy (T->0) per atom                          :        -677.15542749 eV  <-- do not rely on this value for anything but (periodic) metals
  | Electronic free energy per atom                       :        -677.15542749 eV

  Self-consistency convergence accuracy:
  | Change of charge density      :  0.1061E-01
  | Change of sum of eigenvalues  : -0.1064E+01 eV
  | Change of total energy        :  0.1780E-02 eV

  End self-consistency iteration #     6       :  max(cpu_time)    wall_clock(cpu1)
  | Time for this iteration                    :        1.198 s           1.200 s
  | Charge density update                      :        0.389 s           0.390 s
  | Density mixing                             :        0.013 s           0.012 s
  | Hartree multipole update                   :        0.009 s           0.009 s
  | Hartree multipole summation                :        0.287 s           0.287 s
  | Integration                                :        0.498 s           0.498 s
  | Solution of K.-S. eqns.                    :        0.002 s           0.002 s
  | Total energy evaluation                    :        0.000 s           0.000 s

  Partial memory accounting:
  | Current value for overall tracked memory usage on task 0  :           0.166 MB
  | Peak value for overall tracked memory usage on task 0     :           0.696 MB after allocating gradient_basis_wave
  | Largest tracked array allocation on task 0 so far         :           0.397 MB  when allocating gradient_basis_wave
  Note:  These values currently only include a subset of arrays which are explicitly tracked.
  The "true" memory usage will be greater.
------------------------------------------------------------

------------------------------------------------------------
          Begin self-consistency iteration #    7

  Date     :  20200815, Time     :  010313.296
------------------------------------------------------------
  Evaluating new KS density.
  Integration grid: deviation in total charge (<rho> - N_e) =   2.842171E-14
  Pulay mixing of updated and previous charge densities.

  Evaluating partitioned Hartree potential by multipole expansion.
  | Analytical far-field extrapolation by fixed multipoles:
  | Hartree multipole sum: apparent total charge =  -0.489413E-03
  Summing up the Hartree potential.
  Time summed over all CPUs for potential: real work        0.539 s, elapsed        0.539 s
  | RMS charge density error from multipole expansion :   0.260629E-01

  Integrating Hamiltonian matrix: batch-based integration.
  Time summed over all CPUs for integration: real work        0.507 s, elapsed        0.507 s

  Updating Kohn-Sham eigenvalues and eigenvectors using ELSI and the ELPA eigensolver.
  Finished Cholesky decomposition
  | Time :     0.000 s
  Finished transformation to standard eigenproblem
  | Time :     0.000 s
  Starting LAPACK eigensolver
  Finished solving standard eigenproblem
  | Time :     0.002 s
  Finished back-transformation of eigenvectors
  | Time :     0.000 s

[...]
  |   Hirshfeld dipole moment :      0.06452237
  |   Hirshfeld second moments:      0.00615456      -0.01600042      -0.01482190
  |                                 -0.01600042      -0.00608570       0.00793632
  |                                 -0.01482190       0.00793632      -0.01994858
  ----------------------------------------------------------------------
  | Atom    12: O
  |   Hirshfeld charge        :     -0.13266399
  |   Free atom volume        :     23.61338643
  |   Hirshfeld volume        :     20.60111815
  |   Hirshfeld dipole vector :      0.01725075       0.00121177       0.03174292
  |   Hirshfeld dipole moment :      0.03614788
  |   Hirshfeld second moments:      0.05884698       0.01068753      -0.02001199
  |                                  0.01068753       0.09714070      -0.01378327
  |                                 -0.02001199      -0.01378327       0.04639171
  ----------------------------------------------------------------------
  | Atom    13: H
  |   Hirshfeld charge        :      0.17114210
  |   Free atom volume        :      9.95071624
  |   Hirshfeld volume        :      6.37481849
  |   Hirshfeld dipole vector :     -0.01979027      -0.09927780       0.04821058
  |   Hirshfeld dipole moment :      0.11212491
  |   Hirshfeld second moments:      0.11555580       0.00102769      -0.01553159
  |                                  0.00102769       0.12266401      -0.00039716
  |                                 -0.01553159      -0.00039716       0.08358909
  ----------------------------------------------------------------------


  Total energy components:
  | Sum of eigenvalues            :        -180.60806315 Ha       -4914.59545011 eV
  | XC energy correction          :         -42.63309115 Ha       -1160.10543566 eV
  | XC potential correction       :          54.81113974 Ha        1491.48699832 eV
  | Free-atom electrostatic energy:        -146.85215155 Ha       -3996.05036043 eV
  | Hartree energy correction     :          -8.22287557 Ha        -223.75582896 eV
  | vdW energy correction         :          -0.00309464 Ha          -0.08420943 eV
  | Entropy correction            :           0.00000000 Ha           0.00000000 eV
  | ---------------------------
  | Total energy                  :        -323.50813632 Ha       -8803.10428626 eV
  | Total energy, T -> 0          :        -323.50813632 Ha       -8803.10428626 eV  <-- do not rely on this value for anything but (periodic) metals
  | Electronic free energy        :        -323.50813632 Ha       -8803.10428626 eV

  Derived energy quantities:
  | Kinetic energy                :         322.55277765 Ha        8777.10765406 eV
  | Electrostatic energy          :        -603.42472818 Ha      -16420.02229523 eV
  | Energy correction for multipole
  | error in Hartree potential    :           0.04273775 Ha           1.16295344 eV
  | Sum of eigenvalues per atom                           :        -378.04580385 eV
  | Total energy (T->0) per atom                          :        -677.16186817 eV  <-- do not rely on this value for anything but (periodic) metals
  | Electronic free energy per atom                       :        -677.16186817 eV

  atomic forces [eV/Ang]:
  -----------------------
  atom #    1
   Hellmann-Feynman              :  0.861530E+00  0.220922E+00  0.644097E+00
   Ionic forces                  :  0.000000E+00  0.000000E+00  0.000000E+00
   Multipole                     :  0.225604E+00  0.333872E+00 -0.332909E+00
   Pulay + GGA                   : -0.145120E+01 -0.494735E+00 -0.946580E+00
   Van der Waals                 :  0.148511E-02  0.562826E-03 -0.131068E-02
   ----------------------------------------------------------------
   Total forces(   1)            : -0.362577E+00  0.606222E-01 -0.636703E+00
  atom #    2
   Hellmann-Feynman              :  0.442014E+00 -0.767309E-01  0.424935E+00
   Ionic forces                  :  0.000000E+00  0.000000E+00  0.000000E+00
   Multipole                     :  0.147205E+00  0.237392E-01 -0.435686E-01
   Pulay + GGA                   : -0.116919E+00  0.904317E-02  0.637937E-02
   Van der Waals                 :  0.872679E-02 -0.366036E-02 -0.123641E-02
   ----------------------------------------------------------------
   Total forces(   2)            :  0.481027E+00 -0.476089E-01  0.386509E+00
  atom #    3
   Hellmann-Feynman              : -0.121478E+02  0.258947E+01  0.820561E+00
   Ionic forces                  :  0.000000E+00  0.000000E+00  0.000000E+00
   Multipole                     : -0.799821E-01  0.145048E+00 -0.922644E+00
   Pulay + GGA                   :  0.119110E+02 -0.271001E+01  0.901108E+00
   Van der Waals                 :  0.296620E-02 -0.763084E-02 -0.643165E-02
   ----------------------------------------------------------------
   Total forces(   3)            : -0.313798E+00  0.168755E-01  0.792593E+00
  atom #    4
   Hellmann-Feynman              :  0.168280E+00 -0.642314E-01 -0.914152E-01
   Ionic forces                  :  0.000000E+00  0.000000E+00  0.000000E+00
   Multipole                     :  0.385188E-01  0.109295E-01 -0.994833E-01
   Pulay + GGA                   : -0.173668E+00 -0.970485E-01  0.971481E-01
   Van der Waals                 : -0.219949E-02 -0.614306E-02 -0.491771E-02
   ----------------------------------------------------------------
   Total forces(   4)            :  0.309313E-01 -0.156494E+00 -0.986682E-01
  atom #    5
   Hellmann-Feynman              :  0.229473E+00 -0.105120E+00 -0.283165E+00
   Ionic forces                  :  0.000000E+00  0.000000E+00  0.000000E+00
   Multipole                     :  0.204493E-01 -0.598153E-01 -0.100319E+00
   Pulay + GGA                   : -0.137884E+00  0.173870E+00  0.823056E-01
   Van der Waals                 : -0.312151E-02  0.234130E-02 -0.118849E-03
   ----------------------------------------------------------------
   Total forces(   5)            :  0.108917E+00  0.112760E-01 -0.301298E+00
  atom #    6
   Hellmann-Feynman              : -0.268150E+00 -0.719926E+00  0.490788E+00
   Ionic forces                  :  0.000000E+00  0.000000E+00  0.000000E+00
   Multipole                     : -0.122982E+00  0.699692E+00  0.247215E+00
   Pulay + GGA                   :  0.462381E+00 -0.421969E+00 -0.647541E+00
   Van der Waals                 : -0.450032E-02  0.492681E-02  0.131594E-02
   ----------------------------------------------------------------
   Total forces(   6)            :  0.667483E-01 -0.437277E+00  0.917781E-01
  atom #    7
   Hellmann-Feynman              : -0.187708E+00 -0.398725E-01 -0.695847E-01
   Ionic forces                  :  0.000000E+00  0.000000E+00  0.000000E+00
   Multipole                     : -0.124054E+00  0.481474E-01  0.315858E-01
   Pulay + GGA                   :  0.118706E+00 -0.132828E-01 -0.358640E-01
   Van der Waals                 : -0.660607E-03  0.171569E-02  0.254465E-02
   ----------------------------------------------------------------
   Total forces(   7)            : -0.193717E+00 -0.329231E-02 -0.713182E-01
  atom #    8
   Hellmann-Feynman              :  0.126701E+00 -0.322079E-01  0.125292E+00
   Ionic forces                  :  0.000000E+00  0.000000E+00  0.000000E+00
   Multipole                     :  0.120096E-01  0.632562E-01  0.125716E+00
   Pulay + GGA                   : -0.424574E-01 -0.358781E-01 -0.894943E-01
   Van der Waals                 : -0.248821E-02  0.114695E-01  0.137825E-02
   ----------------------------------------------------------------
   Total forces(   8)            :  0.937647E-01  0.663973E-02  0.162892E+00
  atom #    9
   Hellmann-Feynman              :  0.120456E+00  0.507698E-01 -0.194489E+00
   Ionic forces                  :  0.000000E+00  0.000000E+00  0.000000E+00
   Multipole                     :  0.162854E-01  0.128211E+00 -0.672137E-02
   Pulay + GGA                   : -0.547652E-01 -0.715065E-01  0.657392E-01
   Van der Waals                 : -0.222100E-02  0.619897E-02  0.752618E-02
   ----------------------------------------------------------------
   Total forces(   9)            :  0.797554E-01  0.113673E+00 -0.127945E+00
  atom #   10
   Hellmann-Feynman              :  0.241289E+01  0.535592E+01  0.200966E+00
   Ionic forces                  :  0.000000E+00  0.000000E+00  0.000000E+00
   Multipole                     :  0.284335E-01 -0.238382E+00  0.256960E+00
   Pulay + GGA                   : -0.156148E+01 -0.283273E+01 -0.153973E+00
   Van der Waals                 :  0.314382E-02 -0.103255E-01 -0.108973E-02
   ----------------------------------------------------------------
   Total forces(  10)            :  0.882989E+00  0.227447E+01  0.302863E+00
  atom #   11
   Hellmann-Feynman              :  0.411781E+01 -0.251669E+01  0.143033E+02
   Ionic forces                  :  0.000000E+00  0.000000E+00  0.000000E+00
   Multipole                     :  0.163883E+00 -0.514617E+00  0.799434E+00
   Pulay + GGA                   : -0.334839E+01  0.343695E+01 -0.135207E+02
   Van der Waals                 : -0.312533E-02 -0.119958E-01  0.130445E-02
   ----------------------------------------------------------------
   Total forces(  11)            :  0.930177E+00  0.393642E+00  0.158337E+01
  atom #   12
   Hellmann-Feynman              : -0.584897E+01  0.914056E+00 -0.150415E+02
   Ionic forces                  :  0.000000E+00  0.000000E+00  0.000000E+00
   Multipole                     : -0.918168E+00 -0.986613E+00 -0.829578E+00
   Pulay + GGA                   :  0.546983E+01 -0.133968E+01  0.137115E+02
   Van der Waals                 :  0.233726E-03  0.593718E-02  0.515138E-02
   ----------------------------------------------------------------
   Total forces(  12)            : -0.129707E+01 -0.140630E+01 -0.215440E+01
  atom #   13
   Hellmann-Feynman              : -0.554092E+00 -0.105722E+01  0.188824E+00
   Ionic forces                  :  0.000000E+00  0.000000E+00  0.000000E+00
   Multipole                     :  0.192718E-01 -0.591155E-01  0.889992E-01
   Pulay + GGA                   :  0.254375E-01  0.279466E+00 -0.203801E+00
   Van der Waals                 :  0.176082E-02  0.660315E-02 -0.411582E-02
   ----------------------------------------------------------------
   Total forces(  13)            : -0.507622E+00 -0.830270E+00  0.699066E-01

  Timings for VdW correction (Tkatchenko-Scheffler 2009 or later):
  | CPU time:        0.090 s, Wall clock time:        0.106 s.
  Removing unitary transformations (pure translations, rotations) from forces on atoms.
  Atomic forces before filtering:
  | Net force on center of mass :  -0.476183E-03 -0.403578E-02 -0.421693E-03 eV/A
  | Net torque on center of mass:  -0.779374E-02  0.617545E-02  0.387885E-03 eV
  Atomic forces after filtering:
  | Net force on center of mass :   0.892031E-16  0.356812E-15  0.267609E-15 eV/A
  | Net torque on center of mass:  -0.141613E-14  0.138662E-14 -0.188817E-15 eV

  Energy and forces in a compact form:
  | Total energy uncorrected      :         -0.880310428626240E+04 eV
  | Total energy corrected        :         -0.880310428626240E+04 eV  <-- do not rely on this value for anything but (periodic) metals
  | Electronic free energy        :         -0.880310428626240E+04 eV
  Total atomic forces (unitary forces cleaned) [eV/Ang]:
  |   1         -0.362504932809112E+00          0.609493139053391E-01         -0.636553222633069E+00
  |   2          0.481098847111478E+00         -0.472947426019364E-01          0.386932981817348E+00
  |   3         -0.313372281110230E+00          0.174320776154814E-01          0.792622526421880E+00
  |   4          0.314977811835015E-01         -0.155859270937950E+00         -0.983941580170240E-01
  |   5          0.109428854785796E+00          0.118925505666481E-01         -0.301384342700229E+00
  |   6          0.666523922704602E-01         -0.437059153265672E+00          0.920036402523023E-01
  |   7         -0.193816328742447E+00         -0.306441300351720E-02         -0.713619597538788E-01
  |   8          0.934106697576071E-01          0.668954802569156E-02          0.163209712198772E+00
  |   9          0.797966044563575E-01          0.113966204038984E+00         -0.127486774170571E+00
  |  10          0.882858948809953E+00          0.227468821052952E+01          0.302709627008356E+00
  |  11          0.929758363123335E+00          0.393671823943681E+00          0.158324483205481E+01
  |  12         -0.129704401688437E+01         -0.140596800382714E+01         -0.215486529212440E+01
  |  13         -0.507764901952329E+00         -0.830044144989127E+00          0.693224296457079E-01

  ------------------------------------ 
  Start decomposition of the XC Energy 
  ------------------------------------ 
  X and C from original XC functional choice 
  Hartree-Fock Energy :          0.000000000 Ha              0.000000000 eV
  X Energy            :        -41.033598776 Ha          -1116.581033703 eV
  C Energy            :         -1.599492373 Ha            -43.524401957 eV
  Total XC Energy     :        -42.633091148 Ha          -1160.105435659 eV
  ------------------------------------ 
  LDA X and C from self-consistent density 
  X Energy LDA        :        -37.251508668 Ha          -1013.665125582 eV
  C Energy LDA        :         -3.138164581 Ha            -85.393803035 eV
  ------------------------------------ 
  End decomposition of the XC Energy 
  ------------------------------------ 

------------------------------------------------------------

------------------------------------------------------------------------------
  Final output of selected total energy values:

  The following output summarizes some interesting total energy values
  at the end of a run (AFTER all relaxation, molecular dynamics, etc.).

  | Total energy of the DFT / Hartree-Fock s.c.f. calculation      :          -8803.104286262 eV
  | Final zero-broadening corrected energy (caution - metals only) :          -8803.104286262 eV
  | For reference only, the value of 1 Hartree used in FHI-aims is :             27.211384500 eV

  Before relying on these values, please be sure to understand exactly which
  total energy value is referred to by a given number. Different objects may
  all carry the same name 'total energy'. Definitions:

  Total energy of the DFT / Hartree-Fock s.c.f. calculation:
  | Note that this energy does not include ANY quantities calculated after the
  | s.c.f. cycle, in particular not ANY RPA, MP2, etc. many-body perturbation terms.

  Final zero-broadening corrected energy:
  | For metallic systems only, a broadening of the occupation numbers at the Fermi
  | level can be extrapolated back to zero broadening by an electron-gas inspired
  | formula. For all systems that are not real metals, this value can be
  | meaningless and should be avoided.

------------------------------------------------------------------------------
  Methods described in the following list of references were used in this FHI-aims run.
  If you publish the results, please make sure to cite these reference if they apply.
  FHI-aims is an academic code, and for our developers (often, Ph.D. students
  and postdocs), scientific credit in the community is essential.
  Thank you for helping us!

  For any use of FHI-aims, please cite:

    Volker Blum, Ralf Gehrke, Felix Hanke, Paula Havu, Ville Havu,
    Xinguo Ren, Karsten Reuter, and Matthias Scheffler
    'Ab initio molecular simulations with numeric atom-centered orbitals'
    Computer Physics Communications 180, 2175-2196 (2009)
    http://dx.doi.org/10.1016/j.cpc.2009.06.022


  The scalable eigensolver library ELPA was used in your run.
  ELPA is essential especially for large systems on hundreds or thousands of CPUs.
  For ELPA, please cite:

    Andreas Marek, Volker Blum, Rainer Johanni, Ville Havu, Bruno Lang,
    Thomas Auckenthaler, Alexander Heinecke, Hans-Joachim Bungartz, and Hermann Lederer,
    'The ELPA Library - Scalable Parallel Eigenvalue Solutions
    for Electronic Structure Theory and Computational Science'
    The Journal of Physics: Condensed Matter 26, 213201 (2014).
    http://dx.doi.org/10.1088/0953-8984/26/21/213201


  The ELSI infrastructure was used in your run to solve the Kohn-Sham electronic structure.
  Please check out http://elsi-interchange.org to learn more.
  If scalability is important for your project, please acknowledge ELSI by citing:

    V. W-z. Yu, F. Corsetti, A. Garcia, W. P. Huhn, M. Jacquelin, W. Jia,
    B. Lange, L. Lin, J. Lu, W. Mi, A. Seifitokaldani, A. Vazquez-Mayagoitia,
    C. Yang, H. Yang, and V. Blum
    'ELSI: A unified software interface for Kohn-Sham electronic structure solvers'
    Computer Physics Communications 222, 267-285 (2018).
    http://dx.doi.org/10.1016/j.cpc.2017.09.007


  For the real-space grid partitioning and parallelization used in this calculation, please cite:

    Ville Havu, Volker Blum, Paula Havu, and Matthias Scheffler,
    'Efficient O(N) integration for all-electron electronic structure calculation'
    'using numerically tabulated basis functions'
    Journal of Computational Physics 228, 8367-8379 (2009).
    http://dx.doi.org/10.1016/j.jcp.2009.08.008

  Of course, there are many other important community references, e.g., those cited in the
  above references. Our list is limited to references that describe implementations in the
  FHI-aims code. The reason is purely practical (length of this list) - please credit others as well.

------------------------------------------------------------
          Leaving FHI-aims.
          Date     :  20200815, Time     :  010328.136

          Computational steps:
          | Number of self-consistency cycles          :           16
          | Number of SCF (re)initializations          :            1

          Detailed time accounting                     :  max(cpu_time)    wall_clock(cpu1)
          | Total time                                 :       22.998 s          23.572 s
          | Preparation time                           :        0.154 s           0.156 s
          | Boundary condition initalization           :        0.000 s           0.000 s
          | Grid partitioning                          :        0.113 s           0.114 s
          | Preloading free-atom quantities on grid    :        0.002 s           0.002 s
          | Free-atom superposition energy             :        0.086 s           0.086 s
          | Total time for integrations                :        8.711 s           8.729 s
          | Total time for solution of K.-S. equations :        0.037 s           0.042 s
          | Total time for density & force components  :        7.230 s           7.242 s
          | Total time for mixing                      :        0.230 s           0.233 s
          | Total time for Hartree multipole update    :        0.142 s           0.143 s
          | Total time for Hartree multipole sum       :        5.888 s           6.304 s
          | Total time for total energy evaluation     :        0.003 s           0.007 s
          | Total time for vdW correction              :        0.090 s           0.106 s

          Partial memory accounting:
          | Residual value for overall tracked memory usage across tasks :           0.000 MB (should be 0.000 MB)
          | Peak values for overall tracked memory usage (after allocating hessian_basis_wave):
          |   Minimum:        1.622 MB (on task 1)
          |   Maximum:        1.622 MB (on task 1)
          |   Average:        1.622 MB
          | Largest tracked array allocation (hessian_basis_wave):
          |   Minimum:        0.794 MB (on task 1)
          |   Maximum:        0.794 MB (on task 1)
          |   Average:        0.794 MB
          Note:  These values currently only include a subset of arrays which are explicitly tracked.
          The "true" memory usage will be greater.

          Have a nice day.
------------------------------------------------------------
