  MPI-parallelism will be employed.
------------------------------------------------------------
          Invoking FHI-aims ...
          Version 171221_1
          Compiled on 2019/09/09 at 14:39:39 on host puhti-login2.bullx.

          When using FHI-aims, please cite the following reference:

          Volker Blum, Ralf Gehrke, Felix Hanke, Paula Havu,
          Ville Havu, Xinguo Ren, Karsten Reuter, and Matthias Scheffler,
          'Ab Initio Molecular Simulations with Numeric Atom-Centered Orbitals',
          Computer Physics Communications 180, 2175-2196 (2009)

          For any questions about FHI-aims, please visit the aimsclub website
          with its forums and wiki. Contributions to both the forums and the
          wiki are warmly encouraged - they are for you, and everyone is welcome there.

------------------------------------------------------------



  Date     :  20200505, Time     :  092201.780
  Time zero on CPU 1             :   0.259460000000000E-01  s.
  Internal wall clock time zero  :           357902521.780  s.

  FHI-aims created a unique identifier for this run for later identification
  aims_uuid : 0EEDBEAA-E0ED-4576-A95D-D42506B973F0

  Using       20 parallel tasks.
  Task        0 on host r14c47.bullx reporting.
  Task        1 on host r14c47.bullx reporting.
  Task        2 on host r14c47.bullx reporting.
  Task        3 on host r14c47.bullx reporting.
  Task        4 on host r14c47.bullx reporting.
  Task        5 on host r14c47.bullx reporting.
  Task        6 on host r14c47.bullx reporting.
  Task        7 on host r14c47.bullx reporting.
  Task        8 on host r14c47.bullx reporting.
  Task        9 on host r14c47.bullx reporting.
  Task       10 on host r14c47.bullx reporting.
  Task       11 on host r14c47.bullx reporting.
  Task       12 on host r14c47.bullx reporting.
  Task       13 on host r14c47.bullx reporting.
  Task       14 on host r14c47.bullx reporting.
  Task       15 on host r14c47.bullx reporting.
  Task       16 on host r14c47.bullx reporting.
  Task       17 on host r14c47.bullx reporting.
  Task       18 on host r14c47.bullx reporting.
  Task       19 on host r14c47.bullx reporting.

  Performing system and environment tests:
  | Environment variable OMP_NUM_THREADS correctly set to 1.
  | Stacksize not measured: no C compiler
  | Checking for scalapack...
  | Testing pdtran()...
  | All pdtran() tests passed.

  Obtaining array dimensions for all initial allocations:
  
  -----------------------------------------------------------------------
  Parsing control.in (first pass over file, find array dimensions only).
  The contents of control.in will be repeated verbatim below
  unless switched off by setting 'verbatim_writeout .false.' .
  in the first line of control.in .
  -----------------------------------------------------------------------
  
  #########################################################################################
  #
  #  Volker Blum, FHI 2009 : Test run input file control.in for simple H2O
  #
  #########################################################################################
  #
  #  Physical model
  #
    xc                 pbe
    vdw_correction_hirshfeld
    spin               none
    relativistic       none
    charge             0.
  #
  #  SCF convergence
  #
    occupation_type    gaussian 0.01
    mixer              pulay
      n_max_pulay        10
      charge_mix_param   0.2
    sc_accuracy_rho    1E-5
    sc_accuracy_eev    1E-3
    sc_accuracy_etot   1E-6
    sc_accuracy_forces 1E-4
    sc_iter_limit      100
  #
  #  Relaxation
  #
  #  relax_geometry   bfgs 1.e-3
  #
  ################################################################################
  #
  #  FHI-aims code project
  #  VB, Fritz-Haber Institut, 2009
  #
  #  Suggested "light" defaults for H atom (to be pasted into control.in file)
  #  Be sure to double-check any results obtained with these settings for post-processing,
  #  e.g., with the "tight" defaults and larger basis sets.
  #
  ################################################################################
    species        H
  #     global species definitions
      nucleus             1
      mass                1.00794
  #
      l_hartree           4
  #
      cut_pot             3.5  1.5  1.0
      basis_dep_cutoff    1e-4
  #
      radial_base         24 5.0
      radial_multiplier   1
      angular_grids       specified
        division   0.2421   50
        division   0.3822  110
        division   0.4799  194
        division   0.5341  302
  #      division   0.5626  434
  #      division   0.5922  590
  #      division   0.6542  770
  #      division   0.6868 1202
  #      outer_grid  770
        outer_grid  302
  ################################################################################
  #
  #  Definition of "minimal" basis
  #
  ################################################################################
  #     valence basis states
      valence      1  s   1.
  #     ion occupancy
      ion_occ      1  s   0.5
  ################################################################################
  #
  #  Suggested additional basis functions. For production calculations,
  #  uncomment them one after another (the most important basis functions are
  #  listed first).
  #
  #  Basis constructed for dimers: 0.5 A, 0.7 A, 1.0 A, 1.5 A, 2.5 A
  #
  ################################################################################
  #  "First tier" - improvements: -1014.90 meV to -62.69 meV
       hydro 2 s 2.1
       hydro 2 p 3.5
  #  "Second tier" - improvements: -12.89 meV to -1.83 meV
  #     hydro 1 s 0.85
  #     hydro 2 p 3.7
  #     hydro 2 s 1.2
  #     hydro 3 d 7
  #  "Third tier" - improvements: -0.25 meV to -0.12 meV
  #     hydro 4 f 11.2
  #     hydro 3 p 4.8
  #     hydro 4 d 9
  #     hydro 3 s 3.2
  ################################################################################
  #
  #  FHI-aims code project
  #  VB, Fritz-Haber Institut, 2009
  #
  #  Suggested "light" defaults for C atom (to be pasted into control.in file)
  #  Be sure to double-check any results obtained with these settings for post-processing,
  #  e.g., with the "tight" defaults and larger basis sets.
  #
  ################################################################################
    species        C
  #     global species definitions
      nucleus             6
      mass                12.0107
  #
      l_hartree           4
  #
      cut_pot             3.5  1.5  1.0
      basis_dep_cutoff    1e-4
  #
      radial_base         34 5.0
      radial_multiplier   1
      angular_grids specified
        division   0.3326   50
        division   0.5710  110
        division   0.7727  194
        division   0.8772  302
  #      division   0.9334  434
  #      division   0.9625  590
  #      division   0.9924  770
  #      division   1.0230  974
  #      division   1.4589 1202
  #     outer_grid  974
       outer_grid 302
  ################################################################################
  #
  #  Definition of "minimal" basis
  #
  ################################################################################
  #     valence basis states
      valence      2  s   2.
      valence      2  p   2.
  #     ion occupancy
      ion_occ      2  s   1.
      ion_occ      2  p   1.
  ################################################################################
  #
  #  Suggested additional basis functions. For production calculations,
  #  uncomment them one after another (the most important basis functions are
  #  listed first).
  #
  #  Constructed for dimers: 1.0 A, 1.25 A, 1.5 A, 2.0 A, 3.0 A
  #
  ################################################################################
  #  "First tier" - improvements: -1214.57 meV to -155.61 meV
       hydro 2 p 1.7
       hydro 3 d 6
       hydro 2 s 4.9
  #  "Second tier" - improvements: -67.75 meV to -5.23 meV
  #     hydro 4 f 9.8
  #     hydro 3 p 5.2
  #     hydro 3 s 4.3
  #     hydro 5 g 14.4
  #     hydro 3 d 6.2
  #  "Third tier" - improvements: -2.43 meV to -0.60 meV
  #     hydro 2 p 5.6
  #     hydro 2 s 1.4
  #     hydro 3 d 4.9
  #     hydro 4 f 11.2
  #  "Fourth tier" - improvements: -0.39 meV to -0.18 meV
  #     hydro 2 p 2.1
  #     hydro 5 g 16.4
  #     hydro 4 d 13.2
  #     hydro 3 s 13.6
  #     hydro 4 f 17.6
  #  Further basis functions - improvements: -0.08 meV and below
  #     hydro 3 s 2
  #     hydro 3 p 6
  #     hydro 4 d 20
  ################################################################################
  #
  #  FHI-aims code project
  #  VB, Fritz-Haber Institut, 2009
  #
  #  Suggested "light" defaults for N atom (to be pasted into control.in file)
  #  Be sure to double-check any results obtained with these settings for post-processing,
  #  e.g., with the "tight" defaults and larger basis sets.
  #
  ################################################################################
    species        N
  #     global species definitions
      nucleus             7
      mass                14.0067
  #
      l_hartree           4
  #
      cut_pot             3.5  1.5  1.0
      basis_dep_cutoff    1e-4
  #
      radial_base         35 5.0
      radial_multiplier   1
      angular_grids       specified
        division   0.2599   50
        division   0.4601  110
        division   0.5885  194
        division   0.6503  302
  #      division   0.6939  434
  #      division   0.7396  590
  #      division   0.7632  770
  #      division   0.8122  974
  #      division   1.1604 1202
  #      outer_grid  974
        outer_grid  302
  ################################################################################
  #
  #  Definition of "minimal" basis
  #
  ################################################################################
  #     valence basis states
      valence      2  s   2.
      valence      2  p   3.
  #     ion occupancy
      ion_occ      2  s   1.
      ion_occ      2  p   2.
  ################################################################################
  #
  #  Suggested additional basis functions. For production calculations,
  #  uncomment them one after another (the most important basis functions are
  #  listed first).
  #
  #  Constructed for dimers: 1.0 A, 1.1 A, 1.5 A, 2.0 A, 3.0 A
  #
  ################################################################################
  #  "First tier" - improvements: -1193.42 meV to -220.60 meV
       hydro 2 p 1.8
       hydro 3 d 6.8
       hydro 3 s 5.8
  #  "Second tier" - improvements: -80.21 meV to -6.86 meV
  #     hydro 4 f 10.8
  #     hydro 3 p 5.8
  #     hydro 1 s 0.8
  #     hydro 5 g 16
  #     hydro 3 d 4.9
  #  "Third tier" - improvements: -4.29 meV to -0.53 meV
  #     hydro 3 s 16
  #     ionic 2 p auto
  #     hydro 3 d 6.6
  #     hydro 4 f 11.6
  #  "Fourth tier" - improvements: -0.75 meV to -0.25 meV
  #     hydro 2 p 4.5
  #     hydro 2 s 2.4
  #     hydro 5 g 14.4
  #     hydro 4 d 14.4
  #     hydro 4 f 16.8
  # Further basis functions - -0.21 meV and below
  #     hydro 3 p 14.8
  #     hydro 3 s 4.4
  #     hydro 3 d 19.6
  #     hydro 5 g 12.8
  ################################################################################
  #
  #  FHI-aims code project
  #  VB, Fritz-Haber Institut, 2009
  #
  #  Suggested "light" defaults for O atom (to be pasted into control.in file)
  #  Be sure to double-check any results obtained with these settings for post-processing,
  #  e.g., with the "tight" defaults and larger basis sets.
  #
  ################################################################################
    species        O
  #     global species definitions
      nucleus             8
      mass                15.9994
  #
      l_hartree           4
  #
      cut_pot             3.5  1.5  1.0
      basis_dep_cutoff    1e-4
  #
      radial_base         36 5.0
      radial_multiplier   1
       angular_grids specified
        division   0.2659   50
        division   0.4451  110
        division   0.6052  194
        division   0.7543  302
  #      division   0.8014  434
  #      division   0.8507  590
  #      division   0.8762  770
  #      division   0.9023  974
  #      division   1.2339 1202
  #      outer_grid 974
        outer_grid 302
  ################################################################################
  #
  #  Definition of "minimal" basis
  #
  ################################################################################
  #     valence basis states
      valence      2  s   2.
      valence      2  p   4.
  #     ion occupancy
      ion_occ      2  s   1.
      ion_occ      2  p   3.
  ################################################################################
  #
  #  Suggested additional basis functions. For production calculations,
  #  uncomment them one after another (the most important basis functions are
  #  listed first).
  #
  #  Constructed for dimers: 1.0 A, 1.208 A, 1.5 A, 2.0 A, 3.0 A
  #
  ################################################################################
  #  "First tier" - improvements: -699.05 meV to -159.38 meV
       hydro 2 p 1.8
       hydro 3 d 7.6
       hydro 3 s 6.4
  #  "Second tier" - improvements: -49.91 meV to -5.39 meV
  #     hydro 4 f 11.6
  #     hydro 3 p 6.2
  #     hydro 3 d 5.6
  #     hydro 5 g 17.6
  #     hydro 1 s 0.75
  #  "Third tier" - improvements: -2.83 meV to -0.50 meV
  #     ionic 2 p auto
  #     hydro 4 f 10.8
  #     hydro 4 d 4.7
  #     hydro 2 s 6.8
  #  "Fourth tier" - improvements: -0.40 meV to -0.12 meV
  #     hydro 3 p 5
  #     hydro 3 s 3.3
  #     hydro 5 g 15.6
  #     hydro 4 f 17.6
  #     hydro 4 d 14
  # Further basis functions - -0.08 meV and below
  #     hydro 3 s 2.1
  #     hydro 4 d 11.6
  #     hydro 3 p 16
  #     hydro 2 s 17.2
  
  -----------------------------------------------------------------------
  Completed first pass over input file control.in .
  -----------------------------------------------------------------------
  
  
  -----------------------------------------------------------------------
  Parsing geometry.in (first pass over file, find array dimensions only).
  The contents of geometry.in will be repeated verbatim below
  unless switched off by setting 'verbatim_writeout .false.' .
  in the first line of geometry.in .
  -----------------------------------------------------------------------
  
  atom  0.00000 0.00000 0.00000 C
  atom  1.09300 0.00000 0.00000 H
  atom  -0.47961 0.00000 -1.41207 N
  atom  -1.35123 0.52883 -1.46146 H
  atom  0.22971 0.43527 -1.99819 H
  atom  -0.49584 1.26211 0.72868 C
  atom  -1.58789 1.28919 0.74431 H
  atom  -0.13407 1.27425 1.75947 H
  atom  -0.13407 2.16087 0.22380 H
  atom  -0.39425 -1.28861 0.74398 C
  atom  -0.10189 -1.56493 1.88303 O
  atom  -1.10210 -2.13717 0.06896 O
  atom  -1.28760 -1.58168 -0.70692 H
  
  -----------------------------------------------------------------------
  Completed first pass over input file geometry.in .
  -----------------------------------------------------------------------
  

  Basic array size parameters:
  | Number of species                 :        4
  | Number of atoms                   :       13
  | Max. basis fn. angular momentum   :        2
  | Max. atomic/ionic basis occupied n:        2
  | Max. number of basis fn. types    :        2
  | Max. radial fns per species/type  :        3
  | Max. logarithmic grid size        :     1301
  | Max. radial integration grid size :       36
  | Max. angular integration grid size:      302
  | Max. angular grid division number :        8
  | Radial grid for Hartree potential :     1301
  | Number of spin channels           :        1

------------------------------------------------------------
          Reading file control.in.
------------------------------------------------------------
  XC: Using PBE gradient-corrected functionals.
  Spin treatment: No spin polarisation.
  Non-relativistic treatment of kinetic energy.
  Charge =   0.000000E+00: Neutral system requested explicitly.
  Occupation type: Gaussian broadening, width =   0.100000E-01 eV.
  Using pulay charge density mixing.
  Pulay mixing - number of memorized iterations:   10
  Charge density mixing - mixing parameter:     0.2000
  Convergence accuracy of self-consistent charge density:  0.1000E-04
  Convergence accuracy of sum of eigenvalues:  0.1000E-02
  Convergence accuracy of total energy:  0.1000E-05
  Convergence accuracy of forces:  0.1000E-03
  Maximum number of s.-c. iterations  :   100
 
  Reading configuration options for species H                   .
  | Found nuclear charge :   1.0000
  | Found atomic mass :    1.00794000000000      amu
  | Found l_max for Hartree potential  :   4
  | Found cutoff potl. onset [A], width [A], scale factor :    3.50000    1.50000    1.00000
  | Threshold for basis-dependent cutoff potential is   0.100000E-03
  | Found data for basic radial integration grid :    24 points, outermost radius =    5.000 A
  | Found multiplier for basic radial grid :   1
  | Found angular grid specification: user-specified.
  | Specified grid contains     5 separate shells.
  | Check grid settings after all constraints further below.
  | Found free-atom valence shell :  1 s   1.000
  | No ionic wave fns used. Skipping ion_occ.
  | Found hydrogenic basis function :  2 s   2.100
  | Found hydrogenic basis function :  2 p   3.500
  Species H                   : Missing cutoff potential type.
  Defaulting to exp(1/x)/(1-x)^2 type cutoff potential.
  Species H : No 'logarithmic' tag. Using default grid for free atom:
  | Default logarithmic grid data [bohr] : 0.1000E-03 0.1000E+03 0.1012E+01
  Species H : On-site basis accuracy parameter (for Gram-Schmidt orthonormalisation) not specified.
  Using default value basis_acc =  0.1000000E-03.
  Species H                   : Using default innermost maximum threshold i_radial=  2 for radial functions.
  Species H                   : Default cutoff onset for free atom density etc. : 0.35000000E+01 AA.
  Species H                   : Basic radial grid will be enhanced according to radial_multiplier =   1, to contain    24 grid points.
 
  Reading configuration options for species C                   .
  | Found nuclear charge :   6.0000
  | Found atomic mass :    12.0107000000000      amu
  | Found l_max for Hartree potential  :   4
  | Found cutoff potl. onset [A], width [A], scale factor :    3.50000    1.50000    1.00000
  | Threshold for basis-dependent cutoff potential is   0.100000E-03
  | Found data for basic radial integration grid :    34 points, outermost radius =    5.000 A
  | Found multiplier for basic radial grid :   1
  | Found angular grid specification: user-specified.
  | Specified grid contains     5 separate shells.
  | Check grid settings after all constraints further below.
  | Found free-atom valence shell :  2 s   2.000
  | Found free-atom valence shell :  2 p   2.000
  | No ionic wave fns used. Skipping ion_occ.
  | No ionic wave fns used. Skipping ion_occ.
  | Found hydrogenic basis function :  2 p   1.700
  | Found hydrogenic basis function :  3 d   6.000
  | Found hydrogenic basis function :  2 s   4.900
  Species C                   : Missing cutoff potential type.
  Defaulting to exp(1/x)/(1-x)^2 type cutoff potential.
  Species C : No 'logarithmic' tag. Using default grid for free atom:
  | Default logarithmic grid data [bohr] : 0.1000E-03 0.1000E+03 0.1012E+01
  Species C : On-site basis accuracy parameter (for Gram-Schmidt orthonormalisation) not specified.
  Using default value basis_acc =  0.1000000E-03.
  Species C                   : Using default innermost maximum threshold i_radial=  2 for radial functions.
  Species C                   : Default cutoff onset for free atom density etc. : 0.35000000E+01 AA.
  Species C                   : Basic radial grid will be enhanced according to radial_multiplier =   1, to contain    34 grid points.
 
  Reading configuration options for species N                   .
  | Found nuclear charge :   7.0000
  | Found atomic mass :    14.0067000000000      amu
  | Found l_max for Hartree potential  :   4
  | Found cutoff potl. onset [A], width [A], scale factor :    3.50000    1.50000    1.00000
  | Threshold for basis-dependent cutoff potential is   0.100000E-03
  | Found data for basic radial integration grid :    35 points, outermost radius =    5.000 A
  | Found multiplier for basic radial grid :   1
  | Found angular grid specification: user-specified.
  | Specified grid contains     5 separate shells.
  | Check grid settings after all constraints further below.
  | Found free-atom valence shell :  2 s   2.000
  | Found free-atom valence shell :  2 p   3.000
  | No ionic wave fns used. Skipping ion_occ.
  | No ionic wave fns used. Skipping ion_occ.
  | Found hydrogenic basis function :  2 p   1.800
  | Found hydrogenic basis function :  3 d   6.800
  | Found hydrogenic basis function :  3 s   5.800
  Species N                   : Missing cutoff potential type.
  Defaulting to exp(1/x)/(1-x)^2 type cutoff potential.
  Species N : No 'logarithmic' tag. Using default grid for free atom:
  | Default logarithmic grid data [bohr] : 0.1000E-03 0.1000E+03 0.1012E+01
  Species N : On-site basis accuracy parameter (for Gram-Schmidt orthonormalisation) not specified.
  Using default value basis_acc =  0.1000000E-03.
  Species N                   : Using default innermost maximum threshold i_radial=  2 for radial functions.
  Species N                   : Default cutoff onset for free atom density etc. : 0.35000000E+01 AA.
  Species N                   : Basic radial grid will be enhanced according to radial_multiplier =   1, to contain    35 grid points.
 
  Reading configuration options for species O                   .
  | Found nuclear charge :   8.0000
  | Found atomic mass :    15.9994000000000      amu
  | Found l_max for Hartree potential  :   4
  | Found cutoff potl. onset [A], width [A], scale factor :    3.50000    1.50000    1.00000
  | Threshold for basis-dependent cutoff potential is   0.100000E-03
  | Found data for basic radial integration grid :    36 points, outermost radius =    5.000 A
  | Found multiplier for basic radial grid :   1
  | Found angular grid specification: user-specified.
  | Specified grid contains     5 separate shells.
  | Check grid settings after all constraints further below.
  | Found free-atom valence shell :  2 s   2.000
  | Found free-atom valence shell :  2 p   4.000
  | No ionic wave fns used. Skipping ion_occ.
  | No ionic wave fns used. Skipping ion_occ.
  | Found hydrogenic basis function :  2 p   1.800
  | Found hydrogenic basis function :  3 d   7.600
  | Found hydrogenic basis function :  3 s   6.400
  Species O                   : Missing cutoff potential type.
  Defaulting to exp(1/x)/(1-x)^2 type cutoff potential.
  Species O : No 'logarithmic' tag. Using default grid for free atom:
  | Default logarithmic grid data [bohr] : 0.1000E-03 0.1000E+03 0.1012E+01
  Species O : On-site basis accuracy parameter (for Gram-Schmidt orthonormalisation) not specified.
  Using default value basis_acc =  0.1000000E-03.
  Species O                   : Using default innermost maximum threshold i_radial=  2 for radial functions.
  Species O                   : Default cutoff onset for free atom density etc. : 0.35000000E+01 AA.
  Species O                   : Basic radial grid will be enhanced according to radial_multiplier =   1, to contain    36 grid points.
 
  Finished reading input file 'control.in'. Consistency checks are next.
 
  MPI_IN_PLACE appears to work with this MPI implementation.
  | Keeping use_mpi_in_place .true. (see manual).
  Target number of points in a grid batch is not set. Defaulting to  100
  Method for grid partitioning is not set. Defaulting to parallel hash+maxmin partitioning.
  Batch size limit is not set. Defaulting to    200
  By default, will store active basis functions for each batch.
  If in need of memory, prune_basis_once .false. can be used to disable this option.
  communication_type for Hartree potential was not specified.
  Defaulting to calc_hartree .
  Pulay mixer: Number of initial linear mixing iterations not set.
  Defaulting to    0 iterations.
  Work space size for distributed Hartree potential not set.
  Defaulting to   0.200000E+03 MB.
  Algorithm-dependent basis array size parameters:
  | n_max_pulay                         :       10
  Presetting      1001 iterations before the initial mixing cycle
  is restarted anyway using the sc_init_iter criterion / keyword.
  Presetting a factor      1.000 between actual scf density residual
  and density convergence criterion sc_accuracy_rho below which sc_init_iter
  takes no effect.
  Geometry relaxation not requested: no relaxation will be performed.
  Handling of forces: Unphysical translation and rotation will be removed from forces.
  No accuracy limit for integral partition fn. given. Defaulting to  0.1000E-14.
  No threshold value for u(r) in integrations given. Defaulting to  0.1000E-05.
  No accuracy for occupation numbers given. Defaulting to  0.1000E-12.
  No threshold value for occupation numbers given. Defaulting to  0.0000E+00.
  No accuracy for fermi level given. Defaulting to  0.1000E-19.
  Maximum # of iterations to find E_F not set. Defaulting to  200.
  Preferred method for the eigenvalue solver ('KS_method') not specified in 'control.in'.
  Calling BLACS routine to test compilation state
  Since ScaLAPACK support is enabled, defaulting to 'elsi'.
  Will not use alltoall communication since running on < 1024 CPUs.
  Threshold for basis singularities not set.
  Default threshold for basis singularities:  0.1000E-04
  partition_type (choice of integration weights) for integrals was not specified.
  | Using a version of the partition function of Stratmann and coworkers ('stratmann_smoother').
  | At each grid point, the set of atoms used to build the partition table is smoothly restricted to
  | only those atoms whose free-atom density would be non-zero at that grid point.
  Partitioning for Hartree potential was not defined. Using partition_type for integrals.
  | Adjusted default value of keyword multip_moments_threshold to:       0.10000000E-11
  | This value may affect high angular momentum components of the Hartree potential in periodic systems.
  No q(lm)/r^(l+1) cutoff set for long-range Hartree potential.
  | Using default value of  0.100000E-09 .
  | Verify using the multipole_threshold keyword.
  Defaulting to new monopole extrapolation.
  Density update method: automatic selection selected.
------------------------------------------------------------


------------------------------------------------------------
          Reading geometry description geometry.in.
------------------------------------------------------------
  Input structure read successfully.
  The structure contains       13 atoms,  and a total of         48.000 electrons.

  Input geometry:
  | No unit cell requested.
  | Atomic structure:
  |       Atom                x [A]            y [A]            z [A]
  |    1: Species C             0.00000000        0.00000000        0.00000000
  |    2: Species H             1.09300000        0.00000000        0.00000000
  |    3: Species N            -0.47961000        0.00000000       -1.41207000
  |    4: Species H            -1.35123000        0.52883000       -1.46146000
  |    5: Species H             0.22971000        0.43527000       -1.99819000
  |    6: Species C            -0.49584000        1.26211000        0.72868000
  |    7: Species H            -1.58789000        1.28919000        0.74431000
  |    8: Species H            -0.13407000        1.27425000        1.75947000
  |    9: Species H            -0.13407000        2.16087000        0.22380000
  |   10: Species C            -0.39425000       -1.28861000        0.74398000
  |   11: Species O            -0.10189000       -1.56493000        1.88303000
  |   12: Species O            -1.10210000       -2.13717000        0.06896000
  |   13: Species H            -1.28760000       -1.58168000       -0.70692000
  |

  | The smallest distance between any two atoms is         0.97209524 AA.
  |
  | The first atom of this pair is atom number                     12 .
  | The second atom of this pair is atom number                    13 .

  Number of empty states per atom not set in control.in - providing a guess from actual geometry.
  | Total number of empty states used during s.c.f. cycle:       29
  If you use a very high smearing, use empty_states (per atom!) in control.in to increase this value.

  Structure-dependent array size parameters: 
  | Maximum number of distinct radial functions  :       21
  | Maximum number of basis functions            :      119
  | Number of Kohn-Sham states (occupied + empty):       53
------------------------------------------------------------

------------------------------------------------------------
          Preparing all fixed parts of the calculation.
------------------------------------------------------------
  Determining machine precision:
    2.225073858507201E-308
  Setting up grids for atomic and cluster calculations.

  Creating wave function, potential, and density for free atoms.

  Species: H

  List of occupied orbitals and eigenvalues:
    n    l              occ      energy [Ha]    energy [eV]
    1    0           1.0000        -0.237589        -6.4651


  Species: C

  List of occupied orbitals and eigenvalues:
    n    l              occ      energy [Ha]    energy [eV]
    1    0           2.0000       -10.038835      -273.1706
    2    0           2.0000        -0.502696       -13.6791
    2    1           2.0000        -0.191971        -5.2238


  Species: N

  List of occupied orbitals and eigenvalues:
    n    l              occ      energy [Ha]    energy [eV]
    1    0           2.0000       -14.128000      -384.4424
    2    0           2.0000        -0.681077       -18.5330
    2    1           3.0000        -0.259788        -7.0692


  Species: O

  List of occupied orbitals and eigenvalues:
    n    l              occ      energy [Ha]    energy [eV]
    1    0           2.0000       -18.898188      -514.2459
    2    0           2.0000        -0.878505       -23.9053
    2    1           4.0000        -0.331779        -9.0282

  Creating fixed part of basis set: Ionic, confined, hydrogenic.
 
  H                    hydrogenic:
 
  List of hydrogenic basis orbitals: 
    n    l      effective z      eigenvalue [eV]  inner max. [A]     outer max. [A]     outer radius [A]   
    2    0         2.100000       -14.9728           0.193243           1.317208           4.583499
    2    1         3.500000       -41.6669           0.602369           0.602369           3.723403
 
 
  C                    hydrogenic:
 
  List of hydrogenic basis orbitals: 
    n    l      effective z      eigenvalue [eV]  inner max. [A]     outer max. [A]     outer radius [A]   
    2    1         1.700000        -9.7616           1.230570           1.230570           4.607917
    3    2         6.000000       -54.4224           0.792453           0.792453           3.883070
    2    0         4.900000       -81.6679           0.082559           0.562749           3.078220
 
 
  N                    hydrogenic:
 
  List of hydrogenic basis orbitals: 
    n    l      effective z      eigenvalue [eV]  inner max. [A]     outer max. [A]     outer radius [A]   
    2    1         1.800000       -10.9749           1.177451           1.177451           4.573712
    3    2         6.800000       -69.9026           0.704619           0.704619           3.538137
    3    0         5.800000       -50.8545           0.067388           1.191934           4.250239
 
 
  O                    hydrogenic:
 
  List of hydrogenic basis orbitals: 
    n    l      effective z      eigenvalue [eV]  inner max. [A]     outer max. [A]     outer radius [A]   
    2    1         1.800000       -10.9749           1.164242           1.164242           4.578029
    3    2         7.600000       -87.3180           0.624125           0.624125           3.251020
    3    0         6.400000       -61.9207           0.061167           1.081902           4.001998
 

  Adding cutoff potential to free-atom effective potential.
  Creating atomic-like basis functions for current effective potential.

  Species H                   :

  List of atomic basis orbitals and eigenvalues:
    n    l      energy [Ha]    energy [eV]    outer radius [A]
    1    0        -0.237589        -6.4651       4.527807


  Species C                   :

  List of atomic basis orbitals and eigenvalues:
    n    l      energy [Ha]    energy [eV]    outer radius [A]
    1    0       -10.038835      -273.1706       1.934409
    2    0        -0.502696       -13.6791       4.496620
    2    1        -0.191971        -5.2238       4.551928


  Species N                   :

  List of atomic basis orbitals and eigenvalues:
    n    l      energy [Ha]    energy [eV]    outer radius [A]
    1    0       -14.128000      -384.4424       1.637919
    2    0        -0.681077       -18.5330       4.463241
    2    1        -0.259788        -7.0692       4.518138


  Species O                   :

  List of atomic basis orbitals and eigenvalues:
    n    l      energy [Ha]    energy [eV]    outer radius [A]
    1    0       -18.898188      -514.2459       1.415765
    2    0        -0.878505       -23.9053       4.413171
    2    1        -0.331779        -9.0282       4.522403

  Assembling full basis from fixed parts.
  | Species H :   atomic orbital   1 s accepted.
  | Species H :    hydro orbital   2 s accepted.
  | Species H :    hydro orbital   2 p accepted.
  | Species C :   atomic orbital   1 s accepted.
  | Species C :    hydro orbital   2 s accepted.
  | Species C :   atomic orbital   2 s accepted.
  | Species C :   atomic orbital   2 p accepted.
  | Species C :    hydro orbital   2 p accepted.
  | Species C :    hydro orbital   3 d accepted.
  | Species N :   atomic orbital   1 s accepted.
  | Species N :    hydro orbital   3 s accepted.
  | Species N :   atomic orbital   2 s accepted.
  | Species N :   atomic orbital   2 p accepted.
  | Species N :    hydro orbital   2 p accepted.
  | Species N :    hydro orbital   3 d accepted.
  | Species O :   atomic orbital   1 s accepted.
  | Species O :    hydro orbital   3 s accepted.
  | Species O :   atomic orbital   2 s accepted.
  | Species O :   atomic orbital   2 p accepted.
  | Species O :    hydro orbital   2 p accepted.
  | Species O :    hydro orbital   3 d accepted.
 
  Basis size parameters after reduction:
  | Total number of radial functions:       21
  | Total number of basis functions :      119
 
  Per-task memory consumption for arrays in subroutine allocate_ext:
  |           5.250512MB.
  Testing on-site integration grid accuracy.
  |  Species  Function  <phi|h_atom|phi> (log., in eV)  <phi|h_atom|phi> (rad., in eV)
           1        1                 -6.4663192853                 -6.4651273558
           1        2                 13.7111246313                 13.7170609718
           1        3                 25.2673269279                 25.2674696378
           2        4               -273.1705927641               -273.1705631568
           2        5                -10.7109323383                -10.7107120029
           2        6                 17.4381822266                 17.4352413244
           2        7                 -5.2255326521                 -5.2270484734
           2        8                  8.6835629259                  8.6603288385
           2        9                 27.4952418996                 27.4953360207
           3       10               -384.4424306495               -384.4423701208
           3       11                 12.5842251816                 12.5842222903
           3       12                -15.7264628251                -15.7264433455
           3       13                 -7.0696854293                 -7.0701769954
           3       14                  8.8090390882                  8.7901077751
           3       15                 35.9586762123                 35.9588528632
           4       16               -514.2458688638               -514.2457643834
           4       17                 15.1795651126                 15.1795290741
           4       18                -21.5359799773                -21.5360846186
           4       19                 -9.0283069236                 -9.0284644067
           4       20                  8.3027758564                  8.2834874195
           4       21                 45.8339351984                 45.8338762259

  Preparing densities etc. for the partition functions (integrals / Hartree potential).

  Preparations completed.
  max(cpu_time)          :      0.165 s.
  Wall clock time (cpu1) :      0.165 s.
------------------------------------------------------------

------------------------------------------------------------
          Begin self-consistency loop: Initialization.

          Date     :  20200505, Time     :  092201.980
------------------------------------------------------------

  Initializing index lists of integration centers etc. from given atomic structure:
  | Number of centers in hartree potential         :        13
  | Number of centers in hartree multipole         :        13
  | Number of centers in electron density summation:        13
  | Number of centers in basis integrals           :        13
  | Number of centers in integrals                 :        13
  | Number of centers in hamiltonian               :        13
  * Using 20 tasks for Scalapack Eigenvalue solver.
  Detailed listing of tasks and assigned k-points:
  (for non-periodic systems, the "k-point" denotes an internal label only)
   Task     0 k-point     1 on r14c47.bullx
   Task     1 k-point     1 on r14c47.bullx
   Task     2 k-point     1 on r14c47.bullx
   Task     3 k-point     1 on r14c47.bullx
   Task     4 k-point     1 on r14c47.bullx
   Task     5 k-point     1 on r14c47.bullx
   Task     6 k-point     1 on r14c47.bullx
   Task     7 k-point     1 on r14c47.bullx
   Task     8 k-point     1 on r14c47.bullx
   Task     9 k-point     1 on r14c47.bullx
   Task    10 k-point     1 on r14c47.bullx
   Task    11 k-point     1 on r14c47.bullx
   Task    12 k-point     1 on r14c47.bullx
   Task    13 k-point     1 on r14c47.bullx
   Task    14 k-point     1 on r14c47.bullx
   Task    15 k-point     1 on r14c47.bullx
   Task    16 k-point     1 on r14c47.bullx
   Task    17 k-point     1 on r14c47.bullx
   Task    18 k-point     1 on r14c47.bullx
   Task    19 k-point     1 on r14c47.bullx
  Tasks:    20 split into      5 X      4 BLACS grid
  Calculating block size based on n_basis =          119  max_nprow =            5  max_npcol =            4
  ScaLAPACK block size set to:           16
  Allocating        0.008 MB for ovlp
  Allocating        0.008 MB for ham
  Allocating        0.008 MB for eigenvec
  Required Scalapack workspace - INTEGER:            1  REAL:             1
  Partitioning the integration grid into batches with parallel hashing+maxmin method.
  | Number of batches:      924
  | Maximal batch size:     190
  | Minimal batch size:      49
  | Average batch size:      75.374
  | Standard deviation of batch sizes:      21.877

  Integration load balanced across    20 MPI tasks.
  Work distribution over tasks is as follows:
  Task     0 has       3448 integration points.
  Task     1 has       3449 integration points.
  Task     2 has       3481 integration points.
  Task     3 has       3444 integration points.
  Task     4 has       3601 integration points.
  Task     5 has       3609 integration points.
  Task     6 has       3469 integration points.
  Task     7 has       3438 integration points.
  Task     8 has       3508 integration points.
  Task     9 has       3454 integration points.
  Task    10 has       3450 integration points.
  Task    11 has       3456 integration points.
  Task    12 has       3499 integration points.
  Task    13 has       3456 integration points.
  Task    14 has       3445 integration points.
  Task    15 has       3442 integration points.
  Task    16 has       3466 integration points.
  Task    17 has       3461 integration points.
  Task    18 has       3460 integration points.
  Task    19 has       3610 integration points.
  Initializing partition tables, free-atom densities, potentials, etc. across the integration grid (initialize_grid_storage).
  | initialize_grid_storage: Actual outermost partition radius vs. multipole_radius_free
  | (-- VB: in principle, multipole_radius_free should be larger, hence this output)
  | Species        1: Confinement radius =              4.999999999999999 AA, multipole_radius_free =              5.054417573612229 AA.
  | Species        1: outer_partition_radius set to              5.054417573612229 AA .
  | Species        2: Confinement radius =              4.999999999999999 AA, multipole_radius_free =              5.019602836301480 AA.
  | Species        2: outer_partition_radius set to              5.019602836301480 AA .
  | Species        3: Confinement radius =              4.999999999999999 AA, multipole_radius_free =              5.043624274424571 AA.
  | Species        3: outer_partition_radius set to              5.043624274424571 AA .
  | Species        4: Confinement radius =              4.999999999999999 AA, multipole_radius_free =              5.048384829883283 AA.
  | Species        4: outer_partition_radius set to              5.048384829883283 AA .
  | Original list of interatomic distances with          13 x         13 entries is created.
  | Net number of integration points:    69646
  | of which are non-zero points    :    59412
  Renormalizing the initial density to the exact electron count on the 3D integration grid.
  | Initial density: Formal number of electrons (from input files) :      48.0000000000
  | Integrated number of electrons on 3D grid     :      47.9999830418
  | Charge integration error                      :      -0.0000169582
  | Normalization factor for density and gradient :       1.0000003533
  Obtaining max. number of non-zero basis functions in each batch (get_n_compute_maxes).
  | Maximal number of non-zero basis functions:      118 in task     0
  | Maximal number of non-zero basis functions:      117 in task     1
  | Maximal number of non-zero basis functions:      118 in task     2
  | Maximal number of non-zero basis functions:      118 in task     3
  | Maximal number of non-zero basis functions:      118 in task     4
  | Maximal number of non-zero basis functions:      118 in task     5
  | Maximal number of non-zero basis functions:      118 in task     6
  | Maximal number of non-zero basis functions:      119 in task     7
  | Maximal number of non-zero basis functions:      118 in task     8
  | Maximal number of non-zero basis functions:      118 in task     9
  | Maximal number of non-zero basis functions:      119 in task    10
  | Maximal number of non-zero basis functions:      118 in task    11
  | Maximal number of non-zero basis functions:      118 in task    12
  | Maximal number of non-zero basis functions:      118 in task    13
  | Maximal number of non-zero basis functions:      118 in task    14
  | Maximal number of non-zero basis functions:      118 in task    15
  | Maximal number of non-zero basis functions:      118 in task    16
  | Maximal number of non-zero basis functions:      118 in task    17
  | Maximal number of non-zero basis functions:      119 in task    18
  | Maximal number of non-zero basis functions:      118 in task    19
  Selecting the method for density update.
  Loop over occupied states selected for charge density update.
  Allocating        0.050 MB for KS_eigenvector
  Integrating Hamiltonian matrix: batch-based integration.
  Time summed over all CPUs for integration: real work        0.519 s, elapsed        0.548 s
  Integrating overlap matrix.
  Time summed over all CPUs for integration: real work        0.217 s, elapsed        0.230 s
  Deallocating overlap matrix.

  Updating Kohn-Sham eigenvalues and eigenvectors using ELSI and the ELPA eigensolver.
  ELPA settings:
  | ELPA solver          1
  | Time full => band           :     0.001 s
  | Time band => tridiagonal    :     0.001 s
  | Time solve tridiagonal      :     0.001 s
  Overlap matrix is nonsingular
  | Lowest eigenvalue of overlap  :  0.43E-02
  | Highest eigenvalue of overlap :  0.64E+01
  Finished singularity check of overlap matrix
  | Time :     0.003 s
  Finished Cholesky decomposition
  | Time :     0.001 s
  Finished transformation to standard eigenproblem
  | Time :     0.001 s
  Starting ELPA eigensolver
  | Time full => tridiagonal    :     0.002 s
  | Time solve tridiagonal      :     0.000 s
  | Time ev tridiagonal => full :     0.000 s
  Finished solving standard eigenproblem
  | Time :     0.003 s
  Finished back-transformation of eigenvectors
  | Time :     0.000 s

  Obtaining occupation numbers and chemical potential using ELSI.
  | Chemical potential (Fermi level):    -9.26069921eV
  Writing Kohn-Sham eigenvalues.

  State    Occupation    Eigenvalue [Ha]    Eigenvalue [eV]
      1       2.00000         -19.007497         -517.22030
      2       2.00000         -18.977117         -516.39363
      3       2.00000         -14.247673         -387.69891
      4       2.00000         -10.166862         -276.65440
      5       2.00000         -10.142023         -275.97849
      6       2.00000         -10.131890         -275.70275
      7       2.00000          -1.181375          -32.14684
      8       2.00000          -1.101421          -29.97120
      9       2.00000          -0.994233          -27.05446
     10       2.00000          -0.859075          -23.37662
     11       2.00000          -0.756410          -20.58297
     12       2.00000          -0.680282          -18.51142
     13       2.00000          -0.639427          -17.39969
     14       2.00000          -0.607441          -16.52931
     15       2.00000          -0.585240          -15.92520
     16       2.00000          -0.557055          -15.15823
     17       2.00000          -0.550857          -14.98957
     18       2.00000          -0.532688          -14.49518
     19       2.00000          -0.524015          -14.25918
     20       2.00000          -0.490739          -13.35369
     21       2.00000          -0.473555          -12.88610
     22       2.00000          -0.428195          -11.65178
     23       2.00000          -0.419610          -11.41816
     24       2.00000          -0.387173          -10.53552
     25       0.00000          -0.148169           -4.03187
     26       0.00000          -0.064995           -1.76862
     27       0.00000          -0.029067           -0.79095
     28       0.00000          -0.010869           -0.29577
     29       0.00000           0.006206            0.16887
     30       0.00000           0.012621            0.34342
     31       0.00000           0.018885            0.51388
     32       0.00000           0.034864            0.94871
     33       0.00000           0.039086            1.06360
     34       0.00000           0.069407            1.88866
     35       0.00000           0.086708            2.35945
     36       0.00000           0.132553            3.60694
     37       0.00000           0.173701            4.72663
     38       0.00000           0.196282            5.34110
     39       0.00000           0.203804            5.54579
     40       0.00000           0.224814            6.11751
     41       0.00000           0.239885            6.52760
     42       0.00000           0.266689            7.25699
     43       0.00000           0.288223            7.84294
     44       0.00000           0.310382            8.44593
     45       0.00000           0.337483            9.18339
     46       0.00000           0.355822            9.68240
     47       0.00000           0.364162            9.90935
     48       0.00000           0.383630           10.43910
     49       0.00000           0.415745           11.31299
     50       0.00000           0.496582           13.51270
     51       0.00000           0.534360           14.54068
     52       0.00000           0.558874           15.20773
     53       0.00000           0.577733           15.72092

  Highest occupied state (VBM) at    -10.53552366 eV
  | Occupation number:      2.00000000

  Lowest unoccupied state (CBM) at    -4.03187237 eV
  | Occupation number:      0.00000000

  Overall HOMO-LUMO gap:      6.50365129 eV.
  Calculating total energy contributions from superposition of free atom densities.

  Total energy components:
  | Sum of eigenvalues            :        -188.88370839 Ha       -5139.78721485 eV
  | XC energy correction          :         -41.80265728 Ha       -1137.50818035 eV
  | XC potential correction       :          53.73930214 Ha        1462.32081338 eV
  | Free-atom electrostatic energy:        -146.82482105 Ha       -3995.30665965 eV
  | Hartree energy correction     :           0.00000000 Ha           0.00000000 eV
  | vdW energy correction         :           0.00000000 Ha           0.00000000 eV
  | Entropy correction            :           0.00000000 Ha           0.00000000 eV
  | ---------------------------
  | Total energy                  :        -323.77188458 Ha       -8810.28124147 eV
  | Total energy, T -> 0          :        -323.77188458 Ha       -8810.28124147 eV  <-- do not rely on this value for anything but (periodic) metals
  | Electronic free energy        :        -323.77188458 Ha       -8810.28124147 eV

  Derived energy quantities:
  | Kinetic energy                :         320.51364349 Ha        8721.61999047 eV
  | Electrostatic energy          :        -602.48287078 Ha      -16394.39305159 eV
  | Energy correction for multipole
  | error in Hartree potential    :           0.00000000 Ha           0.00000000 eV
  | Sum of eigenvalues per atom                           :        -395.36824730 eV
  | Total energy (T->0) per atom                          :        -677.71394165 eV  <-- do not rely on this value for anything but (periodic) metals
  | Electronic free energy per atom                       :        -677.71394165 eV
  Initialize hartree_potential_storage
  Max. number of atoms included in rho_multipole:           13

  End scf initialization - timings             :  max(cpu_time)    wall_clock(cpu1)
  | Time for scf. initialization               :        0.097 s           0.097 s
  | Boundary condition initialization          :        0.000 s           0.000 s
  | Integration                                :        0.040 s           0.040 s
  | Solution of K.-S. eqns.                    :        0.009 s           0.009 s
  | Grid partitioning                          :        0.025 s           0.025 s
  | Preloading free-atom quantities on grid    :        0.002 s           0.003 s
  | Free-atom superposition energy             :        0.005 s           0.004 s
  | Total energy evaluation                    :        0.000 s           0.000 s

  Partial memory accounting:
  | Current value for overall tracked memory usage on task 0  :           0.133 MB
  | Peak value for overall tracked memory usage on task 0     :           0.842 MB after allocating wave
  | Largest tracked array allocation on task 0 so far         :           0.179 MB  when allocating H_times_psi
  Note:  These values currently only include a subset of arrays which are explicitly tracked.
  The "true" memory usage will be greater.
------------------------------------------------------------

------------------------------------------------------------
          Begin self-consistency iteration #    1

  Date     :  20200505, Time     :  092202.077
------------------------------------------------------------
  Evaluating new KS density.
  Integration grid: deviation in total charge (<rho> - N_e) =   1.421085E-14
  Pulay mixing of updated and previous charge densities.

  Evaluating partitioned Hartree potential by multipole expansion.
  | Analytical far-field extrapolation by fixed multipoles:
  | Hartree multipole sum: apparent total charge =  -0.121590E-03
  Summing up the Hartree potential.
  Time summed over all CPUs for potential: real work        0.420 s, elapsed        0.430 s
  | RMS charge density error from multipole expansion :   0.589284E-02

  Integrating Hamiltonian matrix: batch-based integration.
  Time summed over all CPUs for integration: real work        0.509 s, elapsed        0.540 s

  Updating Kohn-Sham eigenvalues and eigenvectors using ELSI and the ELPA eigensolver.
  ELPA settings:
  | ELPA solver          1
  Finished transformation to standard eigenproblem
  | Time :     0.000 s
  Starting ELPA eigensolver
  | Time full => tridiagonal    :     0.002 s
  | Time solve tridiagonal      :     0.000 s
  | Time ev tridiagonal => full :     0.000 s
  Finished solving standard eigenproblem
  | Time :     0.003 s
  Finished back-transformation of eigenvectors
  | Time :     0.000 s

  Obtaining occupation numbers and chemical potential using ELSI.
  | Chemical potential (Fermi level):    -8.25823787eV
  Writing Kohn-Sham eigenvalues.

  State    Occupation    Eigenvalue [Ha]    Eigenvalue [eV]
      1       2.00000         -18.901140         -514.32618
      2       2.00000         -18.827136         -512.31243
      3       2.00000         -14.114580         -384.07726
      4       2.00000         -10.110001         -275.10714
      5       2.00000         -10.069264         -273.99862
      6       2.00000         -10.035407         -273.07732
      7       2.00000          -1.127629          -30.68434
      8       2.00000          -1.032081          -28.08435
      9       2.00000          -0.933969          -25.41459
     10       2.00000          -0.798011          -21.71497
     11       2.00000          -0.706030          -19.21207
     12       2.00000          -0.630828          -17.16571
     13       2.00000          -0.592236          -16.11556
     14       2.00000          -0.550638          -14.98362
     15       2.00000          -0.526583          -14.32906
     16       2.00000          -0.499977          -13.60506
     17       2.00000          -0.486467          -13.23745
     18       2.00000          -0.476856          -12.97592
     19       2.00000          -0.464427          -12.63769
     20       2.00000          -0.435348          -11.84643
     21       2.00000          -0.420691          -11.44757
     22       2.00000          -0.360640           -9.81352
     23       2.00000          -0.350684           -9.54261
     24       2.00000          -0.315813           -8.59372
     25       0.00000          -0.107180           -2.91652
     26       0.00000          -0.042546           -1.15775
     27       0.00000           0.011080            0.30149
     28       0.00000           0.013411            0.36492
     29       0.00000           0.038792            1.05560
     30       0.00000           0.045186            1.22956
     31       0.00000           0.051323            1.39656
     32       0.00000           0.065077            1.77084
     33       0.00000           0.075620            2.05771
     34       0.00000           0.105766            2.87805
     35       0.00000           0.126640            3.44605
     36       0.00000           0.163331            4.44446
     37       0.00000           0.202569            5.51217
     38       0.00000           0.224961            6.12149
     39       0.00000           0.232756            6.33361
     40       0.00000           0.257111            6.99634
     41       0.00000           0.271806            7.39621
     42       0.00000           0.298519            8.12310
     43       0.00000           0.321207            8.74050
     44       0.00000           0.349520            9.51092
     45       0.00000           0.376363           10.24136
     46       0.00000           0.393243           10.70069
     47       0.00000           0.400876           10.90840
     48       0.00000           0.424474           11.55052
     49       0.00000           0.454045           12.35519
     50       0.00000           0.529777           14.41596
     51       0.00000           0.566424           15.41318
     52       0.00000           0.589341           16.03678
     53       0.00000           0.611154           16.63035

  Highest occupied state (VBM) at     -8.59371809 eV
  | Occupation number:      2.00000000

  Lowest unoccupied state (CBM) at    -2.91651841 eV
  | Occupation number:      0.00000000

  Overall HOMO-LUMO gap:      5.67719968 eV.

  Total energy components:
  | Sum of eigenvalues            :        -185.53287386 Ha       -5048.60636809 eV
  | XC energy correction          :         -42.12727920 Ha       -1146.34159226 eV
  | XC potential correction       :          54.16146127 Ha        1473.80834762 eV
  | Free-atom electrostatic energy:        -146.82482105 Ha       -3995.30665965 eV
  | Hartree energy correction     :          -3.27334360 Ha         -89.07221120 eV
  | vdW energy correction         :           0.00000000 Ha           0.00000000 eV
  | Entropy correction            :           0.00000000 Ha           0.00000000 eV
  | ---------------------------
  | Total energy                  :        -323.59685644 Ha       -8805.51848358 eV
  | Total energy, T -> 0          :        -323.59685644 Ha       -8805.51848358 eV  <-- do not rely on this value for anything but (periodic) metals
  | Electronic free energy        :        -323.59685644 Ha       -8805.51848358 eV

  Derived energy quantities:
  | Kinetic energy                :         322.28032960 Ha        8769.69396555 eV
  | Electrostatic energy          :        -603.74990684 Ha      -16428.87085687 eV
  | Energy correction for multipole
  | error in Hartree potential    :           0.01158658 Ha           0.31528683 eV
  | Sum of eigenvalues per atom                           :        -388.35433601 eV
  | Total energy (T->0) per atom                          :        -677.34757566 eV  <-- do not rely on this value for anything but (periodic) metals
  | Electronic free energy per atom                       :        -677.34757566 eV

  Self-consistency convergence accuracy:
  | Change of charge density      :  0.5752E+00
  | Change of sum of eigenvalues  :  0.9118E+02 eV
  | Change of total energy        :  0.4763E+01 eV

  End self-consistency iteration #     1       :  max(cpu_time)    wall_clock(cpu1)
  | Time for this iteration                    :        0.078 s           0.077 s
  | Charge density update                      :        0.022 s           0.022 s
  | Density mixing                             :        0.000 s           0.000 s
  | Hartree multipole update                   :        0.001 s           0.001 s
  | Hartree multipole summation                :        0.022 s           0.022 s
  | Integration                                :        0.027 s           0.028 s
  | Solution of K.-S. eqns.                    :        0.004 s           0.004 s
  | Total energy evaluation                    :        0.000 s           0.000 s

  Partial memory accounting:
  | Current value for overall tracked memory usage on task 0  :           0.133 MB
  | Peak value for overall tracked memory usage on task 0     :           0.850 MB after allocating gradient_basis_wave
  | Largest tracked array allocation on task 0 so far         :           0.538 MB  when allocating gradient_basis_wave
  Note:  These values currently only include a subset of arrays which are explicitly tracked.
  The "true" memory usage will be greater.
------------------------------------------------------------

------------------------------------------------------------
          Begin self-consistency iteration #    2

  Date     :  20200505, Time     :  092202.163
------------------------------------------------------------
  Evaluating new KS density.
  Integration grid: deviation in total charge (<rho> - N_e) =   1.421085E-14
  Pulay mixing of updated and previous charge densities.

  Evaluating partitioned Hartree potential by multipole expansion.
  | Analytical far-field extrapolation by fixed multipoles:
  | Hartree multipole sum: apparent total charge =  -0.256604E-03
  Summing up the Hartree potential.
  Time summed over all CPUs for potential: real work        0.419 s, elapsed        0.428 s
  | RMS charge density error from multipole expansion :   0.140880E-01

  Integrating Hamiltonian matrix: batch-based integration.
  Time summed over all CPUs for integration: real work        0.510 s, elapsed        0.541 s

  Updating Kohn-Sham eigenvalues and eigenvectors using ELSI and the ELPA eigensolver.
  ELPA settings:
  | ELPA solver          1
  Finished transformation to standard eigenproblem
  | Time :     0.000 s
  Starting ELPA eigensolver
  | Time full => tridiagonal    :     0.002 s
  | Time solve tridiagonal      :     0.000 s
  | Time ev tridiagonal => full :     0.000 s
  Finished solving standard eigenproblem
  | Time :     0.003 s
  Finished back-transformation of eigenvectors
  | Time :     0.000 s

  Obtaining occupation numbers and chemical potential using ELSI.
  | Chemical potential (Fermi level):    -2.98218166eV
  Highest occupied state (VBM) at     -6.63565643 eV
  | Occupation number:      2.00000000

  Lowest unoccupied state (CBM) at    -1.51523617 eV
  | Occupation number:      0.00000000

  Overall HOMO-LUMO gap:      5.12042026 eV.

  Checking to see if s.c.f. parameters should be adjusted.

  Total energy components:
  | Sum of eigenvalues            :        -181.96264014 Ha       -4951.45536561 eV
  | XC energy correction          :         -42.48579129 Ha       -1156.09720251 eV
  | XC potential correction       :          54.62614301 Ha        1486.45298108 eV
  | Free-atom electrostatic energy:        -146.82482105 Ha       -3995.30665965 eV
  | Hartree energy correction     :          -6.87301997 Ha        -187.02438901 eV
  | vdW energy correction         :           0.00000000 Ha           0.00000000 eV
  | Entropy correction            :           0.00000000 Ha           0.00000000 eV
  | ---------------------------
  | Total energy                  :        -323.52012944 Ha       -8803.43063570 eV
  | Total energy, T -> 0          :        -323.52012944 Ha       -8803.43063570 eV  <-- do not rely on this value for anything but (periodic) metals
  | Electronic free energy        :        -323.52012944 Ha       -8803.43063570 eV

  Derived energy quantities:
  | Kinetic energy                :         323.60228141 Ha        8805.66610442 eV
  | Electrostatic energy          :        -604.63661956 Ha      -16452.99953761 eV
  | Energy correction for multipole
  | error in Hartree potential    :           0.02551097 Ha           0.69418874 eV
  | Sum of eigenvalues per atom                           :        -380.88118197 eV
  | Total energy (T->0) per atom                          :        -677.18697198 eV  <-- do not rely on this value for anything but (periodic) metals
  | Electronic free energy per atom                       :        -677.18697198 eV

  Self-consistency convergence accuracy:
  | Change of charge density      :  0.3591E+00
  | Change of sum of eigenvalues  :  0.9715E+02 eV
  | Change of total energy        :  0.2088E+01 eV

  End self-consistency iteration #     2       :  max(cpu_time)    wall_clock(cpu1)
  | Time for this iteration                    :        0.082 s           0.077 s
  | Charge density update                      :        0.027 s           0.022 s
  | Density mixing                             :        0.001 s           0.001 s
  | Hartree multipole update                   :        0.001 s           0.001 s
  | Hartree multipole summation                :        0.022 s           0.022 s
  | Integration                                :        0.027 s           0.027 s
  | Solution of K.-S. eqns.                    :        0.003 s           0.003 s
  | Total energy evaluation                    :        0.000 s           0.000 s

  Partial memory accounting:
  | Current value for overall tracked memory usage on task 0  :           0.134 MB
  | Peak value for overall tracked memory usage on task 0     :           0.850 MB after allocating gradient_basis_wave
  | Largest tracked array allocation on task 0 so far         :           0.538 MB  when allocating gradient_basis_wave
  Note:  These values currently only include a subset of arrays which are explicitly tracked.
  The "true" memory usage will be greater.
------------------------------------------------------------

------------------------------------------------------------
          Begin self-consistency iteration #    3

  Date     :  20200505, Time     :  092202.248
------------------------------------------------------------
  Evaluating new KS density.
  Integration grid: deviation in total charge (<rho> - N_e) =  -7.105427E-15
  Pulay mixing of updated and previous charge densities.

  Evaluating partitioned Hartree potential by multipole expansion.
  | Analytical far-field extrapolation by fixed multipoles:
  | Hartree multipole sum: apparent total charge =  -0.354337E-03
  Summing up the Hartree potential.
  Time summed over all CPUs for potential: real work        0.419 s, elapsed        0.429 s
  | RMS charge density error from multipole expansion :   0.223250E-01

  Integrating Hamiltonian matrix: batch-based integration.
  Time summed over all CPUs for integration: real work        0.510 s, elapsed        0.541 s

  Updating Kohn-Sham eigenvalues and eigenvectors using ELSI and the ELPA eigensolver.
  ELPA settings:
  | ELPA solver          1
  Finished transformation to standard eigenproblem
  | Time :     0.000 s
  Starting ELPA eigensolver
  | Time full => tridiagonal    :     0.002 s
  | Time solve tridiagonal      :     0.000 s
  | Time ev tridiagonal => full :     0.000 s
  Finished solving standard eigenproblem
  | Time :     0.003 s
  Finished back-transformation of eigenvectors
  | Time :     0.000 s

  Obtaining occupation numbers and chemical potential using ELSI.
  | Chemical potential (Fermi level):    -2.42608555eV
  Highest occupied state (VBM) at     -5.98892728 eV
  | Occupation number:      2.00000000

  Lowest unoccupied state (CBM) at    -0.77762740 eV
  | Occupation number:      0.00000000

  Overall HOMO-LUMO gap:      5.21129989 eV.

  Total energy components:
  | Sum of eigenvalues            :        -180.61473763 Ha       -4914.77707199 eV
  | XC energy correction          :         -42.63910927 Ha       -1160.26919720 eV
  | XC potential correction       :          54.82166260 Ha        1491.77334000 eV
  | Free-atom electrostatic energy:        -146.82482105 Ha       -3995.30665965 eV
  | Hartree energy correction     :          -8.25098080 Ha        -224.52061093 eV
  | vdW energy correction         :           0.00000000 Ha           0.00000000 eV
  | Entropy correction            :           0.00000000 Ha           0.00000000 eV
  | ---------------------------
  | Total energy                  :        -323.50798614 Ha       -8803.10019977 eV
  | Total energy, T -> 0          :        -323.50798614 Ha       -8803.10019977 eV  <-- do not rely on this value for anything but (periodic) metals
  | Electronic free energy        :        -323.50798614 Ha       -8803.10019977 eV

  Derived energy quantities:
  | Kinetic energy                :         323.20123635 Ha        8794.75311329 eV
  | Electrostatic energy          :        -604.07011322 Ha      -16437.58411586 eV
  | Energy correction for multipole
  | error in Hartree potential    :           0.03589350 Ha           0.97671178 eV
  | Sum of eigenvalues per atom                           :        -378.05977477 eV
  | Total energy (T->0) per atom                          :        -677.16155383 eV  <-- do not rely on this value for anything but (periodic) metals
  | Electronic free energy per atom                       :        -677.16155383 eV

  Self-consistency convergence accuracy:
  | Change of charge density      :  0.1995E+00
  | Change of sum of eigenvalues  :  0.3668E+02 eV
  | Change of total energy        :  0.3304E+00 eV

  End self-consistency iteration #     3       :  max(cpu_time)    wall_clock(cpu1)
  | Time for this iteration                    :        0.080 s           0.075 s
  | Charge density update                      :        0.025 s           0.020 s
  | Density mixing                             :        0.001 s           0.000 s
  | Hartree multipole update                   :        0.001 s           0.002 s
  | Hartree multipole summation                :        0.022 s           0.022 s
  | Integration                                :        0.027 s           0.027 s
  | Solution of K.-S. eqns.                    :        0.004 s           0.003 s
  | Total energy evaluation                    :        0.000 s           0.000 s

  Partial memory accounting:
  | Current value for overall tracked memory usage on task 0  :           0.134 MB
  | Peak value for overall tracked memory usage on task 0     :           0.851 MB after allocating gradient_basis_wave
  | Largest tracked array allocation on task 0 so far         :           0.538 MB  when allocating gradient_basis_wave
  Note:  These values currently only include a subset of arrays which are explicitly tracked.
  The "true" memory usage will be greater.
------------------------------------------------------------

------------------------------------------------------------
          Begin self-consistency iteration #    4

  Date     :  20200505, Time     :  092202.330
------------------------------------------------------------
  Evaluating new KS density.
  Integration grid: deviation in total charge (<rho> - N_e) =   7.105427E-15
  Pulay mixing of updated and previous charge densities.

  Evaluating partitioned Hartree potential by multipole expansion.
  | Analytical far-field extrapolation by fixed multipoles:
  | Hartree multipole sum: apparent total charge =  -0.386341E-03
  Summing up the Hartree potential.
  Time summed over all CPUs for potential: real work        0.411 s, elapsed        0.423 s
  | RMS charge density error from multipole expansion :   0.258334E-01

  Integrating Hamiltonian matrix: batch-based integration.
  Time summed over all CPUs for integration: real work        0.510 s, elapsed        0.540 s

  Updating Kohn-Sham eigenvalues and eigenvectors using ELSI and the ELPA eigensolver.
  ELPA settings:
  | ELPA solver          1
  Finished transformation to standard eigenproblem
  | Time :     0.000 s
  Starting ELPA eigensolver
  | Time full => tridiagonal    :     0.002 s
  | Time solve tridiagonal      :     0.000 s
  | Time ev tridiagonal => full :     0.000 s
  Finished solving standard eigenproblem
  | Time :     0.003 s
  Finished back-transformation of eigenvectors
  | Time :     0.000 s

  Obtaining occupation numbers and chemical potential using ELSI.
  | Chemical potential (Fermi level):    -2.32184949eV
  Highest occupied state (VBM) at     -5.70065584 eV
  | Occupation number:      2.00000000

  Lowest unoccupied state (CBM) at    -0.70890494 eV
  | Occupation number:      0.00000000

  Overall HOMO-LUMO gap:      4.99175089 eV.

  Total energy components:
  | Sum of eigenvalues            :        -180.52916479 Ha       -4912.44851648 eV
  | XC energy correction          :         -42.67264761 Ha       -1161.18182186 eV
  | XC potential correction       :          54.86359264 Ha        1492.91431450 eV
  | Free-atom electrostatic energy:        -146.82482105 Ha       -3995.30665965 eV
  | Hartree energy correction     :          -8.34398506 Ha        -227.05138569 eV
  | vdW energy correction         :           0.00000000 Ha           0.00000000 eV
  | Entropy correction            :           0.00000000 Ha           0.00000000 eV
  | ---------------------------
  | Total energy                  :        -323.50702586 Ha       -8803.07406918 eV
  | Total energy, T -> 0          :        -323.50702586 Ha       -8803.07406918 eV  <-- do not rely on this value for anything but (periodic) metals
  | Electronic free energy        :        -323.50702586 Ha       -8803.07406918 eV

  Derived energy quantities:
  | Kinetic energy                :         322.78627881 Ha        8783.46154403 eV
  | Electrostatic energy          :        -603.62065706 Ha      -16425.35379134 eV
  | Energy correction for multipole
  | error in Hartree potential    :           0.03971242 Ha           1.08062987 eV
  | Sum of eigenvalues per atom                           :        -377.88065511 eV
  | Total energy (T->0) per atom                          :        -677.15954378 eV  <-- do not rely on this value for anything but (periodic) metals
  | Electronic free energy per atom                       :        -677.15954378 eV

  Self-consistency convergence accuracy:
  | Change of charge density      :  0.6460E-01
  | Change of sum of eigenvalues  :  0.2329E+01 eV
  | Change of total energy        :  0.2613E-01 eV

  End self-consistency iteration #     4       :  max(cpu_time)    wall_clock(cpu1)
  | Time for this iteration                    :        0.081 s           0.077 s
  | Charge density update                      :        0.026 s           0.022 s
  | Density mixing                             :        0.001 s           0.001 s
  | Hartree multipole update                   :        0.001 s           0.001 s
  | Hartree multipole summation                :        0.022 s           0.021 s
  | Integration                                :        0.027 s           0.028 s
  | Solution of K.-S. eqns.                    :        0.003 s           0.003 s
  | Total energy evaluation                    :        0.000 s           0.001 s

  Partial memory accounting:
  | Current value for overall tracked memory usage on task 0  :           0.134 MB
  | Peak value for overall tracked memory usage on task 0     :           0.851 MB after allocating gradient_basis_wave
  | Largest tracked array allocation on task 0 so far         :           0.538 MB  when allocating gradient_basis_wave
  Note:  These values currently only include a subset of arrays which are explicitly tracked.
  The "true" memory usage will be greater.
------------------------------------------------------------

------------------------------------------------------------
          Begin self-consistency iteration #    5

  Date     :  20200505, Time     :  092202.416
------------------------------------------------------------
  Evaluating new KS density.
  Integration grid: deviation in total charge (<rho> - N_e) =   2.842171E-14
  Pulay mixing of updated and previous charge densities.

  Evaluating partitioned Hartree potential by multipole expansion.
  | Analytical far-field extrapolation by fixed multipoles:
  | Hartree multipole sum: apparent total charge =  -0.381756E-03
  Summing up the Hartree potential.
  Time summed over all CPUs for potential: real work        0.411 s, elapsed        0.419 s
  | RMS charge density error from multipole expansion :   0.255699E-01

  Integrating Hamiltonian matrix: batch-based integration.
  Time summed over all CPUs for integration: real work        0.510 s, elapsed        0.542 s

  Updating Kohn-Sham eigenvalues and eigenvectors using ELSI and the ELPA eigensolver.
  ELPA settings:
  | ELPA solver          1
  Finished transformation to standard eigenproblem
  | Time :     0.000 s
  Starting ELPA eigensolver
  | Time full => tridiagonal    :     0.002 s
  | Time solve tridiagonal      :     0.000 s
  | Time ev tridiagonal => full :     0.000 s
  Finished solving standard eigenproblem
  | Time :     0.003 s
  Finished back-transformation of eigenvectors
  | Time :     0.000 s

  Obtaining occupation numbers and chemical potential using ELSI.
  | Chemical potential (Fermi level):    -2.36106857eV
  Highest occupied state (VBM) at     -5.81979708 eV
  | Occupation number:      2.00000000

  Lowest unoccupied state (CBM) at    -0.76470532 eV
  | Occupation number:      0.00000000

  Overall HOMO-LUMO gap:      5.05509176 eV.

  Total energy components:
  | Sum of eigenvalues            :        -180.65566704 Ha       -4915.89081787 eV
  | XC energy correction          :         -42.65583562 Ha       -1160.72434436 eV
  | XC potential correction       :          54.84181932 Ha        1492.32183216 eV
  | Free-atom electrostatic energy:        -146.82482105 Ha       -3995.30665965 eV
  | Hartree energy correction     :          -8.21221941 Ha        -223.46586005 eV
  | vdW energy correction         :           0.00000000 Ha           0.00000000 eV
  | Entropy correction            :           0.00000000 Ha           0.00000000 eV
  | ---------------------------
  | Total energy                  :        -323.50672380 Ha       -8803.06584976 eV
  | Total energy, T -> 0          :        -323.50672380 Ha       -8803.06584976 eV  <-- do not rely on this value for anything but (periodic) metals
  | Electronic free energy        :        -323.50672380 Ha       -8803.06584976 eV

  Derived energy quantities:
  | Kinetic energy                :         322.72373697 Ha        8781.75969410 eV
  | Electrostatic energy          :        -603.57462515 Ha      -16424.10119950 eV
  | Energy correction for multipole
  | error in Hartree potential    :           0.03917013 Ha           1.06587348 eV
  | Sum of eigenvalues per atom                           :        -378.14544753 eV
  | Total energy (T->0) per atom                          :        -677.15891152 eV  <-- do not rely on this value for anything but (periodic) metals
  | Electronic free energy per atom                       :        -677.15891152 eV

  Self-consistency convergence accuracy:
  | Change of charge density      :  0.2279E-01
  | Change of sum of eigenvalues  : -0.3442E+01 eV
  | Change of total energy        :  0.8219E-02 eV

  End self-consistency iteration #     5       :  max(cpu_time)    wall_clock(cpu1)
  | Time for this iteration                    :        0.081 s           0.075 s
  | Charge density update                      :        0.026 s           0.020 s
  | Density mixing                             :        0.001 s           0.001 s
  | Hartree multipole update                   :        0.001 s           0.001 s
  | Hartree multipole summation                :        0.021 s           0.021 s
  | Integration                                :        0.027 s           0.028 s
  | Solution of K.-S. eqns.                    :        0.004 s           0.003 s
  | Total energy evaluation                    :        0.000 s           0.000 s

  Partial memory accounting:
  | Current value for overall tracked memory usage on task 0  :           0.134 MB
  | Peak value for overall tracked memory usage on task 0     :           0.851 MB after allocating gradient_basis_wave
  | Largest tracked array allocation on task 0 so far         :           0.538 MB  when allocating gradient_basis_wave
  Note:  These values currently only include a subset of arrays which are explicitly tracked.
  The "true" memory usage will be greater.
------------------------------------------------------------

------------------------------------------------------------
          Begin self-consistency iteration #    6

  Date     :  20200505, Time     :  092202.494
------------------------------------------------------------
  Evaluating new KS density.
  Integration grid: deviation in total charge (<rho> - N_e) =   7.105427E-15
  Pulay mixing of updated and previous charge densities.

[...]
  |   Hirshfeld dipole moment :      0.06473735
  |   Hirshfeld second moments:     -0.00523406      -0.02490176      -0.01583569
  |                                 -0.02490176      -0.02849109       0.00668281
  |                                 -0.01583569       0.00668281      -0.02407992
  ----------------------------------------------------------------------
  | Atom    12: O
  |   Hirshfeld charge        :     -0.15080831
  |   Free atom volume        :     23.61338643
  |   Hirshfeld volume        :     21.27487551
  |   Hirshfeld dipole vector :      0.01476333       0.03805874      -0.00962601
  |   Hirshfeld dipole moment :      0.04194144
  |   Hirshfeld second moments:      0.05681466      -0.01443418       0.01944516
  |                                 -0.01443418       0.02692949       0.00725484
  |                                  0.01944516       0.00725484       0.06450304
  ----------------------------------------------------------------------
  | Atom    13: H
  |   Hirshfeld charge        :      0.12079334
  |   Free atom volume        :      9.95071624
  |   Hirshfeld volume        :      7.23257427
  |   Hirshfeld dipole vector :     -0.04904912       0.01900414      -0.05161098
  |   Hirshfeld dipole moment :      0.07369306
  |   Hirshfeld second moments:      0.10138397      -0.01336908       0.01436727
  |                                 -0.01336908       0.07097477       0.02995315
  |                                  0.01436727       0.02995315       0.06840704
  ----------------------------------------------------------------------


  Total energy components:
  | Sum of eigenvalues            :        -180.71029227 Ha       -4917.37724597 eV
  | XC energy correction          :         -42.64520553 Ha       -1160.43508473 eV
  | XC potential correction       :          54.82810167 Ha        1491.94855596 eV
  | Free-atom electrostatic energy:        -146.82482105 Ha       -3995.30665965 eV
  | Hartree energy correction     :          -8.15440331 Ha        -221.89260372 eV
  | vdW energy correction         :          -0.00350227 Ha          -0.09530157 eV
  | Entropy correction            :           0.00000000 Ha           0.00000000 eV
  | ---------------------------
  | Total energy                  :        -323.51012275 Ha       -8803.15833967 eV
  | Total energy, T -> 0          :        -323.51012275 Ha       -8803.15833967 eV  <-- do not rely on this value for anything but (periodic) metals
  | Electronic free energy        :        -323.51012275 Ha       -8803.15833967 eV

  Derived energy quantities:
  | Kinetic energy                :         322.58914479 Ha        8778.09725450 eV
  | Electrostatic energy          :        -603.45055974 Ha      -16420.72520788 eV
  | Energy correction for multipole
  | error in Hartree potential    :           0.03921274 Ha           1.06703298 eV
  | Sum of eigenvalues per atom                           :        -378.25978815 eV
  | Total energy (T->0) per atom                          :        -677.16602613 eV  <-- do not rely on this value for anything but (periodic) metals
  | Electronic free energy per atom                       :        -677.16602613 eV

  atomic forces [eV/Ang]:
  -----------------------
  atom #    1
   Hellmann-Feynman              :  0.494688E+00  0.401353E+00  0.173192E+01
   Ionic forces                  :  0.000000E+00  0.000000E+00  0.000000E+00
   Multipole                     : -0.475107E-01  0.416774E+00 -0.280350E+00
   Pulay + GGA                   : -0.763096E+00 -0.168046E-01 -0.158909E+01
   Van der Waals                 :  0.215331E-02  0.685660E-03 -0.113455E-02
   ----------------------------------------------------------------
   Total forces(   1)            : -0.313766E+00  0.802008E+00 -0.138657E+00
  atom #    2
   Hellmann-Feynman              :  0.196702E+00 -0.485281E-01 -0.144209E+00
   Ionic forces                  :  0.000000E+00  0.000000E+00  0.000000E+00
   Multipole                     :  0.193252E+00  0.346092E-01  0.147099E-01
   Pulay + GGA                   : -0.142464E+00 -0.498195E-02  0.616380E-01
   Van der Waals                 :  0.248910E-02 -0.502945E-02 -0.712870E-02
   ----------------------------------------------------------------
   Total forces(   2)            :  0.249978E+00 -0.239302E-01 -0.749895E-01
  atom #    3
   Hellmann-Feynman              : -0.214817E+01 -0.105086E+02 -0.111519E+01
   Ionic forces                  :  0.000000E+00  0.000000E+00  0.000000E+00
   Multipole                     : -0.103915E+00  0.554132E-01 -0.860661E+00
   Pulay + GGA                   :  0.227050E+01  0.980484E+01  0.268696E+01
   Van der Waals                 :  0.360600E-02 -0.525184E-02 -0.896433E-02
   ----------------------------------------------------------------
   Total forces(   3)            :  0.220244E-01 -0.653610E+00  0.702144E+00
  atom #    4
   Hellmann-Feynman              :  0.298855E-01  0.396183E+00 -0.159119E+00
   Ionic forces                  :  0.000000E+00  0.000000E+00  0.000000E+00
   Multipole                     : -0.803896E-01  0.472220E-01 -0.628398E-01
   Pulay + GGA                   :  0.169429E+00 -0.151491E+00  0.189956E-02
   Van der Waals                 : -0.930044E-03 -0.211718E-02 -0.807637E-02
   ----------------------------------------------------------------
   Total forces(   4)            :  0.117995E+00  0.289796E+00 -0.228135E+00
  atom #    5
   Hellmann-Feynman              : -0.699226E-01  0.165159E+00 -0.269966E+00
   Ionic forces                  :  0.000000E+00  0.000000E+00  0.000000E+00
   Multipole                     :  0.287171E-01  0.274028E-01 -0.107355E+00
   Pulay + GGA                   : -0.143417E+00 -0.181476E+00  0.111415E+00
   Van der Waals                 : -0.290331E-02 -0.353915E-02  0.190195E-02
   ----------------------------------------------------------------
   Total forces(   5)            : -0.187526E+00  0.754732E-02 -0.264004E+00
  atom #    6
   Hellmann-Feynman              :  0.389999E+00 -0.582237E+00  0.382145E+00
   Ionic forces                  :  0.000000E+00  0.000000E+00  0.000000E+00
   Multipole                     : -0.977600E-01  0.605083E+00  0.233026E+00
   Pulay + GGA                   :  0.586806E-01 -0.416440E+00 -0.365683E+00
   Van der Waals                 : -0.381099E-02  0.752099E-02  0.351672E-02
   ----------------------------------------------------------------
   Total forces(   6)            :  0.347109E+00 -0.386073E+00  0.253005E+00
  atom #    7
   Hellmann-Feynman              : -0.253655E+00 -0.709598E-01 -0.500416E-01
   Ionic forces                  :  0.000000E+00  0.000000E+00  0.000000E+00
   Multipole                     : -0.120283E+00  0.503503E-01  0.308228E-01
   Pulay + GGA                   :  0.112071E+00  0.199032E-01  0.580807E-01
   Van der Waals                 : -0.191223E-02  0.217508E-02  0.692733E-02
   ----------------------------------------------------------------
   Total forces(   7)            : -0.263779E+00  0.146866E-02  0.457892E-01
  atom #    8
   Hellmann-Feynman              :  0.117384E-01  0.742091E-02  0.202170E+00
   Ionic forces                  :  0.000000E+00  0.000000E+00  0.000000E+00
   Multipole                     :  0.167058E-01  0.647098E-01  0.124998E+00
   Pulay + GGA                   : -0.521570E-01 -0.537363E-01 -0.114050E+00
   Van der Waals                 : -0.310847E-02  0.112516E-01  0.510953E-03
   ----------------------------------------------------------------
   Total forces(   8)            : -0.268213E-01  0.296460E-01  0.213630E+00
  atom #    9
   Hellmann-Feynman              :  0.110067E+00  0.644502E-01 -0.167576E+00
   Ionic forces                  :  0.000000E+00  0.000000E+00  0.000000E+00
   Multipole                     :  0.170603E-01  0.128823E+00 -0.934322E-02
   Pulay + GGA                   : -0.381466E-01 -0.735949E-01  0.573839E-01
   Van der Waals                 : -0.450502E-03  0.524796E-02  0.536007E-02
   ----------------------------------------------------------------
   Total forces(   9)            :  0.885298E-01  0.124926E+00 -0.114175E+00
  atom #   10
   Hellmann-Feynman              :  0.191301E+01  0.315855E+01  0.161063E+01
   Ionic forces                  :  0.000000E+00  0.000000E+00  0.000000E+00
   Multipole                     :  0.535733E-01 -0.101433E+00  0.244283E+00
   Pulay + GGA                   : -0.114669E+01 -0.252028E+01 -0.208735E+00
   Van der Waals                 :  0.485658E-02 -0.131396E-01 -0.749912E-03
   ----------------------------------------------------------------
   Total forces(  10)            :  0.824753E+00  0.523700E+00  0.164543E+01
  atom #   11
   Hellmann-Feynman              :  0.416538E+01 -0.230647E+01  0.143052E+02
   Ionic forces                  :  0.000000E+00  0.000000E+00  0.000000E+00
   Multipole                     :  0.746449E-01 -0.564621E+00  0.981911E+00
   Pulay + GGA                   : -0.330249E+01  0.354061E+01 -0.141425E+02
   Van der Waals                 : -0.930182E-03 -0.122616E-01  0.788055E-02
   ----------------------------------------------------------------
   Total forces(  11)            :  0.936604E+00  0.657259E+00  0.115251E+01
  atom #   12
   Hellmann-Feynman              : -0.516184E+01 -0.130466E+02  0.906964E+00
   Ionic forces                  :  0.000000E+00  0.000000E+00  0.000000E+00
   Multipole                     : -0.912940E+00 -0.150742E+01  0.400975E-01
   Pulay + GGA                   :  0.458797E+01  0.135540E+02 -0.241126E+01
   Van der Waals                 :  0.939892E-03  0.934663E-02  0.187717E-02
   ----------------------------------------------------------------
   Total forces(  12)            : -0.148587E+01 -0.990725E+00 -0.146232E+01
  atom #   13
   Hellmann-Feynman              : -0.460027E+00 -0.249908E+00 -0.195706E+01
   Ionic forces                  :  0.000000E+00  0.000000E+00  0.000000E+00
   Multipole                     : -0.987343E-02  0.916003E-01 -0.769343E-01
   Pulay + GGA                   :  0.160029E+00 -0.225506E+00  0.298470E+00
   Van der Waals                 :  0.846340E-06  0.511089E-02 -0.192088E-02
   ----------------------------------------------------------------
   Total forces(  13)            : -0.309871E+00 -0.378703E+00 -0.173744E+01

  Timings for VdW correction (Tkatchenko-Scheffler 2009 or later):
  | CPU time:        0.010 s, Wall clock time:        0.010 s.
  Removing unitary transformations (pure translations, rotations) from forces on atoms.
  Atomic forces before filtering:
  | Net force on center of mass :  -0.637866E-03  0.331031E-02 -0.721713E-02 eV/A
  | Net torque on center of mass:   0.715833E-02 -0.257300E-02  0.259490E-03 eV
  Atomic forces after filtering:
  | Net force on center of mass :  -0.356812E-15  0.267609E-15 -0.356812E-15 eV/A
  | Net torque on center of mass:  -0.113290E-14 -0.188817E-15  0.472042E-15 eV

  Energy and forces in a compact form:
  | Total energy uncorrected      :         -0.880315833967456E+04 eV
  | Total energy corrected        :         -0.880315833967456E+04 eV  <-- do not rely on this value for anything but (periodic) metals
  | Electronic free energy        :         -0.880315833967456E+04 eV
  Total atomic forces (unitary forces cleaned) [eV/Ang]:
  |   1         -0.313721424094989E+00          0.801738263425480E+00         -0.138139643136929E+00
  |   2          0.250022790208450E+00         -0.242173155390251E-01         -0.745789482161693E-01
  |   3          0.219307423907495E-01         -0.654133076673831E+00          0.702707901153780E+00
  |   4          0.117904831640021E+00          0.289278588181381E+00         -0.227583277647410E+00
  |   5         -0.187670180132238E+00          0.690539494847765E-02         -0.263589861595216E+00
  |   6          0.347244579347432E+00         -0.386200678290123E+00          0.253338339288441E+00
  |   7         -0.263641437947395E+00          0.136131196629562E-02          0.462239230399354E-01
  |   8         -0.265849099599734E-01          0.297027851779508E-01          0.213925029227749E+00
  |   9          0.886301591696124E-01          0.124699443510201E+00         -0.114043261436577E+00
  |  10          0.824849298899708E+00          0.523573508136172E+00          0.164621962622227E+01
  |  11          0.936807047967367E+00          0.657338572023808E+00          0.115332517470807E+01
  |  12         -0.148585052198201E+01         -0.990964492964532E+00         -0.146129764811145E+01
  |  13         -0.309920975506732E+00         -0.379082303902257E+00         -0.173650735349649E+01

  ------------------------------------ 
  Start decomposition of the XC Energy 
  ------------------------------------ 
  X and C from original XC functional choice 
  Hartree-Fock Energy :          0.000000000 Ha              0.000000000 eV
  X Energy            :        -41.042208326 Ha          -1116.815311483 eV
  C Energy            :         -1.602997203 Ha            -43.619773243 eV
  Total XC Energy     :        -42.645205529 Ha          -1160.435084726 eV
  ------------------------------------ 
  LDA X and C from self-consistent density 
  X Energy LDA        :        -37.264320412 Ha          -1014.013750852 eV
  C Energy LDA        :         -3.139338383 Ha            -85.425743821 eV
  ------------------------------------ 
  End decomposition of the XC Energy 
  ------------------------------------ 

------------------------------------------------------------

------------------------------------------------------------------------------
  Final output of selected total energy values:

  The following output summarizes some interesting total energy values
  at the end of a run (AFTER all relaxation, molecular dynamics, etc.).

  | Total energy of the DFT / Hartree-Fock s.c.f. calculation      :          -8803.158339675 eV
  | Final zero-broadening corrected energy (caution - metals only) :          -8803.158339675 eV
  | For reference only, the value of 1 Hartree used in FHI-aims is :             27.211384500 eV

  Before relying on these values, please be sure to understand exactly which
  total energy value is referred to by a given number. Different objects may
  all carry the same name 'total energy'. Definitions:

  Total energy of the DFT / Hartree-Fock s.c.f. calculation:
  | Note that this energy does not include ANY quantities calculated after the
  | s.c.f. cycle, in particular not ANY RPA, MP2, etc. many-body perturbation terms.

  Final zero-broadening corrected energy:
  | For metallic systems only, a broadening of the occupation numbers at the Fermi
  | level can be extrapolated back to zero broadening by an electron-gas inspired
  | formula. For all systems that are not real metals, this value can be
  | meaningless and should be avoided.

------------------------------------------------------------------------------
  Methods described in the following list of references were used in this FHI-aims run.
  If you publish the results, please make sure to cite these reference if they apply.
  FHI-aims is an academic code, and for our developers (often, Ph.D. students
  and postdocs), scientific credit in the community is essential.
  Thank you for helping us!

  For any use of FHI-aims, please cite:

    Volker Blum, Ralf Gehrke, Felix Hanke, Paula Havu, Ville Havu,
    Xinguo Ren, Karsten Reuter, and Matthias Scheffler
    'Ab initio molecular simulations with numeric atom-centered orbitals'
    Computer Physics Communications 180, 2175-2196 (2009)
    http://dx.doi.org/10.1016/j.cpc.2009.06.022


  The scalable eigensolver library ELPA was used in your run.
  ELPA is essential especially for large systems on hundreds or thousands of CPUs.
  For ELPA, please cite:

    Andreas Marek, Volker Blum, Rainer Johanni, Ville Havu, Bruno Lang,
    Thomas Auckenthaler, Alexander Heinecke, Hans-Joachim Bungartz, and Hermann Lederer,
    'The ELPA Library - Scalable Parallel Eigenvalue Solutions
    for Electronic Structure Theory and Computational Science'
    The Journal of Physics: Condensed Matter 26, 213201 (2014).
    http://dx.doi.org/10.1088/0953-8984/26/21/213201


  The ELSI infrastructure was used in your run to solve the Kohn-Sham electronic structure.
  Please check out http://elsi-interchange.org to learn more.
  If scalability is important for your project, please acknowledge ELSI by citing:

    V. W-z. Yu, F. Corsetti, A. Garcia, W. P. Huhn, M. Jacquelin, W. Jia,
    B. Lange, L. Lin, J. Lu, W. Mi, A. Seifitokaldani, A. Vazquez-Mayagoitia,
    C. Yang, H. Yang, and V. Blum
    'ELSI: A unified software interface for Kohn-Sham electronic structure solvers'
    Computer Physics Communications 222, 267-285 (2018).
    http://dx.doi.org/10.1016/j.cpc.2017.09.007


  For the real-space grid partitioning and parallelization used in this calculation, please cite:

    Ville Havu, Volker Blum, Paula Havu, and Matthias Scheffler,
    'Efficient O(N) integration for all-electron electronic structure calculation'
    'using numerically tabulated basis functions'
    Journal of Computational Physics 228, 8367-8379 (2009).
    http://dx.doi.org/10.1016/j.jcp.2009.08.008

  Of course, there are many other important community references, e.g., those cited in the
  above references. Our list is limited to references that describe implementations in the
  FHI-aims code. The reason is purely practical (length of this list) - please credit others as well.

------------------------------------------------------------
          Leaving FHI-aims.
          Date     :  20200505, Time     :  092203.598

          Computational steps:
          | Number of self-consistency cycles          :           16
          | Number of SCF (re)initializations          :            1

          Detailed time accounting                     :  max(cpu_time)    wall_clock(cpu1)
          | Total time                                 :        1.742 s           1.818 s
          | Preparation time                           :        0.165 s           0.165 s
          | Boundary condition initalization           :        0.000 s           0.000 s
          | Grid partitioning                          :        0.025 s           0.025 s
          | Preloading free-atom quantities on grid    :        0.002 s           0.003 s
          | Free-atom superposition energy             :        0.005 s           0.004 s
          | Total time for integrations                :        0.478 s           0.482 s
          | Total time for solution of K.-S. equations :        0.066 s           0.062 s
          | Total time for density & force components  :        0.481 s           0.402 s
          | Total time for mixing                      :        0.020 s           0.016 s
          | Total time for Hartree multipole update    :        0.020 s           0.021 s
          | Total time for Hartree multipole sum       :        0.427 s           0.424 s
          | Total time for total energy evaluation     :        0.003 s           0.004 s
          | Total time for vdW correction              :        0.010 s           0.010 s

          Partial memory accounting:
          | Residual value for overall tracked memory usage across tasks :           0.000 MB (should be 0.000 MB)
          | Peak values for overall tracked memory usage (after allocating hessian_basis_wave):
          |   Minimum:        2.093 MB (on task 16)
          |   Maximum:        2.117 MB (on task  8)
          |   Average:        2.102 MB
          | Largest tracked array allocation (hessian_basis_wave):
          |   Minimum:        1.067 MB (on task  2)
          |   Maximum:        1.085 MB (on task  8)
          |   Average:        1.077 MB
          Note:  These values currently only include a subset of arrays which are explicitly tracked.
          The "true" memory usage will be greater.

          Have a nice day.
------------------------------------------------------------
