  MPI-parallelism will be employed.
------------------------------------------------------------
          Invoking FHI-aims ...
          Version 171221_1
          Compiled on 2019/09/09 at 14:39:39 on host puhti-login2.bullx.

          When using FHI-aims, please cite the following reference:

          Volker Blum, Ralf Gehrke, Felix Hanke, Paula Havu,
          Ville Havu, Xinguo Ren, Karsten Reuter, and Matthias Scheffler,
          'Ab Initio Molecular Simulations with Numeric Atom-Centered Orbitals',
          Computer Physics Communications 180, 2175-2196 (2009)

          For any questions about FHI-aims, please visit the aimsclub website
          with its forums and wiki. Contributions to both the forums and the
          wiki are warmly encouraged - they are for you, and everyone is welcome there.

------------------------------------------------------------



  Date     :  20200805, Time     :  181923.922
  Time zero on CPU 1             :   0.111140000000000E-01  s.
  Internal wall clock time zero  :           365883563.922  s.

  FHI-aims created a unique identifier for this run for later identification
  aims_uuid : 079F5B5E-468D-485F-A23F-3E336B7A16CD

  Using        1 parallel tasks.
  Task        0 on host r13c34.bullx reporting.

  Performing system and environment tests:
  | Environment variable OMP_NUM_THREADS correctly set to 1.
  | Stacksize not measured: no C compiler
  | Checking for scalapack...
  | Testing pdtran()...
  | All pdtran() tests passed.

  Obtaining array dimensions for all initial allocations:
  
  -----------------------------------------------------------------------
  Parsing control.in (first pass over file, find array dimensions only).
  The contents of control.in will be repeated verbatim below
  unless switched off by setting 'verbatim_writeout .false.' .
  in the first line of control.in .
  -----------------------------------------------------------------------
  
  #########################################################################################
  #
  #  Volker Blum, FHI 2009 : Test run input file control.in for simple H2O
  #
  #########################################################################################
  #
  #  Physical model
  #
    xc                 pbe
    vdw_correction_hirshfeld
    spin               none
    relativistic       none
    charge             0.
  #
  #  SCF convergence
  #
    occupation_type    gaussian 0.01
    mixer              pulay
      n_max_pulay        10
      charge_mix_param   0.2
    sc_accuracy_rho    1E-5
    sc_accuracy_eev    1E-3
    sc_accuracy_etot   1E-6
    sc_accuracy_forces 1E-4
    sc_iter_limit      100
  #
  #  Relaxation
  #
  #  relax_geometry   bfgs 1.e-3
  #
  ################################################################################
  #
  #  FHI-aims code project
  #  VB, Fritz-Haber Institut, 2009
  #
  #  Suggested "light" defaults for H atom (to be pasted into control.in file)
  #  Be sure to double-check any results obtained with these settings for post-processing,
  #  e.g., with the "tight" defaults and larger basis sets.
  #
  ################################################################################
    species        H
  #     global species definitions
      nucleus             1
      mass                1.00794
  #
      l_hartree           4
  #
      cut_pot             3.5  1.5  1.0
      basis_dep_cutoff    1e-4
  #
      radial_base         24 5.0
      radial_multiplier   1
      angular_grids       specified
        division   0.2421   50
        division   0.3822  110
        division   0.4799  194
        division   0.5341  302
  #      division   0.5626  434
  #      division   0.5922  590
  #      division   0.6542  770
  #      division   0.6868 1202
  #      outer_grid  770
        outer_grid  302
  ################################################################################
  #
  #  Definition of "minimal" basis
  #
  ################################################################################
  #     valence basis states
      valence      1  s   1.
  #     ion occupancy
      ion_occ      1  s   0.5
  ################################################################################
  #
  #  Suggested additional basis functions. For production calculations,
  #  uncomment them one after another (the most important basis functions are
  #  listed first).
  #
  #  Basis constructed for dimers: 0.5 A, 0.7 A, 1.0 A, 1.5 A, 2.5 A
  #
  ################################################################################
  #  "First tier" - improvements: -1014.90 meV to -62.69 meV
       hydro 2 s 2.1
       hydro 2 p 3.5
  #  "Second tier" - improvements: -12.89 meV to -1.83 meV
  #     hydro 1 s 0.85
  #     hydro 2 p 3.7
  #     hydro 2 s 1.2
  #     hydro 3 d 7
  #  "Third tier" - improvements: -0.25 meV to -0.12 meV
  #     hydro 4 f 11.2
  #     hydro 3 p 4.8
  #     hydro 4 d 9
  #     hydro 3 s 3.2
  ################################################################################
  #
  #  FHI-aims code project
  #  VB, Fritz-Haber Institut, 2009
  #
  #  Suggested "light" defaults for C atom (to be pasted into control.in file)
  #  Be sure to double-check any results obtained with these settings for post-processing,
  #  e.g., with the "tight" defaults and larger basis sets.
  #
  ################################################################################
    species        C
  #     global species definitions
      nucleus             6
      mass                12.0107
  #
      l_hartree           4
  #
      cut_pot             3.5  1.5  1.0
      basis_dep_cutoff    1e-4
  #
      radial_base         34 5.0
      radial_multiplier   1
      angular_grids specified
        division   0.3326   50
        division   0.5710  110
        division   0.7727  194
        division   0.8772  302
  #      division   0.9334  434
  #      division   0.9625  590
  #      division   0.9924  770
  #      division   1.0230  974
  #      division   1.4589 1202
  #     outer_grid  974
       outer_grid 302
  ################################################################################
  #
  #  Definition of "minimal" basis
  #
  ################################################################################
  #     valence basis states
      valence      2  s   2.
      valence      2  p   2.
  #     ion occupancy
      ion_occ      2  s   1.
      ion_occ      2  p   1.
  ################################################################################
  #
  #  Suggested additional basis functions. For production calculations,
  #  uncomment them one after another (the most important basis functions are
  #  listed first).
  #
  #  Constructed for dimers: 1.0 A, 1.25 A, 1.5 A, 2.0 A, 3.0 A
  #
  ################################################################################
  #  "First tier" - improvements: -1214.57 meV to -155.61 meV
       hydro 2 p 1.7
       hydro 3 d 6
       hydro 2 s 4.9
  #  "Second tier" - improvements: -67.75 meV to -5.23 meV
  #     hydro 4 f 9.8
  #     hydro 3 p 5.2
  #     hydro 3 s 4.3
  #     hydro 5 g 14.4
  #     hydro 3 d 6.2
  #  "Third tier" - improvements: -2.43 meV to -0.60 meV
  #     hydro 2 p 5.6
  #     hydro 2 s 1.4
  #     hydro 3 d 4.9
  #     hydro 4 f 11.2
  #  "Fourth tier" - improvements: -0.39 meV to -0.18 meV
  #     hydro 2 p 2.1
  #     hydro 5 g 16.4
  #     hydro 4 d 13.2
  #     hydro 3 s 13.6
  #     hydro 4 f 17.6
  #  Further basis functions - improvements: -0.08 meV and below
  #     hydro 3 s 2
  #     hydro 3 p 6
  #     hydro 4 d 20
  ################################################################################
  #
  #  FHI-aims code project
  #  VB, Fritz-Haber Institut, 2009
  #
  #  Suggested "light" defaults for N atom (to be pasted into control.in file)
  #  Be sure to double-check any results obtained with these settings for post-processing,
  #  e.g., with the "tight" defaults and larger basis sets.
  #
  ################################################################################
    species        N
  #     global species definitions
      nucleus             7
      mass                14.0067
  #
      l_hartree           4
  #
      cut_pot             3.5  1.5  1.0
      basis_dep_cutoff    1e-4
  #
      radial_base         35 5.0
      radial_multiplier   1
      angular_grids       specified
        division   0.2599   50
        division   0.4601  110
        division   0.5885  194
        division   0.6503  302
  #      division   0.6939  434
  #      division   0.7396  590
  #      division   0.7632  770
  #      division   0.8122  974
  #      division   1.1604 1202
  #      outer_grid  974
        outer_grid  302
  ################################################################################
  #
  #  Definition of "minimal" basis
  #
  ################################################################################
  #     valence basis states
      valence      2  s   2.
      valence      2  p   3.
  #     ion occupancy
      ion_occ      2  s   1.
      ion_occ      2  p   2.
  ################################################################################
  #
  #  Suggested additional basis functions. For production calculations,
  #  uncomment them one after another (the most important basis functions are
  #  listed first).
  #
  #  Constructed for dimers: 1.0 A, 1.1 A, 1.5 A, 2.0 A, 3.0 A
  #
  ################################################################################
  #  "First tier" - improvements: -1193.42 meV to -220.60 meV
       hydro 2 p 1.8
       hydro 3 d 6.8
       hydro 3 s 5.8
  #  "Second tier" - improvements: -80.21 meV to -6.86 meV
  #     hydro 4 f 10.8
  #     hydro 3 p 5.8
  #     hydro 1 s 0.8
  #     hydro 5 g 16
  #     hydro 3 d 4.9
  #  "Third tier" - improvements: -4.29 meV to -0.53 meV
  #     hydro 3 s 16
  #     ionic 2 p auto
  #     hydro 3 d 6.6
  #     hydro 4 f 11.6
  #  "Fourth tier" - improvements: -0.75 meV to -0.25 meV
  #     hydro 2 p 4.5
  #     hydro 2 s 2.4
  #     hydro 5 g 14.4
  #     hydro 4 d 14.4
  #     hydro 4 f 16.8
  # Further basis functions - -0.21 meV and below
  #     hydro 3 p 14.8
  #     hydro 3 s 4.4
  #     hydro 3 d 19.6
  #     hydro 5 g 12.8
  ################################################################################
  #
  #  FHI-aims code project
  #  VB, Fritz-Haber Institut, 2009
  #
  #  Suggested "light" defaults for O atom (to be pasted into control.in file)
  #  Be sure to double-check any results obtained with these settings for post-processing,
  #  e.g., with the "tight" defaults and larger basis sets.
  #
  ################################################################################
    species        O
  #     global species definitions
      nucleus             8
      mass                15.9994
  #
      l_hartree           4
  #
      cut_pot             3.5  1.5  1.0
      basis_dep_cutoff    1e-4
  #
      radial_base         36 5.0
      radial_multiplier   1
       angular_grids specified
        division   0.2659   50
        division   0.4451  110
        division   0.6052  194
        division   0.7543  302
  #      division   0.8014  434
  #      division   0.8507  590
  #      division   0.8762  770
  #      division   0.9023  974
  #      division   1.2339 1202
  #      outer_grid 974
        outer_grid 302
  ################################################################################
  #
  #  Definition of "minimal" basis
  #
  ################################################################################
  #     valence basis states
      valence      2  s   2.
      valence      2  p   4.
  #     ion occupancy
      ion_occ      2  s   1.
      ion_occ      2  p   3.
  ################################################################################
  #
  #  Suggested additional basis functions. For production calculations,
  #  uncomment them one after another (the most important basis functions are
  #  listed first).
  #
  #  Constructed for dimers: 1.0 A, 1.208 A, 1.5 A, 2.0 A, 3.0 A
  #
  ################################################################################
  #  "First tier" - improvements: -699.05 meV to -159.38 meV
       hydro 2 p 1.8
       hydro 3 d 7.6
       hydro 3 s 6.4
  #  "Second tier" - improvements: -49.91 meV to -5.39 meV
  #     hydro 4 f 11.6
  #     hydro 3 p 6.2
  #     hydro 3 d 5.6
  #     hydro 5 g 17.6
  #     hydro 1 s 0.75
  #  "Third tier" - improvements: -2.83 meV to -0.50 meV
  #     ionic 2 p auto
  #     hydro 4 f 10.8
  #     hydro 4 d 4.7
  #     hydro 2 s 6.8
  #  "Fourth tier" - improvements: -0.40 meV to -0.12 meV
  #     hydro 3 p 5
  #     hydro 3 s 3.3
  #     hydro 5 g 15.6
  #     hydro 4 f 17.6
  #     hydro 4 d 14
  # Further basis functions - -0.08 meV and below
  #     hydro 3 s 2.1
  #     hydro 4 d 11.6
  #     hydro 3 p 16
  #     hydro 2 s 17.2
  
  -----------------------------------------------------------------------
  Completed first pass over input file control.in .
  -----------------------------------------------------------------------
  
  
  -----------------------------------------------------------------------
  Parsing geometry.in (first pass over file, find array dimensions only).
  The contents of geometry.in will be repeated verbatim below
  unless switched off by setting 'verbatim_writeout .false.' .
  in the first line of geometry.in .
  -----------------------------------------------------------------------
  
  atom  0.00000 0.00000 0.00000 C
  atom  1.09300 0.00000 0.00000 H
  atom  -0.47961 0.00000 -1.41207 N
  atom  -0.19037 0.87254 -1.85575 H
  atom  -0.06799 -0.79465 -1.89707 H
  atom  -0.49584 1.26211 0.72868 C
  atom  -1.58789 1.28919 0.74431 H
  atom  -0.13407 1.27425 1.75947 H
  atom  -0.13407 2.16087 0.22380 H
  atom  -0.39425 -1.28861 0.74398 C
  atom  -0.10189 -1.56493 1.88303 O
  atom  -1.10210 -2.13717 0.06896 O
  atom  -1.19952 -1.62146 -0.74928 H
  
  -----------------------------------------------------------------------
  Completed first pass over input file geometry.in .
  -----------------------------------------------------------------------
  

  Basic array size parameters:
  | Number of species                 :        4
  | Number of atoms                   :       13
  | Max. basis fn. angular momentum   :        2
  | Max. atomic/ionic basis occupied n:        2
  | Max. number of basis fn. types    :        2
  | Max. radial fns per species/type  :        3
  | Max. logarithmic grid size        :     1301
  | Max. radial integration grid size :       36
  | Max. angular integration grid size:      302
  | Max. angular grid division number :        8
  | Radial grid for Hartree potential :     1301
  | Number of spin channels           :        1

------------------------------------------------------------
          Reading file control.in.
------------------------------------------------------------
  XC: Using PBE gradient-corrected functionals.
  Spin treatment: No spin polarisation.
  Non-relativistic treatment of kinetic energy.
  Charge =   0.000000E+00: Neutral system requested explicitly.
  Occupation type: Gaussian broadening, width =   0.100000E-01 eV.
  Using pulay charge density mixing.
  Pulay mixing - number of memorized iterations:   10
  Charge density mixing - mixing parameter:     0.2000
  Convergence accuracy of self-consistent charge density:  0.1000E-04
  Convergence accuracy of sum of eigenvalues:  0.1000E-02
  Convergence accuracy of total energy:  0.1000E-05
  Convergence accuracy of forces:  0.1000E-03
  Maximum number of s.-c. iterations  :   100
 
  Reading configuration options for species H                   .
  | Found nuclear charge :   1.0000
  | Found atomic mass :    1.00794000000000      amu
  | Found l_max for Hartree potential  :   4
  | Found cutoff potl. onset [A], width [A], scale factor :    3.50000    1.50000    1.00000
  | Threshold for basis-dependent cutoff potential is   0.100000E-03
  | Found data for basic radial integration grid :    24 points, outermost radius =    5.000 A
  | Found multiplier for basic radial grid :   1
  | Found angular grid specification: user-specified.
  | Specified grid contains     5 separate shells.
  | Check grid settings after all constraints further below.
  | Found free-atom valence shell :  1 s   1.000
  | No ionic wave fns used. Skipping ion_occ.
  | Found hydrogenic basis function :  2 s   2.100
  | Found hydrogenic basis function :  2 p   3.500
  Species H                   : Missing cutoff potential type.
  Defaulting to exp(1/x)/(1-x)^2 type cutoff potential.
  Species H : No 'logarithmic' tag. Using default grid for free atom:
  | Default logarithmic grid data [bohr] : 0.1000E-03 0.1000E+03 0.1012E+01
  Species H : On-site basis accuracy parameter (for Gram-Schmidt orthonormalisation) not specified.
  Using default value basis_acc =  0.1000000E-03.
  Species H                   : Using default innermost maximum threshold i_radial=  2 for radial functions.
  Species H                   : Default cutoff onset for free atom density etc. : 0.35000000E+01 AA.
  Species H                   : Basic radial grid will be enhanced according to radial_multiplier =   1, to contain    24 grid points.
 
  Reading configuration options for species C                   .
  | Found nuclear charge :   6.0000
  | Found atomic mass :    12.0107000000000      amu
  | Found l_max for Hartree potential  :   4
  | Found cutoff potl. onset [A], width [A], scale factor :    3.50000    1.50000    1.00000
  | Threshold for basis-dependent cutoff potential is   0.100000E-03
  | Found data for basic radial integration grid :    34 points, outermost radius =    5.000 A
  | Found multiplier for basic radial grid :   1
  | Found angular grid specification: user-specified.
  | Specified grid contains     5 separate shells.
  | Check grid settings after all constraints further below.
  | Found free-atom valence shell :  2 s   2.000
  | Found free-atom valence shell :  2 p   2.000
  | No ionic wave fns used. Skipping ion_occ.
  | No ionic wave fns used. Skipping ion_occ.
  | Found hydrogenic basis function :  2 p   1.700
  | Found hydrogenic basis function :  3 d   6.000
  | Found hydrogenic basis function :  2 s   4.900
  Species C                   : Missing cutoff potential type.
  Defaulting to exp(1/x)/(1-x)^2 type cutoff potential.
  Species C : No 'logarithmic' tag. Using default grid for free atom:
  | Default logarithmic grid data [bohr] : 0.1000E-03 0.1000E+03 0.1012E+01
  Species C : On-site basis accuracy parameter (for Gram-Schmidt orthonormalisation) not specified.
  Using default value basis_acc =  0.1000000E-03.
  Species C                   : Using default innermost maximum threshold i_radial=  2 for radial functions.
  Species C                   : Default cutoff onset for free atom density etc. : 0.35000000E+01 AA.
  Species C                   : Basic radial grid will be enhanced according to radial_multiplier =   1, to contain    34 grid points.
 
  Reading configuration options for species N                   .
  | Found nuclear charge :   7.0000
  | Found atomic mass :    14.0067000000000      amu
  | Found l_max for Hartree potential  :   4
  | Found cutoff potl. onset [A], width [A], scale factor :    3.50000    1.50000    1.00000
  | Threshold for basis-dependent cutoff potential is   0.100000E-03
  | Found data for basic radial integration grid :    35 points, outermost radius =    5.000 A
  | Found multiplier for basic radial grid :   1
  | Found angular grid specification: user-specified.
  | Specified grid contains     5 separate shells.
  | Check grid settings after all constraints further below.
  | Found free-atom valence shell :  2 s   2.000
  | Found free-atom valence shell :  2 p   3.000
  | No ionic wave fns used. Skipping ion_occ.
  | No ionic wave fns used. Skipping ion_occ.
  | Found hydrogenic basis function :  2 p   1.800
  | Found hydrogenic basis function :  3 d   6.800
  | Found hydrogenic basis function :  3 s   5.800
  Species N                   : Missing cutoff potential type.
  Defaulting to exp(1/x)/(1-x)^2 type cutoff potential.
  Species N : No 'logarithmic' tag. Using default grid for free atom:
  | Default logarithmic grid data [bohr] : 0.1000E-03 0.1000E+03 0.1012E+01
  Species N : On-site basis accuracy parameter (for Gram-Schmidt orthonormalisation) not specified.
  Using default value basis_acc =  0.1000000E-03.
  Species N                   : Using default innermost maximum threshold i_radial=  2 for radial functions.
  Species N                   : Default cutoff onset for free atom density etc. : 0.35000000E+01 AA.
  Species N                   : Basic radial grid will be enhanced according to radial_multiplier =   1, to contain    35 grid points.
 
  Reading configuration options for species O                   .
  | Found nuclear charge :   8.0000
  | Found atomic mass :    15.9994000000000      amu
  | Found l_max for Hartree potential  :   4
  | Found cutoff potl. onset [A], width [A], scale factor :    3.50000    1.50000    1.00000
  | Threshold for basis-dependent cutoff potential is   0.100000E-03
  | Found data for basic radial integration grid :    36 points, outermost radius =    5.000 A
  | Found multiplier for basic radial grid :   1
  | Found angular grid specification: user-specified.
  | Specified grid contains     5 separate shells.
  | Check grid settings after all constraints further below.
  | Found free-atom valence shell :  2 s   2.000
  | Found free-atom valence shell :  2 p   4.000
  | No ionic wave fns used. Skipping ion_occ.
  | No ionic wave fns used. Skipping ion_occ.
  | Found hydrogenic basis function :  2 p   1.800
  | Found hydrogenic basis function :  3 d   7.600
  | Found hydrogenic basis function :  3 s   6.400
  Species O                   : Missing cutoff potential type.
  Defaulting to exp(1/x)/(1-x)^2 type cutoff potential.
  Species O : No 'logarithmic' tag. Using default grid for free atom:
  | Default logarithmic grid data [bohr] : 0.1000E-03 0.1000E+03 0.1012E+01
  Species O : On-site basis accuracy parameter (for Gram-Schmidt orthonormalisation) not specified.
  Using default value basis_acc =  0.1000000E-03.
  Species O                   : Using default innermost maximum threshold i_radial=  2 for radial functions.
  Species O                   : Default cutoff onset for free atom density etc. : 0.35000000E+01 AA.
  Species O                   : Basic radial grid will be enhanced according to radial_multiplier =   1, to contain    36 grid points.
 
  Finished reading input file 'control.in'. Consistency checks are next.
 
  MPI_IN_PLACE appears to work with this MPI implementation.
  | Keeping use_mpi_in_place .true. (see manual).
  Target number of points in a grid batch is not set. Defaulting to  100
  Method for grid partitioning is not set. Defaulting to parallel hash+maxmin partitioning.
  Batch size limit is not set. Defaulting to    200
  By default, will store active basis functions for each batch.
  If in need of memory, prune_basis_once .false. can be used to disable this option.
  communication_type for Hartree potential was not specified.
  Defaulting to calc_hartree .
  Pulay mixer: Number of initial linear mixing iterations not set.
  Defaulting to    0 iterations.
  Work space size for distributed Hartree potential not set.
  Defaulting to   0.200000E+03 MB.
  Algorithm-dependent basis array size parameters:
  | n_max_pulay                         :       10
  Presetting      1001 iterations before the initial mixing cycle
  is restarted anyway using the sc_init_iter criterion / keyword.
  Presetting a factor      1.000 between actual scf density residual
  and density convergence criterion sc_accuracy_rho below which sc_init_iter
  takes no effect.
  Geometry relaxation not requested: no relaxation will be performed.
  Handling of forces: Unphysical translation and rotation will be removed from forces.
  No accuracy limit for integral partition fn. given. Defaulting to  0.1000E-14.
  No threshold value for u(r) in integrations given. Defaulting to  0.1000E-05.
  No accuracy for occupation numbers given. Defaulting to  0.1000E-12.
  No threshold value for occupation numbers given. Defaulting to  0.0000E+00.
  No accuracy for fermi level given. Defaulting to  0.1000E-19.
  Maximum # of iterations to find E_F not set. Defaulting to  200.
  Preferred method for the eigenvalue solver ('KS_method') not specified in 'control.in'.
  Defaulting to serial version, 'lapack_fast'.
  Will not use alltoall communication since running on < 1024 CPUs.
  Threshold for basis singularities not set.
  Default threshold for basis singularities:  0.1000E-04
  partition_type (choice of integration weights) for integrals was not specified.
  | Using a version of the partition function of Stratmann and coworkers ('stratmann_smoother').
  | At each grid point, the set of atoms used to build the partition table is smoothly restricted to
  | only those atoms whose free-atom density would be non-zero at that grid point.
  Partitioning for Hartree potential was not defined. Using partition_type for integrals.
  | Adjusted default value of keyword multip_moments_threshold to:       0.10000000E-11
  | This value may affect high angular momentum components of the Hartree potential in periodic systems.
  No q(lm)/r^(l+1) cutoff set for long-range Hartree potential.
  | Using default value of  0.100000E-09 .
  | Verify using the multipole_threshold keyword.
  Defaulting to new monopole extrapolation.
  Density update method: automatic selection selected.
------------------------------------------------------------


------------------------------------------------------------
          Reading geometry description geometry.in.
------------------------------------------------------------
  Input structure read successfully.
  The structure contains       13 atoms,  and a total of         48.000 electrons.

  Input geometry:
  | No unit cell requested.
  | Atomic structure:
  |       Atom                x [A]            y [A]            z [A]
  |    1: Species C             0.00000000        0.00000000        0.00000000
  |    2: Species H             1.09300000        0.00000000        0.00000000
  |    3: Species N            -0.47961000        0.00000000       -1.41207000
  |    4: Species H            -0.19037000        0.87254000       -1.85575000
  |    5: Species H            -0.06799000       -0.79465000       -1.89707000
  |    6: Species C            -0.49584000        1.26211000        0.72868000
  |    7: Species H            -1.58789000        1.28919000        0.74431000
  |    8: Species H            -0.13407000        1.27425000        1.75947000
  |    9: Species H            -0.13407000        2.16087000        0.22380000
  |   10: Species C            -0.39425000       -1.28861000        0.74398000
  |   11: Species O            -0.10189000       -1.56493000        1.88303000
  |   12: Species O            -1.10210000       -2.13717000        0.06896000
  |   13: Species H            -1.19952000       -1.62146000       -0.74928000
  |

  | The smallest distance between any two atoms is         0.97209267 AA.
  |
  | The first atom of this pair is atom number                     12 .
  | The second atom of this pair is atom number                    13 .

  Number of empty states per atom not set in control.in - providing a guess from actual geometry.
  | Total number of empty states used during s.c.f. cycle:       29
  If you use a very high smearing, use empty_states (per atom!) in control.in to increase this value.

  Structure-dependent array size parameters: 
  | Maximum number of distinct radial functions  :       21
  | Maximum number of basis functions            :      119
  | Number of Kohn-Sham states (occupied + empty):       53
------------------------------------------------------------

------------------------------------------------------------
          Preparing all fixed parts of the calculation.
------------------------------------------------------------
  Determining machine precision:
    2.225073858507201E-308
  Setting up grids for atomic and cluster calculations.

  Creating wave function, potential, and density for free atoms.

  Species: H

  List of occupied orbitals and eigenvalues:
    n    l              occ      energy [Ha]    energy [eV]
    1    0           1.0000        -0.237589        -6.4651


  Species: C

  List of occupied orbitals and eigenvalues:
    n    l              occ      energy [Ha]    energy [eV]
    1    0           2.0000       -10.038835      -273.1706
    2    0           2.0000        -0.502696       -13.6791
    2    1           2.0000        -0.191971        -5.2238


  Species: N

  List of occupied orbitals and eigenvalues:
    n    l              occ      energy [Ha]    energy [eV]
    1    0           2.0000       -14.128000      -384.4424
    2    0           2.0000        -0.681077       -18.5330
    2    1           3.0000        -0.259788        -7.0692


  Species: O

  List of occupied orbitals and eigenvalues:
    n    l              occ      energy [Ha]    energy [eV]
    1    0           2.0000       -18.898188      -514.2459
    2    0           2.0000        -0.878505       -23.9053
    2    1           4.0000        -0.331779        -9.0282

  Creating fixed part of basis set: Ionic, confined, hydrogenic.
 
  H                    hydrogenic:
 
  List of hydrogenic basis orbitals: 
    n    l      effective z      eigenvalue [eV]  inner max. [A]     outer max. [A]     outer radius [A]   
    2    0         2.100000       -14.9728           0.193243           1.317208           4.583499
    2    1         3.500000       -41.6669           0.602369           0.602369           3.723403
 
 
  C                    hydrogenic:
 
  List of hydrogenic basis orbitals: 
    n    l      effective z      eigenvalue [eV]  inner max. [A]     outer max. [A]     outer radius [A]   
    2    1         1.700000        -9.7616           1.230570           1.230570           4.607917
    3    2         6.000000       -54.4224           0.792453           0.792453           3.883070
    2    0         4.900000       -81.6679           0.082559           0.562749           3.078220
 
 
  N                    hydrogenic:
 
  List of hydrogenic basis orbitals: 
    n    l      effective z      eigenvalue [eV]  inner max. [A]     outer max. [A]     outer radius [A]   
    2    1         1.800000       -10.9749           1.177451           1.177451           4.573712
    3    2         6.800000       -69.9026           0.704619           0.704619           3.538137
    3    0         5.800000       -50.8545           0.067388           1.191934           4.250239
 
 
  O                    hydrogenic:
 
  List of hydrogenic basis orbitals: 
    n    l      effective z      eigenvalue [eV]  inner max. [A]     outer max. [A]     outer radius [A]   
    2    1         1.800000       -10.9749           1.164242           1.164242           4.578029
    3    2         7.600000       -87.3180           0.624125           0.624125           3.251020
    3    0         6.400000       -61.9207           0.061167           1.081902           4.001998
 

  Adding cutoff potential to free-atom effective potential.
  Creating atomic-like basis functions for current effective potential.

  Species H                   :

  List of atomic basis orbitals and eigenvalues:
    n    l      energy [Ha]    energy [eV]    outer radius [A]
    1    0        -0.237589        -6.4651       4.527807


  Species C                   :

  List of atomic basis orbitals and eigenvalues:
    n    l      energy [Ha]    energy [eV]    outer radius [A]
    1    0       -10.038835      -273.1706       1.934409
    2    0        -0.502696       -13.6791       4.496620
    2    1        -0.191971        -5.2238       4.551928


  Species N                   :

  List of atomic basis orbitals and eigenvalues:
    n    l      energy [Ha]    energy [eV]    outer radius [A]
    1    0       -14.128000      -384.4424       1.637919
    2    0        -0.681077       -18.5330       4.463241
    2    1        -0.259788        -7.0692       4.518138


  Species O                   :

  List of atomic basis orbitals and eigenvalues:
    n    l      energy [Ha]    energy [eV]    outer radius [A]
    1    0       -18.898188      -514.2459       1.415765
    2    0        -0.878505       -23.9053       4.413171
    2    1        -0.331779        -9.0282       4.522403

  Assembling full basis from fixed parts.
  | Species H :   atomic orbital   1 s accepted.
  | Species H :    hydro orbital   2 s accepted.
  | Species H :    hydro orbital   2 p accepted.
  | Species C :   atomic orbital   1 s accepted.
  | Species C :    hydro orbital   2 s accepted.
  | Species C :   atomic orbital   2 s accepted.
  | Species C :   atomic orbital   2 p accepted.
  | Species C :    hydro orbital   2 p accepted.
  | Species C :    hydro orbital   3 d accepted.
  | Species N :   atomic orbital   1 s accepted.
  | Species N :    hydro orbital   3 s accepted.
  | Species N :   atomic orbital   2 s accepted.
  | Species N :   atomic orbital   2 p accepted.
  | Species N :    hydro orbital   2 p accepted.
  | Species N :    hydro orbital   3 d accepted.
  | Species O :   atomic orbital   1 s accepted.
  | Species O :    hydro orbital   3 s accepted.
  | Species O :   atomic orbital   2 s accepted.
  | Species O :   atomic orbital   2 p accepted.
  | Species O :    hydro orbital   2 p accepted.
  | Species O :    hydro orbital   3 d accepted.
 
  Basis size parameters after reduction:
  | Total number of radial functions:       21
  | Total number of basis functions :      119
 
  Per-task memory consumption for arrays in subroutine allocate_ext:
  |           5.250512MB.
  Testing on-site integration grid accuracy.
  |  Species  Function  <phi|h_atom|phi> (log., in eV)  <phi|h_atom|phi> (rad., in eV)
           1        1                 -6.4663192853                 -6.4651273558
           1        2                 13.7111246313                 13.7170609718
           1        3                 25.2673269279                 25.2674696378
           2        4               -273.1705927641               -273.1705631568
           2        5                -10.7109323383                -10.7107120029
           2        6                 17.4381822266                 17.4352413244
           2        7                 -5.2255326521                 -5.2270484734
           2        8                  8.6835629259                  8.6603288385
           2        9                 27.4952418996                 27.4953360207
           3       10               -384.4424306495               -384.4423701208
           3       11                 12.5842251816                 12.5842222903
           3       12                -15.7264628251                -15.7264433455
           3       13                 -7.0696854293                 -7.0701769954
           3       14                  8.8090390882                  8.7901077751
           3       15                 35.9586762123                 35.9588528632
           4       16               -514.2458688638               -514.2457643834
           4       17                 15.1795651126                 15.1795290741
           4       18                -21.5359799773                -21.5360846186
           4       19                 -9.0283069236                 -9.0284644067
           4       20                  8.3027758564                  8.2834874195
           4       21                 45.8339351984                 45.8338762259

  Preparing densities etc. for the partition functions (integrals / Hartree potential).

  Preparations completed.
  max(cpu_time)          :      0.146 s.
  Wall clock time (cpu1) :      0.147 s.
------------------------------------------------------------

------------------------------------------------------------
          Begin self-consistency loop: Initialization.

          Date     :  20200805, Time     :  181924.082
------------------------------------------------------------

  Initializing index lists of integration centers etc. from given atomic structure:
  | Number of centers in hartree potential         :        13
  | Number of centers in hartree multipole         :        13
  | Number of centers in electron density summation:        13
  | Number of centers in basis integrals           :        13
  | Number of centers in integrals                 :        13
  | Number of centers in hamiltonian               :        13
  Partitioning the integration grid into batches with parallel hashing+maxmin method.
  | Number of batches:      961
  | Maximal batch size:     139
  | Minimal batch size:      66
  | Average batch size:      72.472
  | Standard deviation of batch sizes:      16.929

  Integration load balanced across     1 MPI tasks.
  Work distribution over tasks is as follows:
  Task     0 has      69646 integration points.
  Initializing partition tables, free-atom densities, potentials, etc. across the integration grid (initialize_grid_storage).
  | initialize_grid_storage: Actual outermost partition radius vs. multipole_radius_free
  | (-- VB: in principle, multipole_radius_free should be larger, hence this output)
  | Species        1: Confinement radius =              4.999999999999999 AA, multipole_radius_free =              5.054417573612229 AA.
  | Species        1: outer_partition_radius set to              5.054417573612229 AA .
  | Species        2: Confinement radius =              4.999999999999999 AA, multipole_radius_free =              5.019602836301480 AA.
  | Species        2: outer_partition_radius set to              5.019602836301480 AA .
  | Species        3: Confinement radius =              4.999999999999999 AA, multipole_radius_free =              5.043624274424571 AA.
  | Species        3: outer_partition_radius set to              5.043624274424571 AA .
  | Species        4: Confinement radius =              4.999999999999999 AA, multipole_radius_free =              5.048384829883283 AA.
  | Species        4: outer_partition_radius set to              5.048384829883283 AA .
  | Original list of interatomic distances with          13 x         13 entries is created.
  | Net number of integration points:    69646
  | of which are non-zero points    :    59395
  Renormalizing the initial density to the exact electron count on the 3D integration grid.
  | Initial density: Formal number of electrons (from input files) :      48.0000000000
  | Integrated number of electrons on 3D grid     :      47.9999788205
  | Charge integration error                      :      -0.0000211795
  | Normalization factor for density and gradient :       1.0000004412
  Obtaining max. number of non-zero basis functions in each batch (get_n_compute_maxes).
  | Maximal number of non-zero basis functions:      119 in task     0
  Selecting the method for density update.
  Loop over occupied states selected for charge density update.
  Allocating        0.050 MB for KS_eigenvector
  Integrating Hamiltonian matrix: batch-based integration.
  Time summed over all CPUs for integration: real work        0.492 s, elapsed        0.492 s
  Integrating overlap matrix.
  Time summed over all CPUs for integration: real work        0.211 s, elapsed        0.211 s

  Updating Kohn-Sham eigenvalues and eigenvectors using ELSI and the ELPA eigensolver.
  Overlap matrix is nonsingular
  | Lowest eigenvalue of overlap  :  0.46E-02
  | Highest eigenvalue of overlap :  0.63E+01
  Finished singularity check of overlap matrix
  | Time :     0.002 s
  Finished Cholesky decomposition
  | Time :     0.000 s
  Finished transformation to standard eigenproblem
  | Time :     0.000 s
  Starting LAPACK eigensolver
  Finished solving standard eigenproblem
  | Time :     0.002 s
  Finished back-transformation of eigenvectors
  | Time :     0.000 s

  Obtaining occupation numbers and chemical potential using ELSI.
  | Chemical potential (Fermi level):    -9.21718946eV
  Writing Kohn-Sham eigenvalues.

  State    Occupation    Eigenvalue [Ha]    Eigenvalue [eV]
      1       2.00000         -19.007631         -517.22396
      2       2.00000         -18.977116         -516.39360
      3       2.00000         -14.247789         -387.70207
      4       2.00000         -10.166702         -276.65003
      5       2.00000         -10.142043         -275.97904
      6       2.00000         -10.131962         -275.70472
      7       2.00000          -1.181809          -32.15865
      8       2.00000          -1.101822          -29.98210
      9       2.00000          -0.993962          -27.04709
     10       2.00000          -0.861525          -23.44329
     11       2.00000          -0.753604          -20.50662
     12       2.00000          -0.681415          -18.54225
     13       2.00000          -0.640568          -17.43075
     14       2.00000          -0.603396          -16.41923
     15       2.00000          -0.592515          -16.12314
     16       2.00000          -0.558232          -15.19027
     17       2.00000          -0.550151          -14.97038
     18       2.00000          -0.529314          -14.40336
     19       2.00000          -0.513761          -13.98015
     20       2.00000          -0.502553          -13.67516
     21       2.00000          -0.479088          -13.03665
     22       2.00000          -0.429825          -11.69614
     23       2.00000          -0.408959          -11.12833
     24       2.00000          -0.387765          -10.55162
     25       0.00000          -0.147974           -4.02657
     26       0.00000          -0.066196           -1.80128
     27       0.00000          -0.029616           -0.80589
     28       0.00000          -0.001515           -0.04123
     29       0.00000          -0.000875           -0.02382
     30       0.00000           0.009164            0.24935
     31       0.00000           0.016839            0.45822
     32       0.00000           0.041726            1.13543
     33       0.00000           0.050850            1.38369
     34       0.00000           0.057861            1.57448
     35       0.00000           0.072984            1.98599
     36       0.00000           0.132040            3.59298
     37       0.00000           0.175594            4.77817
     38       0.00000           0.197918            5.38561
     39       0.00000           0.215476            5.86340
     40       0.00000           0.218538            5.94672
     41       0.00000           0.230917            6.28356
     42       0.00000           0.257563            7.00864
     43       0.00000           0.285005            7.75539
     44       0.00000           0.301343            8.19996
     45       0.00000           0.350420            9.53540
     46       0.00000           0.358232            9.74800
     47       0.00000           0.381241           10.37409
     48       0.00000           0.406254           11.05474
     49       0.00000           0.432141           11.75917
     50       0.00000           0.464795           12.64772
     51       0.00000           0.518239           14.10199
     52       0.00000           0.557450           15.16900
     53       0.00000           0.579417           15.76675

  Highest occupied state (VBM) at    -10.55162000 eV
  | Occupation number:      2.00000000

  Lowest unoccupied state (CBM) at    -4.02657461 eV
  | Occupation number:      0.00000000

  Overall HOMO-LUMO gap:      6.52504540 eV.
  Calculating total energy contributions from superposition of free atom densities.

  Total energy components:
  | Sum of eigenvalues            :        -188.88701475 Ha       -5139.87718532 eV
  | XC energy correction          :         -41.80583460 Ha       -1137.59463975 eV
  | XC potential correction       :          53.74361402 Ha        1462.43814545 eV
  | Free-atom electrostatic energy:        -146.81651307 Ha       -3995.08058804 eV
  | Hartree energy correction     :           0.00000000 Ha           0.00000000 eV
  | vdW energy correction         :           0.00000000 Ha           0.00000000 eV
  | Entropy correction            :           0.00000000 Ha           0.00000000 eV
  | ---------------------------
  | Total energy                  :        -323.76574840 Ha       -8810.11426765 eV
  | Total energy, T -> 0          :        -323.76574840 Ha       -8810.11426765 eV  <-- do not rely on this value for anything but (periodic) metals
  | Electronic free energy        :        -323.76574840 Ha       -8810.11426765 eV

  Derived energy quantities:
  | Kinetic energy                :         320.52628380 Ha        8721.96395086 eV
  | Electrostatic energy          :        -602.48619760 Ha      -16394.48357876 eV
  | Energy correction for multipole
  | error in Hartree potential    :           0.00000000 Ha           0.00000000 eV
  | Sum of eigenvalues per atom                           :        -395.37516810 eV
  | Total energy (T->0) per atom                          :        -677.70109751 eV  <-- do not rely on this value for anything but (periodic) metals
  | Electronic free energy per atom                       :        -677.70109751 eV
  Initialize hartree_potential_storage
  Max. number of atoms included in rho_multipole:           13

  End scf initialization - timings             :  max(cpu_time)    wall_clock(cpu1)
  | Time for scf. initialization               :        1.145 s           1.146 s
  | Boundary condition initialization          :        0.000 s           0.000 s
  | Integration                                :        0.703 s           0.703 s
  | Solution of K.-S. eqns.                    :        0.004 s           0.004 s
  | Grid partitioning                          :        0.111 s           0.111 s
  | Preloading free-atom quantities on grid    :        0.002 s           0.002 s
  | Free-atom superposition energy             :        0.084 s           0.084 s
  | Total energy evaluation                    :        0.000 s           0.000 s

  Partial memory accounting:
  | Current value for overall tracked memory usage on task 0  :           0.165 MB
  | Peak value for overall tracked memory usage on task 0     :           0.678 MB after allocating wave
  | Largest tracked array allocation on task 0 so far         :           0.132 MB  when allocating H_times_psi
  Note:  These values currently only include a subset of arrays which are explicitly tracked.
  The "true" memory usage will be greater.
------------------------------------------------------------

------------------------------------------------------------
          Begin self-consistency iteration #    1

  Date     :  20200805, Time     :  181925.229
------------------------------------------------------------
  Evaluating new KS density.
  Integration grid: deviation in total charge (<rho> - N_e) =  -7.105427E-14
  Pulay mixing of updated and previous charge densities.

  Evaluating partitioned Hartree potential by multipole expansion.
  | Analytical far-field extrapolation by fixed multipoles:
  | Hartree multipole sum: apparent total charge =  -0.123204E-03
  Summing up the Hartree potential.
  Time summed over all CPUs for potential: real work        0.280 s, elapsed        0.280 s
  | RMS charge density error from multipole expansion :   0.590624E-02

  Integrating Hamiltonian matrix: batch-based integration.
  Time summed over all CPUs for integration: real work        0.496 s, elapsed        0.496 s

  Updating Kohn-Sham eigenvalues and eigenvectors using ELSI and the ELPA eigensolver.
  Finished Cholesky decomposition
  | Time :     0.000 s
  Finished transformation to standard eigenproblem
  | Time :     0.000 s
  Starting LAPACK eigensolver
  Finished solving standard eigenproblem
  | Time :     0.002 s
  Finished back-transformation of eigenvectors
  | Time :     0.000 s

  Obtaining occupation numbers and chemical potential using ELSI.
  | Chemical potential (Fermi level):    -8.16195587eV
  Writing Kohn-Sham eigenvalues.

  State    Occupation    Eigenvalue [Ha]    Eigenvalue [eV]
      1       2.00000         -18.906162         -514.46284
      2       2.00000         -18.828249         -512.34272
      3       2.00000         -14.113488         -384.04754
      4       2.00000         -10.112448         -275.17371
      5       2.00000         -10.069016         -273.99187
      6       2.00000         -10.033624         -273.02879
      7       2.00000          -1.131327          -30.78498
      8       2.00000          -1.034290          -28.14445
      9       2.00000          -0.933988          -25.41510
     10       2.00000          -0.799638          -21.75926
     11       2.00000          -0.703166          -19.13411
     12       2.00000          -0.635556          -17.29437
     13       2.00000          -0.589208          -16.03317
     14       2.00000          -0.552185          -15.02571
     15       2.00000          -0.536446          -14.59743
     16       2.00000          -0.499179          -13.58336
     17       2.00000          -0.487455          -13.26432
     18       2.00000          -0.473866          -12.89455
     19       2.00000          -0.451338          -12.28153
     20       2.00000          -0.446379          -12.14658
     21       2.00000          -0.424365          -11.54756
     22       2.00000          -0.364906           -9.92958
     23       2.00000          -0.338599           -9.21376
     24       2.00000          -0.320874           -8.73142
     25       0.00000          -0.108254           -2.94573
     26       0.00000          -0.044876           -1.22115
     27       0.00000           0.009542            0.25965
     28       0.00000           0.027334            0.74379
     29       0.00000           0.029119            0.79237
     30       0.00000           0.039855            1.08451
     31       0.00000           0.053203            1.44773
     32       0.00000           0.072842            1.98215
     33       0.00000           0.085505            2.32672
     34       0.00000           0.094632            2.57507
     35       0.00000           0.112216            3.05356
     36       0.00000           0.161365            4.39095
     37       0.00000           0.203894            5.54825
     38       0.00000           0.228788            6.22564
     39       0.00000           0.243808            6.63435
     40       0.00000           0.249565            6.79101
     41       0.00000           0.262638            7.14675
     42       0.00000           0.289323            7.87288
     43       0.00000           0.319618            8.69725
     44       0.00000           0.341114            9.28220
     45       0.00000           0.390283           10.62013
     46       0.00000           0.399908           10.88205
     47       0.00000           0.419344           11.41094
     48       0.00000           0.439884           11.96986
     49       0.00000           0.465043           12.65445
     50       0.00000           0.499362           13.58833
     51       0.00000           0.551939           15.01901
     52       0.00000           0.589529           16.04191
     53       0.00000           0.615113           16.73809

  Highest occupied state (VBM) at     -8.73142360 eV
  | Occupation number:      2.00000000

  Lowest unoccupied state (CBM) at    -2.94573344 eV
  | Occupation number:      0.00000000

  Overall HOMO-LUMO gap:      5.78569016 eV.

  Total energy components:
  | Sum of eigenvalues            :        -185.57149957 Ha       -5049.65742714 eV
  | XC energy correction          :         -42.12849313 Ha       -1146.37462510 eV
  | XC potential correction       :          54.16315776 Ha        1473.85451146 eV
  | Free-atom electrostatic energy:        -146.81651307 Ha       -3995.08058804 eV
  | Hartree energy correction     :          -3.23771810 Ha         -88.10279213 eV
  | vdW energy correction         :           0.00000000 Ha           0.00000000 eV
  | Entropy correction            :           0.00000000 Ha           0.00000000 eV
  | ---------------------------
  | Total energy                  :        -323.59106612 Ha       -8805.36092093 eV
  | Total energy, T -> 0          :        -323.59106612 Ha       -8805.36092093 eV  <-- do not rely on this value for anything but (periodic) metals
  | Electronic free energy        :        -323.59106612 Ha       -8805.36092093 eV

  Derived energy quantities:
  | Kinetic energy                :         322.28308263 Ha        8769.76887940 eV
  | Electrostatic energy          :        -603.74565562 Ha      -16428.75517524 eV
  | Energy correction for multipole
  | error in Hartree potential    :           0.01152904 Ha           0.31372127 eV
  | Sum of eigenvalues per atom                           :        -388.43518670 eV
  | Total energy (T->0) per atom                          :        -677.33545546 eV  <-- do not rely on this value for anything but (periodic) metals
  | Electronic free energy per atom                       :        -677.33545546 eV

  Self-consistency convergence accuracy:
  | Change of charge density      :  0.5759E+00
  | Change of sum of eigenvalues  :  0.9022E+02 eV
  | Change of total energy        :  0.4753E+01 eV

  End self-consistency iteration #     1       :  max(cpu_time)    wall_clock(cpu1)
  | Time for this iteration                    :        1.185 s           1.185 s
  | Charge density update                      :        0.392 s           0.392 s
  | Density mixing                             :        0.005 s           0.005 s
  | Hartree multipole update                   :        0.009 s           0.009 s
  | Hartree multipole summation                :        0.281 s           0.281 s
  | Integration                                :        0.496 s           0.496 s
  | Solution of K.-S. eqns.                    :        0.002 s           0.002 s
  | Total energy evaluation                    :        0.000 s           0.000 s

  Partial memory accounting:
  | Current value for overall tracked memory usage on task 0  :           0.165 MB
  | Peak value for overall tracked memory usage on task 0     :           0.695 MB after allocating gradient_basis_wave
  | Largest tracked array allocation on task 0 so far         :           0.397 MB  when allocating gradient_basis_wave
  Note:  These values currently only include a subset of arrays which are explicitly tracked.
  The "true" memory usage will be greater.
------------------------------------------------------------

------------------------------------------------------------
          Begin self-consistency iteration #    2

  Date     :  20200805, Time     :  181926.415
------------------------------------------------------------
  Evaluating new KS density.
  Integration grid: deviation in total charge (<rho> - N_e) =  -2.131628E-14
  Pulay mixing of updated and previous charge densities.

  Evaluating partitioned Hartree potential by multipole expansion.
  | Analytical far-field extrapolation by fixed multipoles:
  | Hartree multipole sum: apparent total charge =  -0.253535E-03
  Summing up the Hartree potential.
  Time summed over all CPUs for potential: real work        0.280 s, elapsed        0.280 s
  | RMS charge density error from multipole expansion :   0.140665E-01

  Integrating Hamiltonian matrix: batch-based integration.
  Time summed over all CPUs for integration: real work        0.492 s, elapsed        0.492 s

  Updating Kohn-Sham eigenvalues and eigenvectors using ELSI and the ELPA eigensolver.
  Finished Cholesky decomposition
  | Time :     0.000 s
  Finished transformation to standard eigenproblem
  | Time :     0.000 s
  Starting LAPACK eigensolver
  Finished solving standard eigenproblem
  | Time :     0.002 s
  Finished back-transformation of eigenvectors
  | Time :     0.000 s

  Obtaining occupation numbers and chemical potential using ELSI.
  | Chemical potential (Fermi level):    -2.80098891eV
  Highest occupied state (VBM) at     -6.85621647 eV
  | Occupation number:      2.00000000

  Lowest unoccupied state (CBM) at    -1.58016928 eV
  | Occupation number:      0.00000000

  Overall HOMO-LUMO gap:      5.27604719 eV.

  Checking to see if s.c.f. parameters should be adjusted.

  Total energy components:
  | Sum of eigenvalues            :        -182.07681793 Ha       -4954.56230123 eV
  | XC energy correction          :         -42.48168177 Ha       -1155.98537686 eV
  | XC potential correction       :          54.62079531 Ha        1486.30746283 eV
  | Free-atom electrostatic energy:        -146.81651307 Ha       -3995.08058804 eV
  | Hartree energy correction     :          -6.76162560 Ha        -183.99319410 eV
  | vdW energy correction         :           0.00000000 Ha           0.00000000 eV
  | Entropy correction            :           0.00000000 Ha           0.00000000 eV
  | ---------------------------
  | Total energy                  :        -323.51584306 Ha       -8803.31399739 eV
  | Total energy, T -> 0          :        -323.51584306 Ha       -8803.31399739 eV  <-- do not rely on this value for anything but (periodic) metals
  | Electronic free energy        :        -323.51584306 Ha       -8803.31399739 eV

  Derived energy quantities:
  | Kinetic energy                :         323.58153170 Ha        8805.10147621 eV
  | Electrostatic energy          :        -604.61569299 Ha      -16452.43009674 eV
  | Energy correction for multipole
  | error in Hartree potential    :           0.02532510 Ha           0.68913116 eV
  | Sum of eigenvalues per atom                           :        -381.12017702 eV
  | Total energy (T->0) per atom                          :        -677.17799980 eV  <-- do not rely on this value for anything but (periodic) metals
  | Electronic free energy per atom                       :        -677.17799980 eV

  Self-consistency convergence accuracy:
  | Change of charge density      :  0.3596E+00
  | Change of sum of eigenvalues  :  0.9510E+02 eV
  | Change of total energy        :  0.2047E+01 eV

  End self-consistency iteration #     2       :  max(cpu_time)    wall_clock(cpu1)
  | Time for this iteration                    :        1.174 s           1.175 s
  | Charge density update                      :        0.385 s           0.385 s
  | Density mixing                             :        0.007 s           0.007 s
  | Hartree multipole update                   :        0.009 s           0.009 s
  | Hartree multipole summation                :        0.280 s           0.280 s
  | Integration                                :        0.492 s           0.492 s
  | Solution of K.-S. eqns.                    :        0.002 s           0.002 s
  | Total energy evaluation                    :        0.000 s           0.000 s

  Partial memory accounting:
  | Current value for overall tracked memory usage on task 0  :           0.166 MB
  | Peak value for overall tracked memory usage on task 0     :           0.695 MB after allocating gradient_basis_wave
  | Largest tracked array allocation on task 0 so far         :           0.397 MB  when allocating gradient_basis_wave
  Note:  These values currently only include a subset of arrays which are explicitly tracked.
  The "true" memory usage will be greater.
------------------------------------------------------------

------------------------------------------------------------
          Begin self-consistency iteration #    3

  Date     :  20200805, Time     :  181927.591
------------------------------------------------------------
  Evaluating new KS density.
  Integration grid: deviation in total charge (<rho> - N_e) =   4.263256E-14
  Pulay mixing of updated and previous charge densities.

  Evaluating partitioned Hartree potential by multipole expansion.
  | Analytical far-field extrapolation by fixed multipoles:
  | Hartree multipole sum: apparent total charge =  -0.347504E-03
  Summing up the Hartree potential.
  Time summed over all CPUs for potential: real work        0.279 s, elapsed        0.280 s
  | RMS charge density error from multipole expansion :   0.223365E-01

  Integrating Hamiltonian matrix: batch-based integration.
  Time summed over all CPUs for integration: real work        0.491 s, elapsed        0.491 s

  Updating Kohn-Sham eigenvalues and eigenvectors using ELSI and the ELPA eigensolver.
  Finished Cholesky decomposition
  | Time :     0.000 s
  Finished transformation to standard eigenproblem
  | Time :     0.000 s
  Starting LAPACK eigensolver
  Finished solving standard eigenproblem
  | Time :     0.002 s
  Finished back-transformation of eigenvectors
  | Time :     0.000 s

  Obtaining occupation numbers and chemical potential using ELSI.
  | Chemical potential (Fermi level):    -2.15174935eV
  Highest occupied state (VBM) at     -6.23539987 eV
  | Occupation number:      2.00000000

  Lowest unoccupied state (CBM) at    -0.83191444 eV
  | Occupation number:      0.00000000

  Overall HOMO-LUMO gap:      5.40348543 eV.

  Total energy components:
  | Sum of eigenvalues            :        -180.74980176 Ha       -4918.45235394 eV
  | XC energy correction          :         -42.63533357 Ha       -1160.16645493 eV
  | XC potential correction       :          54.81656713 Ha        1491.63468506 eV
  | Free-atom electrostatic energy:        -146.81651307 Ha       -3995.08058804 eV
  | Hartree energy correction     :          -8.11865373 Ha        -220.91980823 eV
  | vdW energy correction         :           0.00000000 Ha           0.00000000 eV
  | Entropy correction            :           0.00000000 Ha           0.00000000 eV
  | ---------------------------
  | Total energy                  :        -323.50373499 Ha       -8802.98452007 eV
  | Total energy, T -> 0          :        -323.50373499 Ha       -8802.98452007 eV  <-- do not rely on this value for anything but (periodic) metals
  | Electronic free energy        :        -323.50373499 Ha       -8802.98452007 eV

  Derived energy quantities:
  | Kinetic energy                :         323.18905794 Ha        8794.42172186 eV
  | Electrostatic energy          :        -604.05745937 Ha      -16437.23978700 eV
  | Energy correction for multipole
  | error in Hartree potential    :           0.03582405 Ha           0.97482212 eV
  | Sum of eigenvalues per atom                           :        -378.34248876 eV
  | Total energy (T->0) per atom                          :        -677.15265539 eV  <-- do not rely on this value for anything but (periodic) metals
  | Electronic free energy per atom                       :        -677.15265539 eV

  Self-consistency convergence accuracy:
  | Change of charge density      :  0.2008E+00
  | Change of sum of eigenvalues  :  0.3611E+02 eV
  | Change of total energy        :  0.3295E+00 eV

  End self-consistency iteration #     3       :  max(cpu_time)    wall_clock(cpu1)
  | Time for this iteration                    :        1.175 s           1.175 s
  | Charge density update                      :        0.384 s           0.384 s
  | Density mixing                             :        0.008 s           0.009 s
  | Hartree multipole update                   :        0.009 s           0.009 s
  | Hartree multipole summation                :        0.280 s           0.280 s
  | Integration                                :        0.491 s           0.491 s
  | Solution of K.-S. eqns.                    :        0.002 s           0.002 s
  | Total energy evaluation                    :        0.000 s           0.000 s

  Partial memory accounting:
  | Current value for overall tracked memory usage on task 0  :           0.166 MB
  | Peak value for overall tracked memory usage on task 0     :           0.695 MB after allocating gradient_basis_wave
  | Largest tracked array allocation on task 0 so far         :           0.397 MB  when allocating gradient_basis_wave
  Note:  These values currently only include a subset of arrays which are explicitly tracked.
  The "true" memory usage will be greater.
------------------------------------------------------------

------------------------------------------------------------
          Begin self-consistency iteration #    4

  Date     :  20200805, Time     :  181928.767
------------------------------------------------------------
  Evaluating new KS density.
  Integration grid: deviation in total charge (<rho> - N_e) =  -2.131628E-14
  Pulay mixing of updated and previous charge densities.

  Evaluating partitioned Hartree potential by multipole expansion.
  | Analytical far-field extrapolation by fixed multipoles:
  | Hartree multipole sum: apparent total charge =  -0.377467E-03
  Summing up the Hartree potential.
  Time summed over all CPUs for potential: real work        0.280 s, elapsed        0.280 s
  | RMS charge density error from multipole expansion :   0.258266E-01

  Integrating Hamiltonian matrix: batch-based integration.
  Time summed over all CPUs for integration: real work        0.491 s, elapsed        0.491 s

  Updating Kohn-Sham eigenvalues and eigenvectors using ELSI and the ELPA eigensolver.
  Finished Cholesky decomposition
  | Time :     0.000 s
  Finished transformation to standard eigenproblem
  | Time :     0.000 s
  Starting LAPACK eigensolver
  Finished solving standard eigenproblem
  | Time :     0.002 s
  Finished back-transformation of eigenvectors
  | Time :     0.000 s

  Obtaining occupation numbers and chemical potential using ELSI.
  | Chemical potential (Fermi level):    -2.07138376eV
  Highest occupied state (VBM) at     -5.93496135 eV
  | Occupation number:      2.00000000

  Lowest unoccupied state (CBM) at    -0.76104600 eV
  | Occupation number:      0.00000000

  Overall HOMO-LUMO gap:      5.17391534 eV.

  Total energy components:
  | Sum of eigenvalues            :        -180.66144513 Ha       -4916.04804786 eV
  | XC energy correction          :         -42.66983367 Ha       -1161.10525054 eV
  | XC potential correction       :          54.85969723 Ha        1492.80831484 eV
  | Free-atom electrostatic energy:        -146.81651307 Ha       -3995.08058804 eV
  | Hartree energy correction     :          -8.21470801 Ha        -223.53357814 eV
  | vdW energy correction         :           0.00000000 Ha           0.00000000 eV
  | Entropy correction            :           0.00000000 Ha           0.00000000 eV
  | ---------------------------
  | Total energy                  :        -323.50280265 Ha       -8802.95914974 eV
  | Total energy, T -> 0          :        -323.50280265 Ha       -8802.95914974 eV  <-- do not rely on this value for anything but (periodic) metals
  | Electronic free energy        :        -323.50280265 Ha       -8802.95914974 eV

  Derived energy quantities:
  | Kinetic energy                :         322.78859517 Ha        8783.52457543 eV
  | Electrostatic energy          :        -603.62156415 Ha      -16425.37847463 eV
  | Energy correction for multipole
  | error in Hartree potential    :           0.03969799 Ha           1.08023736 eV
  | Sum of eigenvalues per atom                           :        -378.15754214 eV
  | Total energy (T->0) per atom                          :        -677.15070383 eV  <-- do not rely on this value for anything but (periodic) metals
  | Electronic free energy per atom                       :        -677.15070383 eV

  Self-consistency convergence accuracy:
  | Change of charge density      :  0.6485E-01
  | Change of sum of eigenvalues  :  0.2404E+01 eV
  | Change of total energy        :  0.2537E-01 eV

  End self-consistency iteration #     4       :  max(cpu_time)    wall_clock(cpu1)
  | Time for this iteration                    :        1.176 s           1.177 s
  | Charge density update                      :        0.384 s           0.385 s
  | Density mixing                             :        0.009 s           0.009 s
  | Hartree multipole update                   :        0.009 s           0.009 s
  | Hartree multipole summation                :        0.280 s           0.280 s
  | Integration                                :        0.491 s           0.492 s
  | Solution of K.-S. eqns.                    :        0.002 s           0.002 s
  | Total energy evaluation                    :        0.000 s           0.000 s

  Partial memory accounting:
  | Current value for overall tracked memory usage on task 0  :           0.166 MB
  | Peak value for overall tracked memory usage on task 0     :           0.696 MB after allocating gradient_basis_wave
  | Largest tracked array allocation on task 0 so far         :           0.397 MB  when allocating gradient_basis_wave
  Note:  These values currently only include a subset of arrays which are explicitly tracked.
  The "true" memory usage will be greater.
------------------------------------------------------------

------------------------------------------------------------
          Begin self-consistency iteration #    5

  Date     :  20200805, Time     :  181929.945
------------------------------------------------------------
  Evaluating new KS density.
  Integration grid: deviation in total charge (<rho> - N_e) =   2.131628E-14
  Pulay mixing of updated and previous charge densities.

  Evaluating partitioned Hartree potential by multipole expansion.
  | Analytical far-field extrapolation by fixed multipoles:
  | Hartree multipole sum: apparent total charge =  -0.372820E-03
  Summing up the Hartree potential.
  Time summed over all CPUs for potential: real work        0.286 s, elapsed        0.286 s
  | RMS charge density error from multipole expansion :   0.255716E-01

  Integrating Hamiltonian matrix: batch-based integration.
  Time summed over all CPUs for integration: real work        0.491 s, elapsed        0.491 s

  Updating Kohn-Sham eigenvalues and eigenvectors using ELSI and the ELPA eigensolver.
  Finished Cholesky decomposition
  | Time :     0.000 s
  Finished transformation to standard eigenproblem
  | Time :     0.000 s
  Starting LAPACK eigensolver
  Finished solving standard eigenproblem
  | Time :     0.002 s
  Finished back-transformation of eigenvectors
  | Time :     0.000 s

  Obtaining occupation numbers and chemical potential using ELSI.
  | Chemical potential (Fermi level):    -2.10805524eV
  Highest occupied state (VBM) at     -6.06379098 eV
  | Occupation number:      2.00000000

  Lowest unoccupied state (CBM) at    -0.82378312 eV
  | Occupation number:      0.00000000

  Overall HOMO-LUMO gap:      5.24000785 eV.

  Total energy components:
  | Sum of eigenvalues            :        -180.79485645 Ha       -4919.67835446 eV
  | XC energy correction          :         -42.65214185 Ha       -1160.62383162 eV
  | XC potential correction       :          54.83677317 Ha        1492.18451941 eV
  | Free-atom electrostatic energy:        -146.81651307 Ha       -3995.08058804 eV
  | Hartree energy correction     :          -8.07574254 Ha        -219.75213532 eV
  | vdW energy correction         :           0.00000000 Ha           0.00000000 eV
  | Entropy correction            :           0.00000000 Ha           0.00000000 eV
  | ---------------------------
  | Total energy                  :        -323.50248074 Ha       -8802.95039003 eV
  | Total energy, T -> 0          :        -323.50248074 Ha       -8802.95039003 eV  <-- do not rely on this value for anything but (periodic) metals
  | Electronic free energy        :        -323.50248074 Ha       -8802.95039003 eV

  Derived energy quantities:
  | Kinetic energy                :         322.71824378 Ha        8781.61021656 eV
  | Electrostatic energy          :        -603.56858266 Ha      -16423.93677497 eV
  | Energy correction for multipole
  | error in Hartree potential    :           0.03915135 Ha           1.06536244 eV
  | Sum of eigenvalues per atom                           :        -378.43679650 eV
  | Total energy (T->0) per atom                          :        -677.15003000 eV  <-- do not rely on this value for anything but (periodic) metals
  | Electronic free energy per atom                       :        -677.15003000 eV

  Self-consistency convergence accuracy:
  | Change of charge density      :  0.2358E-01
  | Change of sum of eigenvalues  : -0.3630E+01 eV
  | Change of total energy        :  0.8760E-02 eV

  End self-consistency iteration #     5       :  max(cpu_time)    wall_clock(cpu1)
  | Time for this iteration                    :        1.178 s           1.185 s
  | Charge density update                      :        0.384 s           0.384 s
  | Density mixing                             :        0.010 s           0.011 s
  | Hartree multipole update                   :        0.009 s           0.009 s
  | Hartree multipole summation                :        0.280 s           0.287 s
  | Integration                                :        0.491 s           0.492 s
  | Solution of K.-S. eqns.                    :        0.002 s           0.002 s
  | Total energy evaluation                    :        0.000 s           0.000 s

  Partial memory accounting:
  | Current value for overall tracked memory usage on task 0  :           0.166 MB
  | Peak value for overall tracked memory usage on task 0     :           0.696 MB after allocating gradient_basis_wave
  | Largest tracked array allocation on task 0 so far         :           0.397 MB  when allocating gradient_basis_wave
  Note:  These values currently only include a subset of arrays which are explicitly tracked.
  The "true" memory usage will be greater.
------------------------------------------------------------

------------------------------------------------------------
          Begin self-consistency iteration #    6

  Date     :  20200805, Time     :  181931.131
------------------------------------------------------------
  Evaluating new KS density.
  Integration grid: deviation in total charge (<rho> - N_e) =  -3.552714E-14
  Pulay mixing of updated and previous charge densities.

  Evaluating partitioned Hartree potential by multipole expansion.
  | Analytical far-field extrapolation by fixed multipoles:
  | Hartree multipole sum: apparent total charge =  -0.373689E-03
  Summing up the Hartree potential.
  Time summed over all CPUs for potential: real work        0.280 s, elapsed        0.280 s
  | RMS charge density error from multipole expansion :   0.258440E-01

  Integrating Hamiltonian matrix: batch-based integration.
  Time summed over all CPUs for integration: real work        0.491 s, elapsed        0.491 s

  Updating Kohn-Sham eigenvalues and eigenvectors using ELSI and the ELPA eigensolver.
  Finished Cholesky decomposition
  | Time :     0.000 s
  Finished transformation to standard eigenproblem
  | Time :     0.000 s
  Starting LAPACK eigensolver
  Finished solving standard eigenproblem
  | Time :     0.001 s
  Finished back-transformation of eigenvectors
  | Time :     0.000 s

  Obtaining occupation numbers and chemical potential using ELSI.
  | Chemical potential (Fermi level):    -2.12342722eV
  Highest occupied state (VBM) at     -6.10258789 eV
  | Occupation number:      2.00000000

  Lowest unoccupied state (CBM) at    -0.86730866 eV
  | Occupation number:      0.00000000

  Overall HOMO-LUMO gap:      5.23527922 eV.

  Total energy components:
  | Sum of eigenvalues            :        -180.86046449 Ha       -4921.46363999 eV
  | XC energy correction          :         -42.64340490 Ha       -1160.38608708 eV
  | XC potential correction       :          54.82542060 Ha        1491.87560044 eV
  | Free-atom electrostatic energy:        -146.81651307 Ha       -3995.08058804 eV
  | Hartree energy correction     :          -8.00743438 Ha        -217.89337568 eV
  | vdW energy correction         :           0.00000000 Ha           0.00000000 eV
  | Entropy correction            :           0.00000000 Ha           0.00000000 eV
  | ---------------------------
  | Total energy                  :        -323.50239622 Ha       -8802.94809034 eV
  | Total energy, T -> 0          :        -323.50239622 Ha       -8802.94809034 eV  <-- do not rely on this value for anything but (periodic) metals
  | Electronic free energy        :        -323.50239622 Ha       -8802.94809034 eV

  Derived energy quantities:
  | Kinetic energy                :         322.61795990 Ha        8778.88135356 eV
  | Electrostatic energy          :        -603.47695123 Ha      -16421.44335683 eV
  | Energy correction for multipole
  | error in Hartree potential    :           0.03917385 Ha           1.06597467 eV
  | Sum of eigenvalues per atom                           :        -378.57412615 eV
  | Total energy (T->0) per atom                          :        -677.14985310 eV  <-- do not rely on this value for anything but (periodic) metals
  | Electronic free energy per atom                       :        -677.14985310 eV

  Self-consistency convergence accuracy:
  | Change of charge density      :  0.1118E-01
  | Change of sum of eigenvalues  : -0.1785E+01 eV
  | Change of total energy        :  0.2300E-02 eV

  End self-consistency iteration #     6       :  max(cpu_time)    wall_clock(cpu1)
  | Time for this iteration                    :        1.179 s           1.179 s
  | Charge density update                      :        0.385 s           0.384 s
  | Density mixing                             :        0.012 s           0.012 s
  | Hartree multipole update                   :        0.009 s           0.009 s
  | Hartree multipole summation                :        0.280 s           0.280 s
  | Integration                                :        0.491 s           0.491 s
  | Solution of K.-S. eqns.                    :        0.002 s           0.003 s
  | Total energy evaluation                    :        0.000 s           0.000 s

  Partial memory accounting:
  | Current value for overall tracked memory usage on task 0  :           0.166 MB
  | Peak value for overall tracked memory usage on task 0     :           0.696 MB after allocating gradient_basis_wave
  | Largest tracked array allocation on task 0 so far         :           0.397 MB  when allocating gradient_basis_wave
  Note:  These values currently only include a subset of arrays which are explicitly tracked.
  The "true" memory usage will be greater.
------------------------------------------------------------

------------------------------------------------------------
          Begin self-consistency iteration #    7

  Date     :  20200805, Time     :  181932.310
------------------------------------------------------------
  Evaluating new KS density.
  Integration grid: deviation in total charge (<rho> - N_e) =  -2.842171E-14
  Pulay mixing of updated and previous charge densities.

  Evaluating partitioned Hartree potential by multipole expansion.
  | Analytical far-field extrapolation by fixed multipoles:
  | Hartree multipole sum: apparent total charge =  -0.375079E-03
  Summing up the Hartree potential.
  Time summed over all CPUs for potential: real work        0.280 s, elapsed        0.280 s
  | RMS charge density error from multipole expansion :   0.260038E-01

  Integrating Hamiltonian matrix: batch-based integration.
  Time summed over all CPUs for integration: real work        0.492 s, elapsed        0.492 s

  Updating Kohn-Sham eigenvalues and eigenvectors using ELSI and the ELPA eigensolver.
  Finished Cholesky decomposition
  | Time :     0.000 s
  Finished transformation to standard eigenproblem
  | Time :     0.000 s
  Starting LAPACK eigensolver
  Finished solving standard eigenproblem
  | Time :     0.002 s
  Finished back-transformation of eigenvectors
  | Time :     0.000 s

[...]
  |   Hirshfeld dipole moment :      0.06277515
  |   Hirshfeld second moments:     -0.00145371      -0.02459172      -0.01482721
  |                                 -0.02459172      -0.02644918       0.00635030
  |                                 -0.01482721       0.00635030      -0.02229695
  ----------------------------------------------------------------------
  | Atom    12: O
  |   Hirshfeld charge        :     -0.14413342
  |   Free atom volume        :     23.61338643
  |   Hirshfeld volume        :     21.14465858
  |   Hirshfeld dipole vector :      0.01300844       0.03906678      -0.00944218
  |   Hirshfeld dipole moment :      0.04224438
  |   Hirshfeld second moments:      0.05647752      -0.01067586       0.01172843
  |                                 -0.01067586       0.02668808       0.00744996
  |                                  0.01172843       0.00744996       0.07687578
  ----------------------------------------------------------------------
  | Atom    13: H
  |   Hirshfeld charge        :      0.12718024
  |   Free atom volume        :      9.95071624
  |   Hirshfeld volume        :      7.18493813
  |   Hirshfeld dipole vector :     -0.01983640       0.00365677      -0.06901778
  |   Hirshfeld dipole moment :      0.07190486
  |   Hirshfeld second moments:      0.10279959      -0.00362435       0.00045814
  |                                 -0.00362435       0.05856681       0.03451938
  |                                  0.00045814       0.03451938       0.08645430
  ----------------------------------------------------------------------


  Total energy components:
  | Sum of eigenvalues            :        -180.84719339 Ha       -4921.10251499 eV
  | XC energy correction          :         -42.64195920 Ha       -1160.34674768 eV
  | XC potential correction       :          54.82361556 Ha        1491.82648266 eV
  | Free-atom electrostatic energy:        -146.81651307 Ha       -3995.08058804 eV
  | Hartree energy correction     :          -8.02032917 Ha        -218.24426081 eV
  | vdW energy correction         :          -0.00323635 Ha          -0.08806569 eV
  | Entropy correction            :           0.00000000 Ha           0.00000000 eV
  | ---------------------------
  | Total energy                  :        -323.50561562 Ha       -8803.03569455 eV
  | Total energy, T -> 0          :        -323.50561562 Ha       -8803.03569455 eV  <-- do not rely on this value for anything but (periodic) metals
  | Electronic free energy        :        -323.50561562 Ha       -8803.03569455 eV

  Derived energy quantities:
  | Kinetic energy                :         322.58291652 Ha        8777.92777450 eV
  | Electrostatic energy          :        -603.44333658 Ha      -16420.52865567 eV
  | Energy correction for multipole
  | error in Hartree potential    :           0.03924307 Ha           1.06785834 eV
  | Sum of eigenvalues per atom                           :        -378.54634731 eV
  | Total energy (T->0) per atom                          :        -677.15659189 eV  <-- do not rely on this value for anything but (periodic) metals
  | Electronic free energy per atom                       :        -677.15659189 eV

  atomic forces [eV/Ang]:
  -----------------------
  atom #    1
   Hellmann-Feynman              :  0.136010E+01  0.123921E+00  0.161835E+01
   Ionic forces                  :  0.000000E+00  0.000000E+00  0.000000E+00
   Multipole                     :  0.145286E+00  0.254960E+00 -0.299708E+00
   Pulay + GGA                   : -0.131801E+01  0.135963E+00 -0.148279E+01
   Van der Waals                 :  0.187002E-02  0.929598E-03 -0.105874E-02
   ----------------------------------------------------------------
   Total forces(   1)            :  0.189245E+00  0.515774E+00 -0.165213E+00
  atom #    2
   Hellmann-Feynman              :  0.411071E+00 -0.125856E-01  0.320654E+00
   Ionic forces                  :  0.000000E+00  0.000000E+00  0.000000E+00
   Multipole                     :  0.153206E+00  0.318720E-01 -0.339761E-01
   Pulay + GGA                   : -0.127526E+00  0.102673E-01  0.156978E-01
   Van der Waals                 :  0.871397E-02 -0.482209E-02 -0.113992E-02
   ----------------------------------------------------------------
   Total forces(   2)            :  0.445465E+00  0.247316E-01  0.301236E+00
  atom #    3
   Hellmann-Feynman              : -0.111303E+02 -0.197134E+01  0.164562E+01
   Ionic forces                  :  0.000000E+00  0.000000E+00  0.000000E+00
   Multipole                     : -0.136582E+00  0.127120E+00 -0.728730E+00
   Pulay + GGA                   :  0.108592E+02  0.145552E+01 -0.195985E-01
   Van der Waals                 :  0.359320E-02 -0.527708E-02 -0.870963E-02
   ----------------------------------------------------------------
   Total forces(   3)            : -0.404171E+00 -0.393977E+00  0.888581E+00
  atom #    4
   Hellmann-Feynman              :  0.242262E-01  0.107435E-01 -0.239639E+00
   Ionic forces                  :  0.000000E+00  0.000000E+00  0.000000E+00
   Multipole                     :  0.391530E-01  0.978082E-02 -0.756058E-01
   Pulay + GGA                   : -0.143148E+00 -0.160308E+00  0.925862E-01
   Van der Waals                 : -0.482921E-02 -0.734891E-02 -0.478667E-02
   ----------------------------------------------------------------
   Total forces(   4)            : -0.845976E-01 -0.147133E+00 -0.227445E+00
  atom #    5
   Hellmann-Feynman              :  0.551584E+00  0.991879E-01 -0.450519E+00
   Ionic forces                  :  0.000000E+00  0.000000E+00  0.000000E+00
   Multipole                     :  0.461928E-01 -0.511768E-01 -0.978336E-01
   Pulay + GGA                   : -0.887274E-01  0.185982E+00  0.623301E-01
   Van der Waals                 :  0.281674E-03  0.650734E-02 -0.747482E-02
   ----------------------------------------------------------------
   Total forces(   5)            :  0.509331E+00  0.240500E+00 -0.493497E+00
  atom #    6
   Hellmann-Feynman              : -0.338545E+00 -0.564298E+00  0.268955E+00
   Ionic forces                  :  0.000000E+00  0.000000E+00  0.000000E+00
   Multipole                     : -0.955755E-01  0.680460E+00  0.234980E+00
   Pulay + GGA                   :  0.483749E+00 -0.576061E+00 -0.585613E+00
   Van der Waals                 : -0.378485E-02  0.270436E-02 -0.208879E-02
   ----------------------------------------------------------------
   Total forces(   6)            :  0.458444E-01 -0.457195E+00 -0.837679E-01
  atom #    7
   Hellmann-Feynman              : -0.206678E+00 -0.328133E-01 -0.456131E-01
   Ionic forces                  :  0.000000E+00  0.000000E+00  0.000000E+00
   Multipole                     : -0.121733E+00  0.474484E-01  0.315784E-01
   Pulay + GGA                   :  0.115702E+00 -0.893778E-02 -0.102705E-01
   Van der Waals                 : -0.426200E-03  0.415158E-03  0.123486E-02
   ----------------------------------------------------------------
   Total forces(   7)            : -0.213135E+00  0.611254E-02 -0.230703E-01
  atom #    8
   Hellmann-Feynman              :  0.108530E+00 -0.802956E-01  0.843619E-01
   Ionic forces                  :  0.000000E+00  0.000000E+00  0.000000E+00
   Multipole                     :  0.137053E-01  0.692025E-01  0.131173E+00
   Pulay + GGA                   : -0.494706E-01 -0.469995E-01 -0.103835E+00
   Van der Waals                 : -0.265972E-02  0.113550E-01  0.967856E-03
   ----------------------------------------------------------------
   Total forces(   8)            :  0.701047E-01 -0.467376E-01  0.112668E+00
  atom #    9
   Hellmann-Feynman              :  0.119134E+00  0.830842E-01 -0.190128E+00
   Ionic forces                  :  0.000000E+00  0.000000E+00  0.000000E+00
   Multipole                     :  0.203398E-01  0.129835E+00 -0.191683E-02
   Pulay + GGA                   : -0.437143E-01 -0.560650E-01  0.842182E-01
   Van der Waals                 : -0.190872E-02  0.679961E-02  0.914201E-02
   ----------------------------------------------------------------
   Total forces(   9)            :  0.938509E-01  0.163653E+00 -0.986846E-01
  atom #   10
   Hellmann-Feynman              :  0.210477E+01  0.348325E+01  0.184404E+01
   Ionic forces                  :  0.000000E+00  0.000000E+00  0.000000E+00
   Multipole                     :  0.635341E-01 -0.132680E+00  0.213639E+00
   Pulay + GGA                   : -0.129557E+01 -0.248529E+01 -0.226625E+00
   Van der Waals                 :  0.214016E-02 -0.106604E-01  0.159957E-02
   ----------------------------------------------------------------
   Total forces(  10)            :  0.874873E+00  0.854618E+00  0.183265E+01
  atom #   11
   Hellmann-Feynman              :  0.413662E+01 -0.236379E+01  0.141560E+02
   Ionic forces                  :  0.000000E+00  0.000000E+00  0.000000E+00
   Multipole                     :  0.142979E+00 -0.582321E+00  0.980236E+00
   Pulay + GGA                   : -0.346680E+01  0.361296E+01 -0.141211E+02
   Van der Waals                 : -0.875237E-03 -0.122385E-01  0.715243E-02
   ----------------------------------------------------------------
   Total forces(  11)            :  0.811918E+00  0.654611E+00  0.102221E+01
  atom #   12
   Hellmann-Feynman              : -0.577693E+01 -0.127602E+02  0.106482E+01
   Ionic forces                  :  0.000000E+00  0.000000E+00  0.000000E+00
   Multipole                     : -0.913772E+00 -0.151770E+01  0.444650E-01
   Pulay + GGA                   :  0.548806E+01  0.131170E+02 -0.300882E+01
   Van der Waals                 : -0.171527E-02  0.383186E-02  0.798512E-02
   ----------------------------------------------------------------
   Total forces(  12)            : -0.120436E+01 -0.115713E+01 -0.189155E+01
  atom #   13
   Hellmann-Feynman              : -0.112290E+01 -0.205820E+00 -0.147988E+01
   Ionic forces                  :  0.000000E+00  0.000000E+00  0.000000E+00
   Multipole                     : -0.859861E-02  0.939289E-01 -0.868743E-01
   Pulay + GGA                   : -0.280193E-02 -0.152156E+00  0.388103E+00
   Van der Waals                 : -0.399825E-03  0.780404E-02 -0.282328E-02
   ----------------------------------------------------------------
   Total forces(  13)            : -0.113470E+01 -0.256244E+00 -0.118148E+01

  Timings for VdW correction (Tkatchenko-Scheffler 2009 or later):
  | CPU time:        0.089 s, Wall clock time:        0.089 s.
  Removing unitary transformations (pure translations, rotations) from forces on atoms.
  Atomic forces before filtering:
  | Net force on center of mass :  -0.329207E-03  0.158207E-02 -0.735864E-02 eV/A
  | Net torque on center of mass:   0.571310E-02 -0.120993E-02 -0.391943E-02 eV
  Atomic forces after filtering:
  | Net force on center of mass :   0.535218E-15  0.446015E-16  0.178406E-15 eV/A
  | Net torque on center of mass:  -0.212419E-15  0.755268E-15  0.113290E-14 eV

  Energy and forces in a compact form:
  | Total energy uncorrected      :         -0.880303569454966E+04 eV
  | Total energy corrected        :         -0.880303569454966E+04 eV  <-- do not rely on this value for anything but (periodic) metals
  | Electronic free energy        :         -0.880303569454966E+04 eV
  Total atomic forces (unitary forces cleaned) [eV/Ang]:
  |   1          0.189263072100668E+00          0.515703502702881E+00         -0.164672978212645E+00
  |   2          0.445483524860132E+00          0.248216869142955E-01          0.301717740942190E+00
  |   3         -0.404228075652638E+00         -0.394316490176185E+00          0.889147225850448E+00
  |   4         -0.848063670662794E-01         -0.147492836415929E+00         -0.227017370658343E+00
  |   5          0.509364142418459E+00          0.240152454603190E+00         -0.492841202262270E+00
  |   6          0.457163259196638E-01         -0.457234954622841E+00         -0.833790796420136E-01
  |   7         -0.213266244922631E+00          0.591446707247704E-02         -0.226270502652538E-01
  |   8          0.700298340095117E-01         -0.465791972236671E-01          0.113036178254241E+00
  |   9          0.935640975376274E-01          0.163595203201208E+00         -0.984418338468487E-01
  |  10          0.875120182780960E+00          0.854595292236172E+00          0.183339359327493E+01
  |  11          0.812266357952703E+00          0.654791389996607E+00          0.102297710689068E+01
  |  12         -0.120402605512483E+01         -0.115735505991140E+01         -0.189064629665547E+01
  |  13         -0.113448079481335E+01         -0.256595458376806E+00         -0.118064603366965E+01

  ------------------------------------ 
  Start decomposition of the XC Energy 
  ------------------------------------ 
  X and C from original XC functional choice 
  Hartree-Fock Energy :          0.000000000 Ha              0.000000000 eV
  X Energy            :        -41.039556974 Ha          -1116.743164533 eV
  C Energy            :         -1.602402228 Ha            -43.603583149 eV
  Total XC Energy     :        -42.641959202 Ha          -1160.346747683 eV
  ------------------------------------ 
  LDA X and C from self-consistent density 
  X Energy LDA        :        -37.260983103 Ha          -1013.922938059 eV
  C Energy LDA        :         -3.139092355 Ha            -85.419049050 eV
  ------------------------------------ 
  End decomposition of the XC Energy 
  ------------------------------------ 

------------------------------------------------------------

------------------------------------------------------------------------------
  Final output of selected total energy values:

  The following output summarizes some interesting total energy values
  at the end of a run (AFTER all relaxation, molecular dynamics, etc.).

  | Total energy of the DFT / Hartree-Fock s.c.f. calculation      :          -8803.035694550 eV
  | Final zero-broadening corrected energy (caution - metals only) :          -8803.035694550 eV
  | For reference only, the value of 1 Hartree used in FHI-aims is :             27.211384500 eV

  Before relying on these values, please be sure to understand exactly which
  total energy value is referred to by a given number. Different objects may
  all carry the same name 'total energy'. Definitions:

  Total energy of the DFT / Hartree-Fock s.c.f. calculation:
  | Note that this energy does not include ANY quantities calculated after the
  | s.c.f. cycle, in particular not ANY RPA, MP2, etc. many-body perturbation terms.

  Final zero-broadening corrected energy:
  | For metallic systems only, a broadening of the occupation numbers at the Fermi
  | level can be extrapolated back to zero broadening by an electron-gas inspired
  | formula. For all systems that are not real metals, this value can be
  | meaningless and should be avoided.

------------------------------------------------------------------------------
  Methods described in the following list of references were used in this FHI-aims run.
  If you publish the results, please make sure to cite these reference if they apply.
  FHI-aims is an academic code, and for our developers (often, Ph.D. students
  and postdocs), scientific credit in the community is essential.
  Thank you for helping us!

  For any use of FHI-aims, please cite:

    Volker Blum, Ralf Gehrke, Felix Hanke, Paula Havu, Ville Havu,
    Xinguo Ren, Karsten Reuter, and Matthias Scheffler
    'Ab initio molecular simulations with numeric atom-centered orbitals'
    Computer Physics Communications 180, 2175-2196 (2009)
    http://dx.doi.org/10.1016/j.cpc.2009.06.022


  The scalable eigensolver library ELPA was used in your run.
  ELPA is essential especially for large systems on hundreds or thousands of CPUs.
  For ELPA, please cite:

    Andreas Marek, Volker Blum, Rainer Johanni, Ville Havu, Bruno Lang,
    Thomas Auckenthaler, Alexander Heinecke, Hans-Joachim Bungartz, and Hermann Lederer,
    'The ELPA Library - Scalable Parallel Eigenvalue Solutions
    for Electronic Structure Theory and Computational Science'
    The Journal of Physics: Condensed Matter 26, 213201 (2014).
    http://dx.doi.org/10.1088/0953-8984/26/21/213201


  The ELSI infrastructure was used in your run to solve the Kohn-Sham electronic structure.
  Please check out http://elsi-interchange.org to learn more.
  If scalability is important for your project, please acknowledge ELSI by citing:

    V. W-z. Yu, F. Corsetti, A. Garcia, W. P. Huhn, M. Jacquelin, W. Jia,
    B. Lange, L. Lin, J. Lu, W. Mi, A. Seifitokaldani, A. Vazquez-Mayagoitia,
    C. Yang, H. Yang, and V. Blum
    'ELSI: A unified software interface for Kohn-Sham electronic structure solvers'
    Computer Physics Communications 222, 267-285 (2018).
    http://dx.doi.org/10.1016/j.cpc.2017.09.007


  For the real-space grid partitioning and parallelization used in this calculation, please cite:

    Ville Havu, Volker Blum, Paula Havu, and Matthias Scheffler,
    'Efficient O(N) integration for all-electron electronic structure calculation'
    'using numerically tabulated basis functions'
    Journal of Computational Physics 228, 8367-8379 (2009).
    http://dx.doi.org/10.1016/j.jcp.2009.08.008

  Of course, there are many other important community references, e.g., those cited in the
  above references. Our list is limited to references that describe implementations in the
  FHI-aims code. The reason is purely practical (length of this list) - please credit others as well.

------------------------------------------------------------
          Leaving FHI-aims.
          Date     :  20200805, Time     :  181946.467

          Computational steps:
          | Number of self-consistency cycles          :           16
          | Number of SCF (re)initializations          :            1

          Detailed time accounting                     :  max(cpu_time)    wall_clock(cpu1)
          | Total time                                 :       22.505 s          22.545 s
          | Preparation time                           :        0.146 s           0.147 s
          | Boundary condition initalization           :        0.000 s           0.000 s
          | Grid partitioning                          :        0.111 s           0.111 s
          | Preloading free-atom quantities on grid    :        0.002 s           0.002 s
          | Free-atom superposition energy             :        0.084 s           0.084 s
          | Total time for integrations                :        8.568 s           8.577 s
          | Total time for solution of K.-S. equations :        0.036 s           0.038 s
          | Total time for density & force components  :        7.098 s           7.099 s
          | Total time for mixing                      :        0.210 s           0.215 s
          | Total time for Hartree multipole update    :        0.140 s           0.144 s
          | Total time for Hartree multipole sum       :        5.713 s           5.721 s
          | Total time for total energy evaluation     :        0.002 s           0.002 s
          | Total time for vdW correction              :        0.089 s           0.089 s

          Partial memory accounting:
          | Residual value for overall tracked memory usage across tasks :           0.000 MB (should be 0.000 MB)
          | Peak values for overall tracked memory usage (after allocating hessian_basis_wave):
          |   Minimum:        1.622 MB (on task 1)
          |   Maximum:        1.622 MB (on task 1)
          |   Average:        1.622 MB
          | Largest tracked array allocation (hessian_basis_wave):
          |   Minimum:        0.794 MB (on task 1)
          |   Maximum:        0.794 MB (on task 1)
          |   Average:        0.794 MB
          Note:  These values currently only include a subset of arrays which are explicitly tracked.
          The "true" memory usage will be greater.

          Have a nice day.
------------------------------------------------------------
