  MPI-parallelism will be employed.
------------------------------------------------------------
          Invoking FHI-aims ...
          Version 171221_1
          Compiled on 2019/09/09 at 14:39:39 on host puhti-login2.bullx.

          When using FHI-aims, please cite the following reference:

          Volker Blum, Ralf Gehrke, Felix Hanke, Paula Havu,
          Ville Havu, Xinguo Ren, Karsten Reuter, and Matthias Scheffler,
          'Ab Initio Molecular Simulations with Numeric Atom-Centered Orbitals',
          Computer Physics Communications 180, 2175-2196 (2009)

          For any questions about FHI-aims, please visit the aimsclub website
          with its forums and wiki. Contributions to both the forums and the
          wiki are warmly encouraged - they are for you, and everyone is welcome there.

------------------------------------------------------------



  Date     :  20200815, Time     :  004307.837
  Time zero on CPU 1             :   0.108240000000000E-01  s.
  Internal wall clock time zero  :           366684187.837  s.

  FHI-aims created a unique identifier for this run for later identification
  aims_uuid : 54483D50-7CA8-4458-A284-B0C1F34749CE

  Using        1 parallel tasks.
  Task        0 on host r16c11.bullx reporting.

  Performing system and environment tests:
  | Environment variable OMP_NUM_THREADS correctly set to 1.
  | Stacksize not measured: no C compiler
  | Checking for scalapack...
  | Testing pdtran()...
  | All pdtran() tests passed.

  Obtaining array dimensions for all initial allocations:
  
  -----------------------------------------------------------------------
  Parsing control.in (first pass over file, find array dimensions only).
  The contents of control.in will be repeated verbatim below
  unless switched off by setting 'verbatim_writeout .false.' .
  in the first line of control.in .
  -----------------------------------------------------------------------
  
  #########################################################################################
  #
  #  Volker Blum, FHI 2009 : Test run input file control.in for simple H2O
  #
  #########################################################################################
  #
  #  Physical model
  #
    xc                 pbe
    vdw_correction_hirshfeld
    spin               none
    relativistic       none
    charge             0.
  #
  #  SCF convergence
  #
    occupation_type    gaussian 0.01
    mixer              pulay
      n_max_pulay        10
      charge_mix_param   0.2
    sc_accuracy_rho    1E-5
    sc_accuracy_eev    1E-3
    sc_accuracy_etot   1E-6
    sc_accuracy_forces 1E-4
    sc_iter_limit      100
  #
  #  Relaxation
  #
  #  relax_geometry   bfgs 1.e-3
  #
  ################################################################################
  #
  #  FHI-aims code project
  #  VB, Fritz-Haber Institut, 2009
  #
  #  Suggested "light" defaults for H atom (to be pasted into control.in file)
  #  Be sure to double-check any results obtained with these settings for post-processing,
  #  e.g., with the "tight" defaults and larger basis sets.
  #
  ################################################################################
    species        H
  #     global species definitions
      nucleus             1
      mass                1.00794
  #
      l_hartree           4
  #
      cut_pot             3.5  1.5  1.0
      basis_dep_cutoff    1e-4
  #
      radial_base         24 5.0
      radial_multiplier   1
      angular_grids       specified
        division   0.2421   50
        division   0.3822  110
        division   0.4799  194
        division   0.5341  302
  #      division   0.5626  434
  #      division   0.5922  590
  #      division   0.6542  770
  #      division   0.6868 1202
  #      outer_grid  770
        outer_grid  302
  ################################################################################
  #
  #  Definition of "minimal" basis
  #
  ################################################################################
  #     valence basis states
      valence      1  s   1.
  #     ion occupancy
      ion_occ      1  s   0.5
  ################################################################################
  #
  #  Suggested additional basis functions. For production calculations,
  #  uncomment them one after another (the most important basis functions are
  #  listed first).
  #
  #  Basis constructed for dimers: 0.5 A, 0.7 A, 1.0 A, 1.5 A, 2.5 A
  #
  ################################################################################
  #  "First tier" - improvements: -1014.90 meV to -62.69 meV
       hydro 2 s 2.1
       hydro 2 p 3.5
  #  "Second tier" - improvements: -12.89 meV to -1.83 meV
  #     hydro 1 s 0.85
  #     hydro 2 p 3.7
  #     hydro 2 s 1.2
  #     hydro 3 d 7
  #  "Third tier" - improvements: -0.25 meV to -0.12 meV
  #     hydro 4 f 11.2
  #     hydro 3 p 4.8
  #     hydro 4 d 9
  #     hydro 3 s 3.2
  ################################################################################
  #
  #  FHI-aims code project
  #  VB, Fritz-Haber Institut, 2009
  #
  #  Suggested "light" defaults for C atom (to be pasted into control.in file)
  #  Be sure to double-check any results obtained with these settings for post-processing,
  #  e.g., with the "tight" defaults and larger basis sets.
  #
  ################################################################################
    species        C
  #     global species definitions
      nucleus             6
      mass                12.0107
  #
      l_hartree           4
  #
      cut_pot             3.5  1.5  1.0
      basis_dep_cutoff    1e-4
  #
      radial_base         34 5.0
      radial_multiplier   1
      angular_grids specified
        division   0.3326   50
        division   0.5710  110
        division   0.7727  194
        division   0.8772  302
  #      division   0.9334  434
  #      division   0.9625  590
  #      division   0.9924  770
  #      division   1.0230  974
  #      division   1.4589 1202
  #     outer_grid  974
       outer_grid 302
  ################################################################################
  #
  #  Definition of "minimal" basis
  #
  ################################################################################
  #     valence basis states
      valence      2  s   2.
      valence      2  p   2.
  #     ion occupancy
      ion_occ      2  s   1.
      ion_occ      2  p   1.
  ################################################################################
  #
  #  Suggested additional basis functions. For production calculations,
  #  uncomment them one after another (the most important basis functions are
  #  listed first).
  #
  #  Constructed for dimers: 1.0 A, 1.25 A, 1.5 A, 2.0 A, 3.0 A
  #
  ################################################################################
  #  "First tier" - improvements: -1214.57 meV to -155.61 meV
       hydro 2 p 1.7
       hydro 3 d 6
       hydro 2 s 4.9
  #  "Second tier" - improvements: -67.75 meV to -5.23 meV
  #     hydro 4 f 9.8
  #     hydro 3 p 5.2
  #     hydro 3 s 4.3
  #     hydro 5 g 14.4
  #     hydro 3 d 6.2
  #  "Third tier" - improvements: -2.43 meV to -0.60 meV
  #     hydro 2 p 5.6
  #     hydro 2 s 1.4
  #     hydro 3 d 4.9
  #     hydro 4 f 11.2
  #  "Fourth tier" - improvements: -0.39 meV to -0.18 meV
  #     hydro 2 p 2.1
  #     hydro 5 g 16.4
  #     hydro 4 d 13.2
  #     hydro 3 s 13.6
  #     hydro 4 f 17.6
  #  Further basis functions - improvements: -0.08 meV and below
  #     hydro 3 s 2
  #     hydro 3 p 6
  #     hydro 4 d 20
  ################################################################################
  #
  #  FHI-aims code project
  #  VB, Fritz-Haber Institut, 2009
  #
  #  Suggested "light" defaults for N atom (to be pasted into control.in file)
  #  Be sure to double-check any results obtained with these settings for post-processing,
  #  e.g., with the "tight" defaults and larger basis sets.
  #
  ################################################################################
    species        N
  #     global species definitions
      nucleus             7
      mass                14.0067
  #
      l_hartree           4
  #
      cut_pot             3.5  1.5  1.0
      basis_dep_cutoff    1e-4
  #
      radial_base         35 5.0
      radial_multiplier   1
      angular_grids       specified
        division   0.2599   50
        division   0.4601  110
        division   0.5885  194
        division   0.6503  302
  #      division   0.6939  434
  #      division   0.7396  590
  #      division   0.7632  770
  #      division   0.8122  974
  #      division   1.1604 1202
  #      outer_grid  974
        outer_grid  302
  ################################################################################
  #
  #  Definition of "minimal" basis
  #
  ################################################################################
  #     valence basis states
      valence      2  s   2.
      valence      2  p   3.
  #     ion occupancy
      ion_occ      2  s   1.
      ion_occ      2  p   2.
  ################################################################################
  #
  #  Suggested additional basis functions. For production calculations,
  #  uncomment them one after another (the most important basis functions are
  #  listed first).
  #
  #  Constructed for dimers: 1.0 A, 1.1 A, 1.5 A, 2.0 A, 3.0 A
  #
  ################################################################################
  #  "First tier" - improvements: -1193.42 meV to -220.60 meV
       hydro 2 p 1.8
       hydro 3 d 6.8
       hydro 3 s 5.8
  #  "Second tier" - improvements: -80.21 meV to -6.86 meV
  #     hydro 4 f 10.8
  #     hydro 3 p 5.8
  #     hydro 1 s 0.8
  #     hydro 5 g 16
  #     hydro 3 d 4.9
  #  "Third tier" - improvements: -4.29 meV to -0.53 meV
  #     hydro 3 s 16
  #     ionic 2 p auto
  #     hydro 3 d 6.6
  #     hydro 4 f 11.6
  #  "Fourth tier" - improvements: -0.75 meV to -0.25 meV
  #     hydro 2 p 4.5
  #     hydro 2 s 2.4
  #     hydro 5 g 14.4
  #     hydro 4 d 14.4
  #     hydro 4 f 16.8
  # Further basis functions - -0.21 meV and below
  #     hydro 3 p 14.8
  #     hydro 3 s 4.4
  #     hydro 3 d 19.6
  #     hydro 5 g 12.8
  ################################################################################
  #
  #  FHI-aims code project
  #  VB, Fritz-Haber Institut, 2009
  #
  #  Suggested "light" defaults for O atom (to be pasted into control.in file)
  #  Be sure to double-check any results obtained with these settings for post-processing,
  #  e.g., with the "tight" defaults and larger basis sets.
  #
  ################################################################################
    species        O
  #     global species definitions
      nucleus             8
      mass                15.9994
  #
      l_hartree           4
  #
      cut_pot             3.5  1.5  1.0
      basis_dep_cutoff    1e-4
  #
      radial_base         36 5.0
      radial_multiplier   1
       angular_grids specified
        division   0.2659   50
        division   0.4451  110
        division   0.6052  194
        division   0.7543  302
  #      division   0.8014  434
  #      division   0.8507  590
  #      division   0.8762  770
  #      division   0.9023  974
  #      division   1.2339 1202
  #      outer_grid 974
        outer_grid 302
  ################################################################################
  #
  #  Definition of "minimal" basis
  #
  ################################################################################
  #     valence basis states
      valence      2  s   2.
      valence      2  p   4.
  #     ion occupancy
      ion_occ      2  s   1.
      ion_occ      2  p   3.
  ################################################################################
  #
  #  Suggested additional basis functions. For production calculations,
  #  uncomment them one after another (the most important basis functions are
  #  listed first).
  #
  #  Constructed for dimers: 1.0 A, 1.208 A, 1.5 A, 2.0 A, 3.0 A
  #
  ################################################################################
  #  "First tier" - improvements: -699.05 meV to -159.38 meV
       hydro 2 p 1.8
       hydro 3 d 7.6
       hydro 3 s 6.4
  #  "Second tier" - improvements: -49.91 meV to -5.39 meV
  #     hydro 4 f 11.6
  #     hydro 3 p 6.2
  #     hydro 3 d 5.6
  #     hydro 5 g 17.6
  #     hydro 1 s 0.75
  #  "Third tier" - improvements: -2.83 meV to -0.50 meV
  #     ionic 2 p auto
  #     hydro 4 f 10.8
  #     hydro 4 d 4.7
  #     hydro 2 s 6.8
  #  "Fourth tier" - improvements: -0.40 meV to -0.12 meV
  #     hydro 3 p 5
  #     hydro 3 s 3.3
  #     hydro 5 g 15.6
  #     hydro 4 f 17.6
  #     hydro 4 d 14
  # Further basis functions - -0.08 meV and below
  #     hydro 3 s 2.1
  #     hydro 4 d 11.6
  #     hydro 3 p 16
  #     hydro 2 s 17.2
  
  -----------------------------------------------------------------------
  Completed first pass over input file control.in .
  -----------------------------------------------------------------------
  
  
  -----------------------------------------------------------------------
  Parsing geometry.in (first pass over file, find array dimensions only).
  The contents of geometry.in will be repeated verbatim below
  unless switched off by setting 'verbatim_writeout .false.' .
  in the first line of geometry.in .
  -----------------------------------------------------------------------
  
  atom  0.00000 0.00000 0.00000 C
  atom  1.09300 0.00000 0.00000 H
  atom  -0.47961 0.00000 -1.41207 N
  atom  -1.45799 -0.29056 -1.42520 H
  atom  -0.38699 0.94110 -1.78873 H
  atom  -0.49584 1.26211 0.72868 C
  atom  -1.58789 1.28919 0.74431 H
  atom  -0.13407 1.27425 1.75947 H
  atom  -0.13407 2.16087 0.22380 H
  atom  -0.39425 -1.28861 0.74398 C
  atom  -0.10189 -1.56493 1.88303 O
  atom  -1.10210 -2.13717 0.06896 O
  atom  -0.38733 -2.52782 -0.46159 H
  
  -----------------------------------------------------------------------
  Completed first pass over input file geometry.in .
  -----------------------------------------------------------------------
  

  Basic array size parameters:
  | Number of species                 :        4
  | Number of atoms                   :       13
  | Max. basis fn. angular momentum   :        2
  | Max. atomic/ionic basis occupied n:        2
  | Max. number of basis fn. types    :        2
  | Max. radial fns per species/type  :        3
  | Max. logarithmic grid size        :     1301
  | Max. radial integration grid size :       36
  | Max. angular integration grid size:      302
  | Max. angular grid division number :        8
  | Radial grid for Hartree potential :     1301
  | Number of spin channels           :        1

------------------------------------------------------------
          Reading file control.in.
------------------------------------------------------------
  XC: Using PBE gradient-corrected functionals.
  Spin treatment: No spin polarisation.
  Non-relativistic treatment of kinetic energy.
  Charge =   0.000000E+00: Neutral system requested explicitly.
  Occupation type: Gaussian broadening, width =   0.100000E-01 eV.
  Using pulay charge density mixing.
  Pulay mixing - number of memorized iterations:   10
  Charge density mixing - mixing parameter:     0.2000
  Convergence accuracy of self-consistent charge density:  0.1000E-04
  Convergence accuracy of sum of eigenvalues:  0.1000E-02
  Convergence accuracy of total energy:  0.1000E-05
  Convergence accuracy of forces:  0.1000E-03
  Maximum number of s.-c. iterations  :   100
 
  Reading configuration options for species H                   .
  | Found nuclear charge :   1.0000
  | Found atomic mass :    1.00794000000000      amu
  | Found l_max for Hartree potential  :   4
  | Found cutoff potl. onset [A], width [A], scale factor :    3.50000    1.50000    1.00000
  | Threshold for basis-dependent cutoff potential is   0.100000E-03
  | Found data for basic radial integration grid :    24 points, outermost radius =    5.000 A
  | Found multiplier for basic radial grid :   1
  | Found angular grid specification: user-specified.
  | Specified grid contains     5 separate shells.
  | Check grid settings after all constraints further below.
  | Found free-atom valence shell :  1 s   1.000
  | No ionic wave fns used. Skipping ion_occ.
  | Found hydrogenic basis function :  2 s   2.100
  | Found hydrogenic basis function :  2 p   3.500
  Species H                   : Missing cutoff potential type.
  Defaulting to exp(1/x)/(1-x)^2 type cutoff potential.
  Species H : No 'logarithmic' tag. Using default grid for free atom:
  | Default logarithmic grid data [bohr] : 0.1000E-03 0.1000E+03 0.1012E+01
  Species H : On-site basis accuracy parameter (for Gram-Schmidt orthonormalisation) not specified.
  Using default value basis_acc =  0.1000000E-03.
  Species H                   : Using default innermost maximum threshold i_radial=  2 for radial functions.
  Species H                   : Default cutoff onset for free atom density etc. : 0.35000000E+01 AA.
  Species H                   : Basic radial grid will be enhanced according to radial_multiplier =   1, to contain    24 grid points.
 
  Reading configuration options for species C                   .
  | Found nuclear charge :   6.0000
  | Found atomic mass :    12.0107000000000      amu
  | Found l_max for Hartree potential  :   4
  | Found cutoff potl. onset [A], width [A], scale factor :    3.50000    1.50000    1.00000
  | Threshold for basis-dependent cutoff potential is   0.100000E-03
  | Found data for basic radial integration grid :    34 points, outermost radius =    5.000 A
  | Found multiplier for basic radial grid :   1
  | Found angular grid specification: user-specified.
  | Specified grid contains     5 separate shells.
  | Check grid settings after all constraints further below.
  | Found free-atom valence shell :  2 s   2.000
  | Found free-atom valence shell :  2 p   2.000
  | No ionic wave fns used. Skipping ion_occ.
  | No ionic wave fns used. Skipping ion_occ.
  | Found hydrogenic basis function :  2 p   1.700
  | Found hydrogenic basis function :  3 d   6.000
  | Found hydrogenic basis function :  2 s   4.900
  Species C                   : Missing cutoff potential type.
  Defaulting to exp(1/x)/(1-x)^2 type cutoff potential.
  Species C : No 'logarithmic' tag. Using default grid for free atom:
  | Default logarithmic grid data [bohr] : 0.1000E-03 0.1000E+03 0.1012E+01
  Species C : On-site basis accuracy parameter (for Gram-Schmidt orthonormalisation) not specified.
  Using default value basis_acc =  0.1000000E-03.
  Species C                   : Using default innermost maximum threshold i_radial=  2 for radial functions.
  Species C                   : Default cutoff onset for free atom density etc. : 0.35000000E+01 AA.
  Species C                   : Basic radial grid will be enhanced according to radial_multiplier =   1, to contain    34 grid points.
 
  Reading configuration options for species N                   .
  | Found nuclear charge :   7.0000
  | Found atomic mass :    14.0067000000000      amu
  | Found l_max for Hartree potential  :   4
  | Found cutoff potl. onset [A], width [A], scale factor :    3.50000    1.50000    1.00000
  | Threshold for basis-dependent cutoff potential is   0.100000E-03
  | Found data for basic radial integration grid :    35 points, outermost radius =    5.000 A
  | Found multiplier for basic radial grid :   1
  | Found angular grid specification: user-specified.
  | Specified grid contains     5 separate shells.
  | Check grid settings after all constraints further below.
  | Found free-atom valence shell :  2 s   2.000
  | Found free-atom valence shell :  2 p   3.000
  | No ionic wave fns used. Skipping ion_occ.
  | No ionic wave fns used. Skipping ion_occ.
  | Found hydrogenic basis function :  2 p   1.800
  | Found hydrogenic basis function :  3 d   6.800
  | Found hydrogenic basis function :  3 s   5.800
  Species N                   : Missing cutoff potential type.
  Defaulting to exp(1/x)/(1-x)^2 type cutoff potential.
  Species N : No 'logarithmic' tag. Using default grid for free atom:
  | Default logarithmic grid data [bohr] : 0.1000E-03 0.1000E+03 0.1012E+01
  Species N : On-site basis accuracy parameter (for Gram-Schmidt orthonormalisation) not specified.
  Using default value basis_acc =  0.1000000E-03.
  Species N                   : Using default innermost maximum threshold i_radial=  2 for radial functions.
  Species N                   : Default cutoff onset for free atom density etc. : 0.35000000E+01 AA.
  Species N                   : Basic radial grid will be enhanced according to radial_multiplier =   1, to contain    35 grid points.
 
  Reading configuration options for species O                   .
  | Found nuclear charge :   8.0000
  | Found atomic mass :    15.9994000000000      amu
  | Found l_max for Hartree potential  :   4
  | Found cutoff potl. onset [A], width [A], scale factor :    3.50000    1.50000    1.00000
  | Threshold for basis-dependent cutoff potential is   0.100000E-03
  | Found data for basic radial integration grid :    36 points, outermost radius =    5.000 A
  | Found multiplier for basic radial grid :   1
  | Found angular grid specification: user-specified.
  | Specified grid contains     5 separate shells.
  | Check grid settings after all constraints further below.
  | Found free-atom valence shell :  2 s   2.000
  | Found free-atom valence shell :  2 p   4.000
  | No ionic wave fns used. Skipping ion_occ.
  | No ionic wave fns used. Skipping ion_occ.
  | Found hydrogenic basis function :  2 p   1.800
  | Found hydrogenic basis function :  3 d   7.600
  | Found hydrogenic basis function :  3 s   6.400
  Species O                   : Missing cutoff potential type.
  Defaulting to exp(1/x)/(1-x)^2 type cutoff potential.
  Species O : No 'logarithmic' tag. Using default grid for free atom:
  | Default logarithmic grid data [bohr] : 0.1000E-03 0.1000E+03 0.1012E+01
  Species O : On-site basis accuracy parameter (for Gram-Schmidt orthonormalisation) not specified.
  Using default value basis_acc =  0.1000000E-03.
  Species O                   : Using default innermost maximum threshold i_radial=  2 for radial functions.
  Species O                   : Default cutoff onset for free atom density etc. : 0.35000000E+01 AA.
  Species O                   : Basic radial grid will be enhanced according to radial_multiplier =   1, to contain    36 grid points.
 
  Finished reading input file 'control.in'. Consistency checks are next.
 
  MPI_IN_PLACE appears to work with this MPI implementation.
  | Keeping use_mpi_in_place .true. (see manual).
  Target number of points in a grid batch is not set. Defaulting to  100
  Method for grid partitioning is not set. Defaulting to parallel hash+maxmin partitioning.
  Batch size limit is not set. Defaulting to    200
  By default, will store active basis functions for each batch.
  If in need of memory, prune_basis_once .false. can be used to disable this option.
  communication_type for Hartree potential was not specified.
  Defaulting to calc_hartree .
  Pulay mixer: Number of initial linear mixing iterations not set.
  Defaulting to    0 iterations.
  Work space size for distributed Hartree potential not set.
  Defaulting to   0.200000E+03 MB.
  Algorithm-dependent basis array size parameters:
  | n_max_pulay                         :       10
  Presetting      1001 iterations before the initial mixing cycle
  is restarted anyway using the sc_init_iter criterion / keyword.
  Presetting a factor      1.000 between actual scf density residual
  and density convergence criterion sc_accuracy_rho below which sc_init_iter
  takes no effect.
  Geometry relaxation not requested: no relaxation will be performed.
  Handling of forces: Unphysical translation and rotation will be removed from forces.
  No accuracy limit for integral partition fn. given. Defaulting to  0.1000E-14.
  No threshold value for u(r) in integrations given. Defaulting to  0.1000E-05.
  No accuracy for occupation numbers given. Defaulting to  0.1000E-12.
  No threshold value for occupation numbers given. Defaulting to  0.0000E+00.
  No accuracy for fermi level given. Defaulting to  0.1000E-19.
  Maximum # of iterations to find E_F not set. Defaulting to  200.
  Preferred method for the eigenvalue solver ('KS_method') not specified in 'control.in'.
  Defaulting to serial version, 'lapack_fast'.
  Will not use alltoall communication since running on < 1024 CPUs.
  Threshold for basis singularities not set.
  Default threshold for basis singularities:  0.1000E-04
  partition_type (choice of integration weights) for integrals was not specified.
  | Using a version of the partition function of Stratmann and coworkers ('stratmann_smoother').
  | At each grid point, the set of atoms used to build the partition table is smoothly restricted to
  | only those atoms whose free-atom density would be non-zero at that grid point.
  Partitioning for Hartree potential was not defined. Using partition_type for integrals.
  | Adjusted default value of keyword multip_moments_threshold to:       0.10000000E-11
  | This value may affect high angular momentum components of the Hartree potential in periodic systems.
  No q(lm)/r^(l+1) cutoff set for long-range Hartree potential.
  | Using default value of  0.100000E-09 .
  | Verify using the multipole_threshold keyword.
  Defaulting to new monopole extrapolation.
  Density update method: automatic selection selected.
------------------------------------------------------------


------------------------------------------------------------
          Reading geometry description geometry.in.
------------------------------------------------------------
  Input structure read successfully.
  The structure contains       13 atoms,  and a total of         48.000 electrons.

  Input geometry:
  | No unit cell requested.
  | Atomic structure:
  |       Atom                x [A]            y [A]            z [A]
  |    1: Species C             0.00000000        0.00000000        0.00000000
  |    2: Species H             1.09300000        0.00000000        0.00000000
  |    3: Species N            -0.47961000        0.00000000       -1.41207000
  |    4: Species H            -1.45799000       -0.29056000       -1.42520000
  |    5: Species H            -0.38699000        0.94110000       -1.78873000
  |    6: Species C            -0.49584000        1.26211000        0.72868000
  |    7: Species H            -1.58789000        1.28919000        0.74431000
  |    8: Species H            -0.13407000        1.27425000        1.75947000
  |    9: Species H            -0.13407000        2.16087000        0.22380000
  |   10: Species C            -0.39425000       -1.28861000        0.74398000
  |   11: Species O            -0.10189000       -1.56493000        1.88303000
  |   12: Species O            -1.10210000       -2.13717000        0.06896000
  |   13: Species H            -0.38733000       -2.52782000       -0.46159000
  |

  | The smallest distance between any two atoms is         0.97210436 AA.
  |
  | The first atom of this pair is atom number                     12 .
  | The second atom of this pair is atom number                    13 .

  Number of empty states per atom not set in control.in - providing a guess from actual geometry.
  | Total number of empty states used during s.c.f. cycle:       29
  If you use a very high smearing, use empty_states (per atom!) in control.in to increase this value.

  Structure-dependent array size parameters: 
  | Maximum number of distinct radial functions  :       21
  | Maximum number of basis functions            :      119
  | Number of Kohn-Sham states (occupied + empty):       53
------------------------------------------------------------

------------------------------------------------------------
          Preparing all fixed parts of the calculation.
------------------------------------------------------------
  Determining machine precision:
    2.225073858507201E-308
  Setting up grids for atomic and cluster calculations.

  Creating wave function, potential, and density for free atoms.

  Species: H

  List of occupied orbitals and eigenvalues:
    n    l              occ      energy [Ha]    energy [eV]
    1    0           1.0000        -0.237589        -6.4651


  Species: C

  List of occupied orbitals and eigenvalues:
    n    l              occ      energy [Ha]    energy [eV]
    1    0           2.0000       -10.038835      -273.1706
    2    0           2.0000        -0.502696       -13.6791
    2    1           2.0000        -0.191971        -5.2238


  Species: N

  List of occupied orbitals and eigenvalues:
    n    l              occ      energy [Ha]    energy [eV]
    1    0           2.0000       -14.128000      -384.4424
    2    0           2.0000        -0.681077       -18.5330
    2    1           3.0000        -0.259788        -7.0692


  Species: O

  List of occupied orbitals and eigenvalues:
    n    l              occ      energy [Ha]    energy [eV]
    1    0           2.0000       -18.898188      -514.2459
    2    0           2.0000        -0.878505       -23.9053
    2    1           4.0000        -0.331779        -9.0282

  Creating fixed part of basis set: Ionic, confined, hydrogenic.
 
  H                    hydrogenic:
 
  List of hydrogenic basis orbitals: 
    n    l      effective z      eigenvalue [eV]  inner max. [A]     outer max. [A]     outer radius [A]   
    2    0         2.100000       -14.9728           0.193243           1.317208           4.583499
    2    1         3.500000       -41.6669           0.602369           0.602369           3.723403
 
 
  C                    hydrogenic:
 
  List of hydrogenic basis orbitals: 
    n    l      effective z      eigenvalue [eV]  inner max. [A]     outer max. [A]     outer radius [A]   
    2    1         1.700000        -9.7616           1.230570           1.230570           4.607917
    3    2         6.000000       -54.4224           0.792453           0.792453           3.883070
    2    0         4.900000       -81.6679           0.082559           0.562749           3.078220
 
 
  N                    hydrogenic:
 
  List of hydrogenic basis orbitals: 
    n    l      effective z      eigenvalue [eV]  inner max. [A]     outer max. [A]     outer radius [A]   
    2    1         1.800000       -10.9749           1.177451           1.177451           4.573712
    3    2         6.800000       -69.9026           0.704619           0.704619           3.538137
    3    0         5.800000       -50.8545           0.067388           1.191934           4.250239
 
 
  O                    hydrogenic:
 
  List of hydrogenic basis orbitals: 
    n    l      effective z      eigenvalue [eV]  inner max. [A]     outer max. [A]     outer radius [A]   
    2    1         1.800000       -10.9749           1.164242           1.164242           4.578029
    3    2         7.600000       -87.3180           0.624125           0.624125           3.251020
    3    0         6.400000       -61.9207           0.061167           1.081902           4.001998
 

  Adding cutoff potential to free-atom effective potential.
  Creating atomic-like basis functions for current effective potential.

  Species H                   :

  List of atomic basis orbitals and eigenvalues:
    n    l      energy [Ha]    energy [eV]    outer radius [A]
    1    0        -0.237589        -6.4651       4.527807


  Species C                   :

  List of atomic basis orbitals and eigenvalues:
    n    l      energy [Ha]    energy [eV]    outer radius [A]
    1    0       -10.038835      -273.1706       1.934409
    2    0        -0.502696       -13.6791       4.496620
    2    1        -0.191971        -5.2238       4.551928


  Species N                   :

  List of atomic basis orbitals and eigenvalues:
    n    l      energy [Ha]    energy [eV]    outer radius [A]
    1    0       -14.128000      -384.4424       1.637919
    2    0        -0.681077       -18.5330       4.463241
    2    1        -0.259788        -7.0692       4.518138


  Species O                   :

  List of atomic basis orbitals and eigenvalues:
    n    l      energy [Ha]    energy [eV]    outer radius [A]
    1    0       -18.898188      -514.2459       1.415765
    2    0        -0.878505       -23.9053       4.413171
    2    1        -0.331779        -9.0282       4.522403

  Assembling full basis from fixed parts.
  | Species H :   atomic orbital   1 s accepted.
  | Species H :    hydro orbital   2 s accepted.
  | Species H :    hydro orbital   2 p accepted.
  | Species C :   atomic orbital   1 s accepted.
  | Species C :    hydro orbital   2 s accepted.
  | Species C :   atomic orbital   2 s accepted.
  | Species C :   atomic orbital   2 p accepted.
  | Species C :    hydro orbital   2 p accepted.
  | Species C :    hydro orbital   3 d accepted.
  | Species N :   atomic orbital   1 s accepted.
  | Species N :    hydro orbital   3 s accepted.
  | Species N :   atomic orbital   2 s accepted.
  | Species N :   atomic orbital   2 p accepted.
  | Species N :    hydro orbital   2 p accepted.
  | Species N :    hydro orbital   3 d accepted.
  | Species O :   atomic orbital   1 s accepted.
  | Species O :    hydro orbital   3 s accepted.
  | Species O :   atomic orbital   2 s accepted.
  | Species O :   atomic orbital   2 p accepted.
  | Species O :    hydro orbital   2 p accepted.
  | Species O :    hydro orbital   3 d accepted.
 
  Basis size parameters after reduction:
  | Total number of radial functions:       21
  | Total number of basis functions :      119
 
  Per-task memory consumption for arrays in subroutine allocate_ext:
  |           5.250512MB.
  Testing on-site integration grid accuracy.
  |  Species  Function  <phi|h_atom|phi> (log., in eV)  <phi|h_atom|phi> (rad., in eV)
           1        1                 -6.4663192853                 -6.4651273558
           1        2                 13.7111246313                 13.7170609718
           1        3                 25.2673269279                 25.2674696378
           2        4               -273.1705927641               -273.1705631568
           2        5                -10.7109323383                -10.7107120029
           2        6                 17.4381822266                 17.4352413244
           2        7                 -5.2255326521                 -5.2270484734
           2        8                  8.6835629259                  8.6603288385
           2        9                 27.4952418996                 27.4953360207
           3       10               -384.4424306495               -384.4423701208
           3       11                 12.5842251816                 12.5842222903
           3       12                -15.7264628251                -15.7264433455
           3       13                 -7.0696854293                 -7.0701769954
           3       14                  8.8090390882                  8.7901077751
           3       15                 35.9586762123                 35.9588528632
           4       16               -514.2458688638               -514.2457643834
           4       17                 15.1795651126                 15.1795290741
           4       18                -21.5359799773                -21.5360846186
           4       19                 -9.0283069236                 -9.0284644067
           4       20                  8.3027758564                  8.2834874195
           4       21                 45.8339351984                 45.8338762259

  Preparing densities etc. for the partition functions (integrals / Hartree potential).

  Preparations completed.
  max(cpu_time)          :      0.145 s.
  Wall clock time (cpu1) :      0.147 s.
------------------------------------------------------------

------------------------------------------------------------
          Begin self-consistency loop: Initialization.

          Date     :  20200815, Time     :  004307.997
------------------------------------------------------------

  Initializing index lists of integration centers etc. from given atomic structure:
  | Number of centers in hartree potential         :        13
  | Number of centers in hartree multipole         :        13
  | Number of centers in electron density summation:        13
  | Number of centers in basis integrals           :        13
  | Number of centers in integrals                 :        13
  | Number of centers in hamiltonian               :        13
  Partitioning the integration grid into batches with parallel hashing+maxmin method.
  | Number of batches:      953
  | Maximal batch size:     138
  | Minimal batch size:      66
  | Average batch size:      73.081
  | Standard deviation of batch sizes:      17.853

  Integration load balanced across     1 MPI tasks.
  Work distribution over tasks is as follows:
  Task     0 has      69646 integration points.
  Initializing partition tables, free-atom densities, potentials, etc. across the integration grid (initialize_grid_storage).
  | initialize_grid_storage: Actual outermost partition radius vs. multipole_radius_free
  | (-- VB: in principle, multipole_radius_free should be larger, hence this output)
  | Species        1: Confinement radius =              4.999999999999999 AA, multipole_radius_free =              5.054417573612229 AA.
  | Species        1: outer_partition_radius set to              5.054417573612229 AA .
  | Species        2: Confinement radius =              4.999999999999999 AA, multipole_radius_free =              5.019602836301480 AA.
  | Species        2: outer_partition_radius set to              5.019602836301480 AA .
  | Species        3: Confinement radius =              4.999999999999999 AA, multipole_radius_free =              5.043624274424571 AA.
  | Species        3: outer_partition_radius set to              5.043624274424571 AA .
  | Species        4: Confinement radius =              4.999999999999999 AA, multipole_radius_free =              5.048384829883283 AA.
  | Species        4: outer_partition_radius set to              5.048384829883283 AA .
  | Original list of interatomic distances with          13 x         13 entries is created.
  | Net number of integration points:    69646
  | of which are non-zero points    :    59422
  Renormalizing the initial density to the exact electron count on the 3D integration grid.
  | Initial density: Formal number of electrons (from input files) :      48.0000000000
  | Integrated number of electrons on 3D grid     :      47.9998335494
  | Charge integration error                      :      -0.0001664506
  | Normalization factor for density and gradient :       1.0000034677
  Obtaining max. number of non-zero basis functions in each batch (get_n_compute_maxes).
  | Maximal number of non-zero basis functions:      119 in task     0
  Selecting the method for density update.
  Loop over occupied states selected for charge density update.
  Allocating        0.050 MB for KS_eigenvector
  Integrating Hamiltonian matrix: batch-based integration.
  Time summed over all CPUs for integration: real work        0.498 s, elapsed        0.498 s
  Integrating overlap matrix.
  Time summed over all CPUs for integration: real work        0.212 s, elapsed        0.212 s

  Updating Kohn-Sham eigenvalues and eigenvectors using ELSI and the ELPA eigensolver.
  Overlap matrix is nonsingular
  | Lowest eigenvalue of overlap  :  0.54E-02
  | Highest eigenvalue of overlap :  0.62E+01
  Finished singularity check of overlap matrix
  | Time :     0.001 s
  Finished Cholesky decomposition
  | Time :     0.000 s
  Finished transformation to standard eigenproblem
  | Time :     0.000 s
  Starting LAPACK eigensolver
  Finished solving standard eigenproblem
  | Time :     0.002 s
  Finished back-transformation of eigenvectors
  | Time :     0.000 s

  Obtaining occupation numbers and chemical potential using ELSI.
  | Chemical potential (Fermi level):    -9.16988659eV
  Writing Kohn-Sham eigenvalues.

  State    Occupation    Eigenvalue [Ha]    Eigenvalue [eV]
      1       2.00000         -19.007798         -517.22851
      2       2.00000         -18.977247         -516.39717
      3       2.00000         -14.245890         -387.65039
      4       2.00000         -10.166815         -276.65312
      5       2.00000         -10.141380         -275.96098
      6       2.00000         -10.132010         -275.70602
      7       2.00000          -1.182984          -32.19062
      8       2.00000          -1.098101          -29.88084
      9       2.00000          -0.991905          -26.99110
     10       2.00000          -0.858364          -23.35727
     11       2.00000          -0.756981          -20.59851
     12       2.00000          -0.683080          -18.58755
     13       2.00000          -0.633467          -17.23752
     14       2.00000          -0.599825          -16.32207
     15       2.00000          -0.580614          -15.79932
     16       2.00000          -0.564749          -15.36761
     17       2.00000          -0.556127          -15.13299
     18       2.00000          -0.539200          -14.67238
     19       2.00000          -0.524108          -14.26171
     20       2.00000          -0.498519          -13.56538
     21       2.00000          -0.458223          -12.46887
     22       2.00000          -0.425523          -11.57906
     23       2.00000          -0.399305          -10.86565
     24       2.00000          -0.391907          -10.66433
     25       0.00000          -0.162294           -4.41625
     26       0.00000          -0.063246           -1.72100
     27       0.00000          -0.026780           -0.72873
     28       0.00000          -0.024905           -0.67770
     29       0.00000          -0.005088           -0.13845
     30       0.00000           0.006937            0.18878
     31       0.00000           0.028039            0.76299
     32       0.00000           0.038680            1.05252
     33       0.00000           0.042819            1.16517
     34       0.00000           0.057614            1.56775
     35       0.00000           0.077126            2.09872
     36       0.00000           0.132711            3.61126
     37       0.00000           0.161642            4.39849
     38       0.00000           0.202133            5.50032
     39       0.00000           0.222536            6.05550
     40       0.00000           0.226515            6.16379
     41       0.00000           0.253901            6.90899
     42       0.00000           0.275400            7.49402
     43       0.00000           0.284063            7.72976
     44       0.00000           0.316636            8.61611
     45       0.00000           0.330442            8.99178
     46       0.00000           0.343018            9.33398
     47       0.00000           0.364256            9.91192
     48       0.00000           0.377750           10.27911
     49       0.00000           0.426654           11.60985
     50       0.00000           0.481720           13.10828
     51       0.00000           0.513081           13.96163
     52       0.00000           0.541135           14.72503
     53       0.00000           0.581249           15.81660

  Highest occupied state (VBM) at    -10.66432879 eV
  | Occupation number:      2.00000000

  Lowest unoccupied state (CBM) at    -4.41625314 eV
  | Occupation number:      0.00000000

  Overall HOMO-LUMO gap:      6.24807565 eV.
  Calculating total energy contributions from superposition of free atom densities.

  Total energy components:
  | Sum of eigenvalues            :        -188.82824382 Ha       -5138.27794713 eV
  | XC energy correction          :         -41.78773491 Ha       -1137.10212191 eV
  | XC potential correction       :          53.71878231 Ha        1461.76244022 eV
  | Free-atom electrostatic energy:        -146.85987307 Ha       -3996.26047366 eV
  | Hartree energy correction     :           0.00000000 Ha           0.00000000 eV
  | vdW energy correction         :           0.00000000 Ha           0.00000000 eV
  | Entropy correction            :           0.00000000 Ha           0.00000000 eV
  | ---------------------------
  | Total energy                  :        -323.75706949 Ha       -8809.87810248 eV
  | Total energy, T -> 0          :        -323.75706949 Ha       -8809.87810248 eV  <-- do not rely on this value for anything but (periodic) metals
  | Electronic free energy        :        -323.75706949 Ha       -8809.87810248 eV

  Derived energy quantities:
  | Kinetic energy                :         320.49662356 Ha        8721.15685454 eV
  | Electrostatic energy          :        -602.46595814 Ha      -16393.93283511 eV
  | Energy correction for multipole
  | error in Hartree potential    :           0.00000000 Ha           0.00000000 eV
  | Sum of eigenvalues per atom                           :        -395.25214978 eV
  | Total energy (T->0) per atom                          :        -677.68293096 eV  <-- do not rely on this value for anything but (periodic) metals
  | Electronic free energy per atom                       :        -677.68293096 eV
  Initialize hartree_potential_storage
  Max. number of atoms included in rho_multipole:           13

  End scf initialization - timings             :  max(cpu_time)    wall_clock(cpu1)
  | Time for scf. initialization               :        1.145 s           1.152 s
  | Boundary condition initialization          :        0.000 s           0.000 s
  | Integration                                :        0.703 s           0.710 s
  | Solution of K.-S. eqns.                    :        0.004 s           0.004 s
  | Grid partitioning                          :        0.110 s           0.110 s
  | Preloading free-atom quantities on grid    :        0.002 s           0.003 s
  | Free-atom superposition energy             :        0.085 s           0.084 s
  | Total energy evaluation                    :        0.000 s           0.000 s

  Partial memory accounting:
  | Current value for overall tracked memory usage on task 0  :           0.165 MB
  | Peak value for overall tracked memory usage on task 0     :           0.676 MB after allocating wave
  | Largest tracked array allocation on task 0 so far         :           0.131 MB  when allocating H_times_psi
  Note:  These values currently only include a subset of arrays which are explicitly tracked.
  The "true" memory usage will be greater.
------------------------------------------------------------

------------------------------------------------------------
          Begin self-consistency iteration #    1

  Date     :  20200815, Time     :  004309.149
------------------------------------------------------------
  Evaluating new KS density.
  Integration grid: deviation in total charge (<rho> - N_e) =   1.421085E-14
  Pulay mixing of updated and previous charge densities.

  Evaluating partitioned Hartree potential by multipole expansion.
  | Analytical far-field extrapolation by fixed multipoles:
  | Hartree multipole sum: apparent total charge =  -0.275425E-03
  Summing up the Hartree potential.
  Time summed over all CPUs for potential: real work        0.284 s, elapsed        0.284 s
  | RMS charge density error from multipole expansion :   0.591761E-02

  Integrating Hamiltonian matrix: batch-based integration.
  Time summed over all CPUs for integration: real work        0.490 s, elapsed        0.490 s

  Updating Kohn-Sham eigenvalues and eigenvectors using ELSI and the ELPA eigensolver.
  Finished Cholesky decomposition
  | Time :     0.000 s
  Finished transformation to standard eigenproblem
  | Time :     0.000 s
  Starting LAPACK eigensolver
  Finished solving standard eigenproblem
  | Time :     0.001 s
  Finished back-transformation of eigenvectors
  | Time :     0.000 s

  Obtaining occupation numbers and chemical potential using ELSI.
  | Chemical potential (Fermi level):    -8.05735427eV
  Writing Kohn-Sham eigenvalues.

  State    Occupation    Eigenvalue [Ha]    Eigenvalue [eV]
      1       2.00000         -18.896561         -514.20159
      2       2.00000         -18.839255         -512.64220
      3       2.00000         -14.098098         -383.62878
      4       2.00000         -10.118312         -275.33327
      5       2.00000         -10.063950         -273.85402
      6       2.00000         -10.031958         -272.98346
      7       2.00000          -1.132287          -30.81110
      8       2.00000          -1.035059          -28.16538
      9       2.00000          -0.923089          -25.11852
     10       2.00000          -0.793108          -21.58156
     11       2.00000          -0.705314          -19.19257
     12       2.00000          -0.638252          -17.36772
     13       2.00000          -0.579234          -15.76177
     14       2.00000          -0.539676          -14.68534
     15       2.00000          -0.525846          -14.30901
     16       2.00000          -0.504194          -13.71981
     17       2.00000          -0.493462          -13.42780
     18       2.00000          -0.475011          -12.92570
     19       2.00000          -0.464942          -12.65172
     20       2.00000          -0.442495          -12.04090
     21       2.00000          -0.397356          -10.81261
     22       2.00000          -0.369636          -10.05831
     23       2.00000          -0.328137           -8.92905
     24       2.00000          -0.317665           -8.64409
     25       0.00000          -0.127168           -3.46041
     26       0.00000          -0.040406           -1.09951
     27       0.00000          -0.004362           -0.11869
     28       0.00000           0.015595            0.42435
     29       0.00000           0.025487            0.69352
     30       0.00000           0.043652            1.18783
     31       0.00000           0.060453            1.64500
     32       0.00000           0.077763            2.11604
     33       0.00000           0.083619            2.27538
     34       0.00000           0.098824            2.68914
     35       0.00000           0.116591            3.17260
     36       0.00000           0.161437            4.39292
     37       0.00000           0.185972            5.06056
     38       0.00000           0.230466            6.27129
     39       0.00000           0.256009            6.96635
     40       0.00000           0.260465            7.08762
     41       0.00000           0.290997            7.91844
     42       0.00000           0.307801            8.37570
     43       0.00000           0.318743            8.67345
     44       0.00000           0.352500            9.59201
     45       0.00000           0.368071           10.01572
     46       0.00000           0.379358           10.32286
     47       0.00000           0.401189           10.91690
     48       0.00000           0.419060           11.40319
     49       0.00000           0.462827           12.59415
     50       0.00000           0.519498           14.13627
     51       0.00000           0.549759           14.95972
     52       0.00000           0.574832           15.64199
     53       0.00000           0.618674           16.83499

  Highest occupied state (VBM) at     -8.64409276 eV
  | Occupation number:      2.00000000

  Lowest unoccupied state (CBM) at    -3.46040799 eV
  | Occupation number:      0.00000000

  Overall HOMO-LUMO gap:      5.18368477 eV.

  Total energy components:
  | Sum of eigenvalues            :        -185.42579388 Ha       -5045.69257343 eV
  | XC energy correction          :         -42.11742583 Ha       -1146.07346829 eV
  | XC potential correction       :          54.14758714 Ha        1473.43081328 eV
  | Free-atom electrostatic energy:        -146.85987307 Ha       -3996.26047366 eV
  | Hartree energy correction     :          -3.31773130 Ha         -90.28006196 eV
  | vdW energy correction         :           0.00000000 Ha           0.00000000 eV
  | Entropy correction            :           0.00000000 Ha           0.00000000 eV
  | ---------------------------
  | Total energy                  :        -323.57323693 Ha       -8804.87576405 eV
  | Total energy, T -> 0          :        -323.57323693 Ha       -8804.87576405 eV  <-- do not rely on this value for anything but (periodic) metals
  | Electronic free energy        :        -323.57323693 Ha       -8804.87576405 eV

  Derived energy quantities:
  | Kinetic energy                :         322.29723964 Ha        8770.15411119 eV
  | Electrostatic energy          :        -603.75305075 Ha      -16428.95640695 eV
  | Energy correction for multipole
  | error in Hartree potential    :           0.01176417 Ha           0.32011924 eV
  | Sum of eigenvalues per atom                           :        -388.13019796 eV
  | Total energy (T->0) per atom                          :        -677.29813570 eV  <-- do not rely on this value for anything but (periodic) metals
  | Electronic free energy per atom                       :        -677.29813570 eV

  Self-consistency convergence accuracy:
  | Change of charge density      :  0.5892E+00
  | Change of sum of eigenvalues  :  0.9259E+02 eV
  | Change of total energy        :  0.5002E+01 eV

  End self-consistency iteration #     1       :  max(cpu_time)    wall_clock(cpu1)
  | Time for this iteration                    :        1.181 s           1.184 s
  | Charge density update                      :        0.391 s           0.392 s
  | Density mixing                             :        0.005 s           0.006 s
  | Hartree multipole update                   :        0.009 s           0.008 s
  | Hartree multipole summation                :        0.283 s           0.285 s
  | Integration                                :        0.490 s           0.491 s
  | Solution of K.-S. eqns.                    :        0.002 s           0.002 s
  | Total energy evaluation                    :        0.000 s           0.000 s

  Partial memory accounting:
  | Current value for overall tracked memory usage on task 0  :           0.165 MB
  | Peak value for overall tracked memory usage on task 0     :           0.691 MB after allocating gradient_basis_wave
  | Largest tracked array allocation on task 0 so far         :           0.394 MB  when allocating gradient_basis_wave
  Note:  These values currently only include a subset of arrays which are explicitly tracked.
  The "true" memory usage will be greater.
------------------------------------------------------------

------------------------------------------------------------
          Begin self-consistency iteration #    2

  Date     :  20200815, Time     :  004310.336
------------------------------------------------------------
  Evaluating new KS density.
  Integration grid: deviation in total charge (<rho> - N_e) =   1.421085E-14
  Pulay mixing of updated and previous charge densities.

  Evaluating partitioned Hartree potential by multipole expansion.
  | Analytical far-field extrapolation by fixed multipoles:
  | Hartree multipole sum: apparent total charge =  -0.413504E-03
  Summing up the Hartree potential.
  Time summed over all CPUs for potential: real work        0.282 s, elapsed        0.282 s
  | RMS charge density error from multipole expansion :   0.139983E-01

  Integrating Hamiltonian matrix: batch-based integration.
  Time summed over all CPUs for integration: real work        0.490 s, elapsed        0.490 s

  Updating Kohn-Sham eigenvalues and eigenvectors using ELSI and the ELPA eigensolver.
  Finished Cholesky decomposition
  | Time :     0.000 s
  Finished transformation to standard eigenproblem
  | Time :     0.000 s
  Starting LAPACK eigensolver
  Finished solving standard eigenproblem
  | Time :     0.001 s
  Finished back-transformation of eigenvectors
  | Time :     0.000 s

  Obtaining occupation numbers and chemical potential using ELSI.
  | Chemical potential (Fermi level):    -2.58006191eV
  Highest occupied state (VBM) at     -6.60416597 eV
  | Occupation number:      2.00000000

  Lowest unoccupied state (CBM) at    -2.25522815 eV
  | Occupation number:      0.00000000

  Overall HOMO-LUMO gap:      4.34893782 eV.

  Checking to see if s.c.f. parameters should be adjusted.

  Total energy components:
  | Sum of eigenvalues            :        -181.87036724 Ha       -4948.94449216 eV
  | XC energy correction          :         -42.47558488 Ha       -1155.81947198 eV
  | XC potential correction       :          54.61186525 Ha        1486.06446358 eV
  | Free-atom electrostatic energy:        -146.85987307 Ha       -3996.26047366 eV
  | Hartree energy correction     :          -6.90000740 Ha        -187.75875437 eV
  | vdW energy correction         :           0.00000000 Ha           0.00000000 eV
  | Entropy correction            :           0.00000000 Ha           0.00000000 eV
  | ---------------------------
  | Total energy                  :        -323.49396734 Ha       -8802.71872859 eV
  | Total energy, T -> 0          :        -323.49396734 Ha       -8802.71872859 eV  <-- do not rely on this value for anything but (periodic) metals
  | Electronic free energy        :        -323.49396734 Ha       -8802.71872859 eV

  Derived energy quantities:
  | Kinetic energy                :         323.60932397 Ha        8805.85774228 eV
  | Electrostatic energy          :        -604.62770643 Ha      -16452.75699890 eV
  | Energy correction for multipole
  | error in Hartree potential    :           0.02581400 Ha           0.70243478 eV
  | Sum of eigenvalues per atom                           :        -380.68803786 eV
  | Total energy (T->0) per atom                          :        -677.13220989 eV  <-- do not rely on this value for anything but (periodic) metals
  | Electronic free energy per atom                       :        -677.13220989 eV

  Self-consistency convergence accuracy:
  | Change of charge density      :  0.3687E+00
  | Change of sum of eigenvalues  :  0.9675E+02 eV
  | Change of total energy        :  0.2157E+01 eV

  End self-consistency iteration #     2       :  max(cpu_time)    wall_clock(cpu1)
  | Time for this iteration                    :        1.174 s           1.175 s
  | Charge density update                      :        0.384 s           0.385 s
  | Density mixing                             :        0.007 s           0.006 s
  | Hartree multipole update                   :        0.009 s           0.009 s
  | Hartree multipole summation                :        0.282 s           0.282 s
  | Integration                                :        0.490 s           0.491 s
  | Solution of K.-S. eqns.                    :        0.002 s           0.002 s
  | Total energy evaluation                    :        0.000 s           0.000 s

  Partial memory accounting:
  | Current value for overall tracked memory usage on task 0  :           0.166 MB
  | Peak value for overall tracked memory usage on task 0     :           0.691 MB after allocating gradient_basis_wave
  | Largest tracked array allocation on task 0 so far         :           0.394 MB  when allocating gradient_basis_wave
  Note:  These values currently only include a subset of arrays which are explicitly tracked.
  The "true" memory usage will be greater.
------------------------------------------------------------

------------------------------------------------------------
          Begin self-consistency iteration #    3

  Date     :  20200815, Time     :  004311.512
------------------------------------------------------------
  Evaluating new KS density.
  Integration grid: deviation in total charge (<rho> - N_e) =   4.973799E-14
  Pulay mixing of updated and previous charge densities.

  Evaluating partitioned Hartree potential by multipole expansion.
  | Analytical far-field extrapolation by fixed multipoles:
  | Hartree multipole sum: apparent total charge =  -0.509553E-03
  Summing up the Hartree potential.
  Time summed over all CPUs for potential: real work        0.282 s, elapsed        0.282 s
  | RMS charge density error from multipole expansion :   0.219083E-01

  Integrating Hamiltonian matrix: batch-based integration.
  Time summed over all CPUs for integration: real work        0.491 s, elapsed        0.491 s

  Updating Kohn-Sham eigenvalues and eigenvectors using ELSI and the ELPA eigensolver.
  Finished Cholesky decomposition
  | Time :     0.000 s
  Finished transformation to standard eigenproblem
  | Time :     0.000 s
  Starting LAPACK eigensolver
  Finished solving standard eigenproblem
  | Time :     0.001 s
  Finished back-transformation of eigenvectors
  | Time :     0.000 s

  Obtaining occupation numbers and chemical potential using ELSI.
  | Chemical potential (Fermi level):    -1.86650090eV
  Highest occupied state (VBM) at     -5.91253743 eV
  | Occupation number:      2.00000000

  Lowest unoccupied state (CBM) at    -1.59884171 eV
  | Occupation number:      0.00000000

  Overall HOMO-LUMO gap:      4.31369572 eV.

  Total energy components:
  | Sum of eigenvalues            :        -180.57340438 Ha       -4913.65233703 eV
  | XC energy correction          :         -42.62623670 Ha       -1159.91891675 eV
  | XC potential correction       :          54.80404814 Ha        1491.29402619 eV
  | Free-atom electrostatic energy:        -146.85987307 Ha       -3996.26047366 eV
  | Hartree energy correction     :          -8.22553046 Ha        -223.82807219 eV
  | vdW energy correction         :           0.00000000 Ha           0.00000000 eV
  | Entropy correction            :          -0.00000000 Ha          -0.00000000 eV
  | ---------------------------
  | Total energy                  :        -323.48099647 Ha       -8802.36577343 eV
  | Total energy, T -> 0          :        -323.48099647 Ha       -8802.36577343 eV  <-- do not rely on this value for anything but (periodic) metals
  | Electronic free energy        :        -323.48099647 Ha       -8802.36577343 eV

  Derived energy quantities:
  | Kinetic energy                :         323.21404154 Ha        8795.10156022 eV
  | Electrostatic energy          :        -604.06880131 Ha      -16437.54841690 eV
  | Energy correction for multipole
  | error in Hartree potential    :           0.03639248 Ha           0.99028989 eV
  | Sum of eigenvalues per atom                           :        -377.97325669 eV
  | Total energy (T->0) per atom                          :        -677.10505949 eV  <-- do not rely on this value for anything but (periodic) metals
  | Electronic free energy per atom                       :        -677.10505949 eV

  Self-consistency convergence accuracy:
  | Change of charge density      :  0.2068E+00
  | Change of sum of eigenvalues  :  0.3529E+02 eV
  | Change of total energy        :  0.3530E+00 eV

  End self-consistency iteration #     3       :  max(cpu_time)    wall_clock(cpu1)
  | Time for this iteration                    :        1.177 s           1.178 s
  | Charge density update                      :        0.385 s           0.385 s
  | Density mixing                             :        0.008 s           0.008 s
  | Hartree multipole update                   :        0.009 s           0.009 s
  | Hartree multipole summation                :        0.282 s           0.282 s
  | Integration                                :        0.491 s           0.491 s
  | Solution of K.-S. eqns.                    :        0.002 s           0.002 s
  | Total energy evaluation                    :        0.000 s           0.001 s

  Partial memory accounting:
  | Current value for overall tracked memory usage on task 0  :           0.166 MB
  | Peak value for overall tracked memory usage on task 0     :           0.692 MB after allocating gradient_basis_wave
  | Largest tracked array allocation on task 0 so far         :           0.394 MB  when allocating gradient_basis_wave
  Note:  These values currently only include a subset of arrays which are explicitly tracked.
  The "true" memory usage will be greater.
------------------------------------------------------------

------------------------------------------------------------
          Begin self-consistency iteration #    4

  Date     :  20200815, Time     :  004312.693
------------------------------------------------------------
  Evaluating new KS density.
  Integration grid: deviation in total charge (<rho> - N_e) =   2.842171E-14
  Pulay mixing of updated and previous charge densities.

  Evaluating partitioned Hartree potential by multipole expansion.
  | Analytical far-field extrapolation by fixed multipoles:
  | Hartree multipole sum: apparent total charge =  -0.542782E-03
  Summing up the Hartree potential.
  Time summed over all CPUs for potential: real work        0.282 s, elapsed        0.282 s
  | RMS charge density error from multipole expansion :   0.254357E-01

  Integrating Hamiltonian matrix: batch-based integration.
  Time summed over all CPUs for integration: real work        0.490 s, elapsed        0.490 s

  Updating Kohn-Sham eigenvalues and eigenvectors using ELSI and the ELPA eigensolver.
  Finished Cholesky decomposition
  | Time :     0.000 s
  Finished transformation to standard eigenproblem
  | Time :     0.000 s
  Starting LAPACK eigensolver
  Finished solving standard eigenproblem
  | Time :     0.001 s
  Finished back-transformation of eigenvectors
  | Time :     0.000 s

  Obtaining occupation numbers and chemical potential using ELSI.
  | Chemical potential (Fermi level):    -1.76991741eV
  Highest occupied state (VBM) at     -5.77993340 eV
  | Occupation number:      2.00000000

  Lowest unoccupied state (CBM) at    -1.49661809 eV
  | Occupation number:      0.00000000

  Overall HOMO-LUMO gap:      4.28331531 eV.

  Total energy components:
  | Sum of eigenvalues            :        -180.43095291 Ha       -4909.77603529 eV
  | XC energy correction          :         -42.66462322 Ha       -1160.96346704 eV
  | XC potential correction       :          54.85230523 Ha        1492.60716840 eV
  | Free-atom electrostatic energy:        -146.85987307 Ha       -3996.26047366 eV
  | Hartree energy correction     :          -8.37680828 Ha        -227.94455088 eV
  | vdW energy correction         :           0.00000000 Ha           0.00000000 eV
  | Entropy correction            :           0.00000000 Ha           0.00000000 eV
  | ---------------------------
  | Total energy                  :        -323.47995224 Ha       -8802.33735846 eV
  | Total energy, T -> 0          :        -323.47995224 Ha       -8802.33735846 eV  <-- do not rely on this value for anything but (periodic) metals
  | Electronic free energy        :        -323.47995224 Ha       -8802.33735846 eV

  Derived energy quantities:
  | Kinetic energy                :         322.81044274 Ha        8784.11907790 eV
  | Electrostatic energy          :        -603.62577175 Ha      -16425.49296933 eV
  | Energy correction for multipole
  | error in Hartree potential    :           0.04063711 Ha           1.10579205 eV
  | Sum of eigenvalues per atom                           :        -377.67507964 eV
  | Total energy (T->0) per atom                          :        -677.10287373 eV  <-- do not rely on this value for anything but (periodic) metals
  | Electronic free energy per atom                       :        -677.10287373 eV

  Self-consistency convergence accuracy:
  | Change of charge density      :  0.6869E-01
  | Change of sum of eigenvalues  :  0.3876E+01 eV
  | Change of total energy        :  0.2841E-01 eV

  End self-consistency iteration #     4       :  max(cpu_time)    wall_clock(cpu1)
  | Time for this iteration                    :        1.177 s           1.178 s
  | Charge density update                      :        0.384 s           0.384 s
  | Density mixing                             :        0.009 s           0.009 s
  | Hartree multipole update                   :        0.009 s           0.009 s
  | Hartree multipole summation                :        0.282 s           0.283 s
  | Integration                                :        0.490 s           0.490 s
  | Solution of K.-S. eqns.                    :        0.002 s           0.002 s
  | Total energy evaluation                    :        0.000 s           0.000 s

  Partial memory accounting:
  | Current value for overall tracked memory usage on task 0  :           0.166 MB
  | Peak value for overall tracked memory usage on task 0     :           0.692 MB after allocating gradient_basis_wave
  | Largest tracked array allocation on task 0 so far         :           0.394 MB  when allocating gradient_basis_wave
  Note:  These values currently only include a subset of arrays which are explicitly tracked.
  The "true" memory usage will be greater.
------------------------------------------------------------

------------------------------------------------------------
          Begin self-consistency iteration #    5

  Date     :  20200815, Time     :  004313.874
------------------------------------------------------------
  Evaluating new KS density.
  Integration grid: deviation in total charge (<rho> - N_e) =   7.105427E-15
  Pulay mixing of updated and previous charge densities.

  Evaluating partitioned Hartree potential by multipole expansion.
  | Analytical far-field extrapolation by fixed multipoles:
  | Hartree multipole sum: apparent total charge =  -0.536548E-03
  Summing up the Hartree potential.
  Time summed over all CPUs for potential: real work        0.282 s, elapsed        0.282 s
  | RMS charge density error from multipole expansion :   0.252095E-01

  Integrating Hamiltonian matrix: batch-based integration.
  Time summed over all CPUs for integration: real work        0.490 s, elapsed        0.490 s

  Updating Kohn-Sham eigenvalues and eigenvectors using ELSI and the ELPA eigensolver.
  Finished Cholesky decomposition
  | Time :     0.000 s
  Finished transformation to standard eigenproblem
  | Time :     0.000 s
  Starting LAPACK eigensolver
  Finished solving standard eigenproblem
  | Time :     0.001 s
  Finished back-transformation of eigenvectors
  | Time :     0.000 s

  Obtaining occupation numbers and chemical potential using ELSI.
  | Chemical potential (Fermi level):    -1.84715031eV
  Highest occupied state (VBM) at     -5.85448084 eV
  | Occupation number:      2.00000000

  Lowest unoccupied state (CBM) at    -1.59389824 eV
  | Occupation number:      0.00000000

  Overall HOMO-LUMO gap:      4.26058261 eV.

  Total energy components:
  | Sum of eigenvalues            :        -180.63911823 Ha       -4915.44050195 eV
  | XC energy correction          :         -42.63913049 Ha       -1160.26977441 eV
  | XC potential correction       :          54.81922670 Ha        1491.70705577 eV
  | Free-atom electrostatic energy:        -146.85987307 Ha       -3996.26047366 eV
  | Hartree energy correction     :          -8.16077529 Ha        -222.06599411 eV
  | vdW energy correction         :           0.00000000 Ha           0.00000000 eV
  | Entropy correction            :          -0.00000000 Ha          -0.00000000 eV
  | ---------------------------
  | Total energy                  :        -323.47967037 Ha       -8802.32968835 eV
  | Total energy, T -> 0          :        -323.47967037 Ha       -8802.32968835 eV  <-- do not rely on this value for anything but (periodic) metals
  | Electronic free energy        :        -323.47967037 Ha       -8802.32968835 eV

  Derived energy quantities:
  | Kinetic energy                :         322.68504096 Ha        8780.70672184 eV
  | Electrostatic energy          :        -603.52558084 Ha      -16422.76663578 eV
  | Energy correction for multipole
  | error in Hartree potential    :           0.04001541 Ha           1.08887466 eV
  | Sum of eigenvalues per atom                           :        -378.11080784 eV
  | Total energy (T->0) per atom                          :        -677.10228372 eV  <-- do not rely on this value for anything but (periodic) metals
  | Electronic free energy per atom                       :        -677.10228372 eV

  Self-consistency convergence accuracy:
  | Change of charge density      :  0.2030E-01
  | Change of sum of eigenvalues  : -0.5664E+01 eV
  | Change of total energy        :  0.7670E-02 eV

  End self-consistency iteration #     5       :  max(cpu_time)    wall_clock(cpu1)
  | Time for this iteration                    :        1.178 s           1.179 s
  | Charge density update                      :        0.384 s           0.384 s
  | Density mixing                             :        0.011 s           0.011 s
  | Hartree multipole update                   :        0.009 s           0.009 s
  | Hartree multipole summation                :        0.282 s           0.282 s
  | Integration                                :        0.490 s           0.490 s
  | Solution of K.-S. eqns.                    :        0.002 s           0.002 s
  | Total energy evaluation                    :        0.000 s           0.001 s

  Partial memory accounting:
  | Current value for overall tracked memory usage on task 0  :           0.166 MB
  | Peak value for overall tracked memory usage on task 0     :           0.692 MB after allocating gradient_basis_wave
  | Largest tracked array allocation on task 0 so far         :           0.394 MB  when allocating gradient_basis_wave
  Note:  These values currently only include a subset of arrays which are explicitly tracked.
  The "true" memory usage will be greater.
------------------------------------------------------------

------------------------------------------------------------
          Begin self-consistency iteration #    6

  Date     :  20200815, Time     :  004315.056
------------------------------------------------------------
  Evaluating new KS density.
  Integration grid: deviation in total charge (<rho> - N_e) =   0.000000E+00
  Pulay mixing of updated and previous charge densities.

  Evaluating partitioned Hartree potential by multipole expansion.
  | Analytical far-field extrapolation by fixed multipoles:
  | Hartree multipole sum: apparent total charge =  -0.540947E-03
  Summing up the Hartree potential.
  Time summed over all CPUs for potential: real work        0.284 s, elapsed        0.284 s
  | RMS charge density error from multipole expansion :   0.256825E-01

  Integrating Hamiltonian matrix: batch-based integration.
  Time summed over all CPUs for integration: real work        0.490 s, elapsed        0.490 s

  Updating Kohn-Sham eigenvalues and eigenvectors using ELSI and the ELPA eigensolver.
  Finished Cholesky decomposition
  | Time :     0.000 s
  Finished transformation to standard eigenproblem
  | Time :     0.000 s
  Starting LAPACK eigensolver
  Finished solving standard eigenproblem
  | Time :     0.001 s
  Finished back-transformation of eigenvectors
  | Time :     0.000 s

  Obtaining occupation numbers and chemical potential using ELSI.
  | Chemical potential (Fermi level):    -1.84210766eV
  Highest occupied state (VBM) at     -5.80994119 eV
  | Occupation number:      2.00000000

  Lowest unoccupied state (CBM) at    -1.59655172 eV
  | Occupation number:      0.00000000

  Overall HOMO-LUMO gap:      4.21338947 eV.

  Total energy components:
  | Sum of eigenvalues            :        -180.61450186 Ha       -4914.77065629 eV
  | XC energy correction          :         -42.64147816 Ha       -1160.33365792 eV
  | XC potential correction       :          54.82224558 Ha        1491.78920364 eV
  | Free-atom electrostatic energy:        -146.85987307 Ha       -3996.26047366 eV
  | Hartree energy correction     :          -8.18602272 Ha        -222.75301166 eV
  | vdW energy correction         :           0.00000000 Ha           0.00000000 eV
  | Entropy correction            :          -0.00000000 Ha          -0.00000000 eV
  | ---------------------------
  | Total energy                  :        -323.47963022 Ha       -8802.32859588 eV
  | Total energy, T -> 0          :        -323.47963022 Ha       -8802.32859588 eV  <-- do not rely on this value for anything but (periodic) metals
  | Electronic free energy        :        -323.47963022 Ha       -8802.32859588 eV

  Derived energy quantities:
  | Kinetic energy                :         322.61816869 Ha        8778.88703479 eV
  | Electrostatic energy          :        -603.45632075 Ha      -16420.88197276 eV
  | Energy correction for multipole
  | error in Hartree potential    :           0.04048071 Ha           1.10153624 eV
  | Sum of eigenvalues per atom                           :        -378.05928125 eV
  | Total energy (T->0) per atom                          :        -677.10219968 eV  <-- do not rely on this value for anything but (periodic) metals
  | Electronic free energy per atom                       :        -677.10219968 eV

  Self-consistency convergence accuracy:
  | Change of charge density      :  0.1066E-01
  | Change of sum of eigenvalues  :  0.6698E+00 eV
  | Change of total energy        :  0.1092E-02 eV

  End self-consistency iteration #     6       :  max(cpu_time)    wall_clock(cpu1)
  | Time for this iteration                    :        1.179 s           1.182 s
  | Charge density update                      :        0.384 s           0.384 s
  | Density mixing                             :        0.012 s           0.012 s
  | Hartree multipole update                   :        0.009 s           0.009 s
  | Hartree multipole summation                :        0.282 s           0.285 s
  | Integration                                :        0.490 s           0.490 s
  | Solution of K.-S. eqns.                    :        0.002 s           0.002 s
  | Total energy evaluation                    :        0.000 s           0.000 s

  Partial memory accounting:
  | Current value for overall tracked memory usage on task 0  :           0.166 MB
  | Peak value for overall tracked memory usage on task 0     :           0.692 MB after allocating gradient_basis_wave
  | Largest tracked array allocation on task 0 so far         :           0.394 MB  when allocating gradient_basis_wave
  Note:  These values currently only include a subset of arrays which are explicitly tracked.
  The "true" memory usage will be greater.
------------------------------------------------------------

------------------------------------------------------------
          Begin self-consistency iteration #    7

  Date     :  20200815, Time     :  004316.241
------------------------------------------------------------
  Evaluating new KS density.
  Integration grid: deviation in total charge (<rho> - N_e) =   5.684342E-14
  Pulay mixing of updated and previous charge densities.

  Evaluating partitioned Hartree potential by multipole expansion.
  | Analytical far-field extrapolation by fixed multipoles:
  | Hartree multipole sum: apparent total charge =  -0.541348E-03
  Summing up the Hartree potential.
  Time summed over all CPUs for potential: real work        0.281 s, elapsed        0.281 s
  | RMS charge density error from multipole expansion :   0.257672E-01

  Integrating Hamiltonian matrix: batch-based integration.
  Time summed over all CPUs for integration: real work        0.490 s, elapsed        0.490 s

  Updating Kohn-Sham eigenvalues and eigenvectors using ELSI and the ELPA eigensolver.
  Finished Cholesky decomposition
  | Time :     0.000 s
  Finished transformation to standard eigenproblem
  | Time :     0.000 s
  Starting LAPACK eigensolver
  Finished solving standard eigenproblem
  | Time :     0.002 s
  Finished back-transformation of eigenvectors
  | Time :     0.000 s

[...]
  |   Hirshfeld dipole moment :      0.05595385
  |   Hirshfeld second moments:      0.01682551      -0.03212331      -0.01868376
  |                                 -0.03212331      -0.02044779       0.00717547
  |                                 -0.01868376       0.00717547      -0.01494863
  ----------------------------------------------------------------------
  | Atom    12: O
  |   Hirshfeld charge        :     -0.16287469
  |   Free atom volume        :     23.61338643
  |   Hirshfeld volume        :     20.89060190
  |   Hirshfeld dipole vector :      0.03408985       0.02848130      -0.00591645
  |   Hirshfeld dipole moment :      0.04481414
  |   Hirshfeld second moments:      0.05678447      -0.02741198      -0.01425062
  |                                 -0.02741198       0.06313246       0.03804404
  |                                 -0.01425062       0.03804404       0.05227513
  ----------------------------------------------------------------------
  | Atom    13: H
  |   Hirshfeld charge        :      0.18624243
  |   Free atom volume        :      9.95071624
  |   Hirshfeld volume        :      6.24515505
  |   Hirshfeld dipole vector :      0.08670412      -0.06466755      -0.06517897
  |   Hirshfeld dipole moment :      0.12628458
  |   Hirshfeld second moments:      0.12082129      -0.00571928       0.00719118
  |                                 -0.00571928       0.11715536       0.01477814
  |                                  0.00719118       0.01477814       0.10399937
  ----------------------------------------------------------------------


  Total energy components:
  | Sum of eigenvalues            :        -180.61822385 Ha       -4914.87193685 eV
  | XC energy correction          :         -42.63775096 Ha       -1160.23223548 eV
  | XC potential correction       :          54.81750645 Ha        1491.66024543 eV
  | Free-atom electrostatic energy:        -146.85987307 Ha       -3996.26047366 eV
  | Hartree energy correction     :          -8.18126364 Ha        -222.62351066 eV
  | vdW energy correction         :          -0.00321909 Ha          -0.08759601 eV
  | Entropy correction            :          -0.00000000 Ha          -0.00000000 eV
  | ---------------------------
  | Total energy                  :        -323.48282415 Ha       -8802.41550722 eV
  | Total energy, T -> 0          :        -323.48282415 Ha       -8802.41550722 eV  <-- do not rely on this value for anything but (periodic) metals
  | Electronic free energy        :        -323.48282415 Ha       -8802.41550722 eV

  Derived energy quantities:
  | Kinetic energy                :         322.58020668 Ha        8777.85403618 eV
  | Electrostatic energy          :        -603.42206079 Ha      -16419.94971192 eV
  | Energy correction for multipole
  | error in Hartree potential    :           0.04050443 Ha           1.10218153 eV
  | Sum of eigenvalues per atom                           :        -378.06707207 eV
  | Total energy (T->0) per atom                          :        -677.10888517 eV  <-- do not rely on this value for anything but (periodic) metals
  | Electronic free energy per atom                       :        -677.10888517 eV

  atomic forces [eV/Ang]:
  -----------------------
  atom #    1
   Hellmann-Feynman              :  0.216266E+00  0.617371E+00  0.124762E+01
   Ionic forces                  :  0.000000E+00  0.000000E+00  0.000000E+00
   Multipole                     :  0.188195E-02  0.305419E+00 -0.296279E+00
   Pulay + GGA                   : -0.869851E+00 -0.299306E+00 -0.141540E+01
   Van der Waals                 :  0.255184E-02  0.469808E-02 -0.689353E-03
   ----------------------------------------------------------------
   Total forces(   1)            : -0.649152E+00  0.628182E+00 -0.464751E+00
  atom #    2
   Hellmann-Feynman              :  0.336990E+00  0.560322E-01 -0.268051E-01
   Ionic forces                  :  0.000000E+00  0.000000E+00  0.000000E+00
   Multipole                     :  0.168409E+00  0.598010E-02 -0.304965E-01
   Pulay + GGA                   : -0.148168E+00  0.670928E-02  0.929706E-02
   Van der Waals                 :  0.480941E-02 -0.828356E-02 -0.551824E-02
   ----------------------------------------------------------------
   Total forces(   2)            :  0.362041E+00  0.604381E-01 -0.535228E-01
  atom #    3
   Hellmann-Feynman              :  0.640235E+01 -0.859639E+01 -0.503576E+01
   Ionic forces                  :  0.000000E+00  0.000000E+00  0.000000E+00
   Multipole                     : -0.195449E+00  0.108603E+00 -0.980830E+00
   Pulay + GGA                   : -0.558563E+01  0.768776E+01  0.650589E+01
   Van der Waals                 :  0.325832E-02  0.782859E-03 -0.104815E-01
   ----------------------------------------------------------------
   Total forces(   3)            :  0.624526E+00 -0.799249E+00  0.478819E+00
  atom #    4
   Hellmann-Feynman              : -0.230880E+00  0.247877E+00 -0.247777E-01
   Ionic forces                  :  0.000000E+00  0.000000E+00  0.000000E+00
   Multipole                     : -0.942416E-01 -0.987821E-02 -0.557897E-01
   Pulay + GGA                   :  0.233868E+00 -0.374960E-01 -0.294051E-01
   Van der Waals                 : -0.237511E-02  0.236221E-02 -0.101698E-01
   ----------------------------------------------------------------
   Total forces(   4)            : -0.936291E-01  0.202865E+00 -0.120142E+00
  atom #    5
   Hellmann-Feynman              : -0.127632E+00  0.255914E+00 -0.395124E-01
   Ionic forces                  :  0.000000E+00  0.000000E+00  0.000000E+00
   Multipole                     : -0.441027E-01  0.595105E-01 -0.699193E-01
   Pulay + GGA                   :  0.264253E-01 -0.246024E+00  0.331926E-01
   Van der Waals                 : -0.418382E-02 -0.594315E-02 -0.402231E-02
   ----------------------------------------------------------------
   Total forces(   5)            : -0.149493E+00  0.634571E-01 -0.802615E-01
  atom #    6
   Hellmann-Feynman              :  0.195239E+00 -0.855168E+00  0.748969E+00
   Ionic forces                  :  0.000000E+00  0.000000E+00  0.000000E+00
   Multipole                     : -0.108838E+00  0.607175E+00  0.198140E+00
   Pulay + GGA                   :  0.146723E+00 -0.169294E+00 -0.504782E+00
   Van der Waals                 : -0.447287E-03  0.104539E-01  0.643517E-02
   ----------------------------------------------------------------
   Total forces(   6)            :  0.232677E+00 -0.406833E+00  0.448762E+00
  atom #    7
   Hellmann-Feynman              : -0.221880E+00 -0.560172E-01 -0.429095E-01
   Ionic forces                  :  0.000000E+00  0.000000E+00  0.000000E+00
   Multipole                     : -0.119895E+00  0.484533E-01  0.308940E-01
   Pulay + GGA                   :  0.113465E+00  0.706109E-02  0.805969E-02
   Van der Waals                 : -0.198095E-02  0.481379E-02  0.664433E-02
   ----------------------------------------------------------------
   Total forces(   7)            : -0.230291E+00  0.431093E-02  0.268853E-02
  atom #    8
   Hellmann-Feynman              :  0.713438E-01  0.640752E-01  0.232555E+00
   Ionic forces                  :  0.000000E+00  0.000000E+00  0.000000E+00
   Multipole                     :  0.157041E-01  0.616060E-01  0.125058E+00
   Pulay + GGA                   : -0.462965E-01 -0.419598E-01 -0.103368E+00
   Van der Waals                 : -0.286441E-02  0.114218E-01  0.546750E-03
   ----------------------------------------------------------------
   Total forces(   8)            :  0.378869E-01  0.951432E-01  0.254791E+00
  atom #    9
   Hellmann-Feynman              :  0.116355E+00  0.493452E-01 -0.198654E+00
   Ionic forces                  :  0.000000E+00  0.000000E+00  0.000000E+00
   Multipole                     :  0.212031E-01  0.131435E+00 -0.621333E-02
   Pulay + GGA                   : -0.382690E-01 -0.662532E-01  0.801782E-01
   Van der Waals                 : -0.244177E-02  0.553579E-02  0.773751E-02
   ----------------------------------------------------------------
   Total forces(   9)            :  0.968472E-01  0.120063E+00 -0.116952E+00
  atom #   10
   Hellmann-Feynman              :  0.349943E+01  0.496129E+01  0.177535E+01
   Ionic forces                  :  0.000000E+00  0.000000E+00  0.000000E+00
   Multipole                     : -0.630806E-02 -0.668671E-01  0.353578E+00
   Pulay + GGA                   : -0.218506E+01 -0.256431E+01  0.383937E-01
   Van der Waals                 :  0.429723E-02 -0.112136E-01 -0.804143E-03
   ----------------------------------------------------------------
   Total forces(  10)            :  0.131235E+01  0.231890E+01  0.216651E+01
  atom #   11
   Hellmann-Feynman              :  0.412820E+01 -0.240975E+01  0.136188E+02
   Ionic forces                  :  0.000000E+00  0.000000E+00  0.000000E+00
   Multipole                     :  0.309193E-01 -0.594940E+00  0.780889E+00
   Pulay + GGA                   : -0.355962E+01  0.389994E+01 -0.134238E+02
   Van der Waals                 : -0.347481E-02 -0.103463E-01  0.554409E-02
   ----------------------------------------------------------------
   Total forces(  11)            :  0.596031E+00  0.884906E+00  0.981497E+00
  atom #   12
   Hellmann-Feynman              : -0.146828E+02 -0.474723E+01 -0.164206E+01
   Ionic forces                  :  0.000000E+00  0.000000E+00  0.000000E+00
   Multipole                     : -0.104155E+01 -0.132927E+01 -0.190375E+00
   Pulay + GGA                   :  0.140532E+02  0.361197E+01 -0.593778E+00
   Van der Waals                 :  0.104573E-02  0.510668E-02  0.511463E-02
   ----------------------------------------------------------------
   Total forces(  12)            : -0.167015E+01 -0.245942E+01 -0.242110E+01
  atom #   13
   Hellmann-Feynman              : -0.183926E+00 -0.808931E+00 -0.127754E+01
   Ionic forces                  :  0.000000E+00  0.000000E+00  0.000000E+00
   Multipole                     :  0.475803E-01 -0.360762E-01 -0.203890E-01
   Pulay + GGA                   : -0.334092E+00  0.139816E+00  0.216484E+00
   Van der Waals                 :  0.180561E-02 -0.938860E-02 -0.337149E-03
   ----------------------------------------------------------------
   Total forces(  13)            : -0.468633E+00 -0.714580E+00 -0.108179E+01

  Timings for VdW correction (Tkatchenko-Scheffler 2009 or later):
  | CPU time:        0.090 s, Wall clock time:        0.090 s.
  Removing unitary transformations (pure translations, rotations) from forces on atoms.
  Atomic forces before filtering:
  | Net force on center of mass :   0.101255E-02 -0.182194E-02 -0.544818E-02 eV/A
  | Net torque on center of mass:   0.301165E-02  0.157636E-02  0.614782E-02 eV
  Atomic forces after filtering:
  | Net force on center of mass :  -0.267609E-15  0.892031E-16 -0.178406E-15 eV/A
  | Net torque on center of mass:   0.127451E-14  0.106210E-15  0.000000E+00 eV

  Energy and forces in a compact form:
  | Total energy uncorrected      :         -0.880241550722235E+04 eV
  | Total energy corrected        :         -0.880241550722235E+04 eV  <-- do not rely on this value for anything but (periodic) metals
  | Electronic free energy        :         -0.880241550722235E+04 eV
  Total atomic forces (unitary forces cleaned) [eV/Ang]:
  |   1         -0.649209453716865E+00          0.628228156426150E+00         -0.464303144574710E+00
  |   2          0.361983241622642E+00          0.602624439165027E-01         -0.529861096826882E-01
  |   3          0.624582854853890E+00         -0.799221471889465E+00          0.479228542316716E+00
  |   4         -0.936301994670678E-01          0.203089938601625E+00         -0.119788158516995E+00
  |   5         -0.149214488094579E+00          0.634342809982439E-01         -0.799223706195839E-01
  |   6          0.232816745203635E+00         -0.406626168289088E+00          0.449066001579696E+00
  |   7         -0.230147120985226E+00          0.474129507007893E-02          0.290162592116201E-02
  |   8          0.379457591869593E-01          0.953620923215105E-01          0.255123113328375E+00
  |   9          0.972105263629104E-01          0.120154672399284E+00         -0.116692848774159E+00
  |  10          0.131197536124592E+01          0.231908617514697E+01          0.216703516465812E+01
  |  11          0.595502958071044E+00          0.885128831154765E+00          0.982065902809657E+00
  |  12         -0.167064987375989E+01         -0.245914745758371E+01         -0.242056728541968E+01
  |  13         -0.469166310523367E+00         -0.714492788272868E+00         -0.108116043302591E+01

  ------------------------------------ 
  Start decomposition of the XC Energy 
  ------------------------------------ 
  X and C from original XC functional choice 
  Hartree-Fock Energy :          0.000000000 Ha              0.000000000 eV
  X Energy            :        -41.037193590 Ha          -1116.678853581 eV
  C Energy            :         -1.600557366 Ha            -43.553381904 eV
  Total XC Energy     :        -42.637750956 Ha          -1160.232235485 eV
  ------------------------------------ 
  LDA X and C from self-consistent density 
  X Energy LDA        :        -37.255940899 Ha          -1013.785732710 eV
  C Energy LDA        :         -3.138539703 Ha            -85.404010619 eV
  ------------------------------------ 
  End decomposition of the XC Energy 
  ------------------------------------ 

------------------------------------------------------------

------------------------------------------------------------------------------
  Final output of selected total energy values:

  The following output summarizes some interesting total energy values
  at the end of a run (AFTER all relaxation, molecular dynamics, etc.).

  | Total energy of the DFT / Hartree-Fock s.c.f. calculation      :          -8802.415507222 eV
  | Final zero-broadening corrected energy (caution - metals only) :          -8802.415507222 eV
  | For reference only, the value of 1 Hartree used in FHI-aims is :             27.211384500 eV

  Before relying on these values, please be sure to understand exactly which
  total energy value is referred to by a given number. Different objects may
  all carry the same name 'total energy'. Definitions:

  Total energy of the DFT / Hartree-Fock s.c.f. calculation:
  | Note that this energy does not include ANY quantities calculated after the
  | s.c.f. cycle, in particular not ANY RPA, MP2, etc. many-body perturbation terms.

  Final zero-broadening corrected energy:
  | For metallic systems only, a broadening of the occupation numbers at the Fermi
  | level can be extrapolated back to zero broadening by an electron-gas inspired
  | formula. For all systems that are not real metals, this value can be
  | meaningless and should be avoided.

------------------------------------------------------------------------------
  Methods described in the following list of references were used in this FHI-aims run.
  If you publish the results, please make sure to cite these reference if they apply.
  FHI-aims is an academic code, and for our developers (often, Ph.D. students
  and postdocs), scientific credit in the community is essential.
  Thank you for helping us!

  For any use of FHI-aims, please cite:

    Volker Blum, Ralf Gehrke, Felix Hanke, Paula Havu, Ville Havu,
    Xinguo Ren, Karsten Reuter, and Matthias Scheffler
    'Ab initio molecular simulations with numeric atom-centered orbitals'
    Computer Physics Communications 180, 2175-2196 (2009)
    http://dx.doi.org/10.1016/j.cpc.2009.06.022


  The scalable eigensolver library ELPA was used in your run.
  ELPA is essential especially for large systems on hundreds or thousands of CPUs.
  For ELPA, please cite:

    Andreas Marek, Volker Blum, Rainer Johanni, Ville Havu, Bruno Lang,
    Thomas Auckenthaler, Alexander Heinecke, Hans-Joachim Bungartz, and Hermann Lederer,
    'The ELPA Library - Scalable Parallel Eigenvalue Solutions
    for Electronic Structure Theory and Computational Science'
    The Journal of Physics: Condensed Matter 26, 213201 (2014).
    http://dx.doi.org/10.1088/0953-8984/26/21/213201


  The ELSI infrastructure was used in your run to solve the Kohn-Sham electronic structure.
  Please check out http://elsi-interchange.org to learn more.
  If scalability is important for your project, please acknowledge ELSI by citing:

    V. W-z. Yu, F. Corsetti, A. Garcia, W. P. Huhn, M. Jacquelin, W. Jia,
    B. Lange, L. Lin, J. Lu, W. Mi, A. Seifitokaldani, A. Vazquez-Mayagoitia,
    C. Yang, H. Yang, and V. Blum
    'ELSI: A unified software interface for Kohn-Sham electronic structure solvers'
    Computer Physics Communications 222, 267-285 (2018).
    http://dx.doi.org/10.1016/j.cpc.2017.09.007


  For the real-space grid partitioning and parallelization used in this calculation, please cite:

    Ville Havu, Volker Blum, Paula Havu, and Matthias Scheffler,
    'Efficient O(N) integration for all-electron electronic structure calculation'
    'using numerically tabulated basis functions'
    Journal of Computational Physics 228, 8367-8379 (2009).
    http://dx.doi.org/10.1016/j.jcp.2009.08.008

  Of course, there are many other important community references, e.g., those cited in the
  above references. Our list is limited to references that describe implementations in the
  FHI-aims code. The reason is purely practical (length of this list) - please credit others as well.

------------------------------------------------------------
          Leaving FHI-aims.
          Date     :  20200815, Time     :  004330.440

          Computational steps:
          | Number of self-consistency cycles          :           16
          | Number of SCF (re)initializations          :            1

          Detailed time accounting                     :  max(cpu_time)    wall_clock(cpu1)
          | Total time                                 :       22.527 s          22.603 s
          | Preparation time                           :        0.145 s           0.147 s
          | Boundary condition initalization           :        0.000 s           0.000 s
          | Grid partitioning                          :        0.110 s           0.110 s
          | Preloading free-atom quantities on grid    :        0.002 s           0.003 s
          | Free-atom superposition energy             :        0.085 s           0.084 s
          | Total time for integrations                :        8.546 s           8.561 s
          | Total time for solution of K.-S. equations :        0.035 s           0.036 s
          | Total time for density & force components  :        7.105 s           7.117 s
          | Total time for mixing                      :        0.214 s           0.216 s
          | Total time for Hartree multipole update    :        0.141 s           0.139 s
          | Total time for Hartree multipole sum       :        5.746 s           5.755 s
          | Total time for total energy evaluation     :        0.003 s           0.005 s
          | Total time for vdW correction              :        0.090 s           0.090 s

          Partial memory accounting:
          | Residual value for overall tracked memory usage across tasks :           0.000 MB (should be 0.000 MB)
          | Peak values for overall tracked memory usage (after allocating hessian_basis_wave):
          |   Minimum:        1.612 MB (on task 1)
          |   Maximum:        1.612 MB (on task 1)
          |   Average:        1.612 MB
          | Largest tracked array allocation (hessian_basis_wave):
          |   Minimum:        0.788 MB (on task 1)
          |   Maximum:        0.788 MB (on task 1)
          |   Average:        0.788 MB
          Note:  These values currently only include a subset of arrays which are explicitly tracked.
          The "true" memory usage will be greater.

          Have a nice day.
------------------------------------------------------------
