  MPI-parallelism will be employed.
------------------------------------------------------------
          Invoking FHI-aims ...
          Version 171221_1
          Compiled on 2019/09/09 at 14:39:39 on host puhti-login2.bullx.

          When using FHI-aims, please cite the following reference:

          Volker Blum, Ralf Gehrke, Felix Hanke, Paula Havu,
          Ville Havu, Xinguo Ren, Karsten Reuter, and Matthias Scheffler,
          'Ab Initio Molecular Simulations with Numeric Atom-Centered Orbitals',
          Computer Physics Communications 180, 2175-2196 (2009)

          For any questions about FHI-aims, please visit the aimsclub website
          with its forums and wiki. Contributions to both the forums and the
          wiki are warmly encouraged - they are for you, and everyone is welcome there.

------------------------------------------------------------



  Date     :  20200805, Time     :  185735.901
  Time zero on CPU 1             :   0.168020000000000E-01  s.
  Internal wall clock time zero  :           365885855.901  s.

  FHI-aims created a unique identifier for this run for later identification
  aims_uuid : 46C8D970-841F-435D-ADB5-B45A3B64A53C

  Using        1 parallel tasks.
  Task        0 on host r18c26.bullx reporting.

  Performing system and environment tests:
  | Environment variable OMP_NUM_THREADS correctly set to 1.
  | Stacksize not measured: no C compiler
  | Checking for scalapack...
  | Testing pdtran()...
  | All pdtran() tests passed.

  Obtaining array dimensions for all initial allocations:
  
  -----------------------------------------------------------------------
  Parsing control.in (first pass over file, find array dimensions only).
  The contents of control.in will be repeated verbatim below
  unless switched off by setting 'verbatim_writeout .false.' .
  in the first line of control.in .
  -----------------------------------------------------------------------
  
  #########################################################################################
  #
  #  Volker Blum, FHI 2009 : Test run input file control.in for simple H2O
  #
  #########################################################################################
  #
  #  Physical model
  #
    xc                 pbe
    vdw_correction_hirshfeld
    spin               none
    relativistic       none
    charge             0.
  #
  #  SCF convergence
  #
    occupation_type    gaussian 0.01
    mixer              pulay
      n_max_pulay        10
      charge_mix_param   0.2
    sc_accuracy_rho    1E-5
    sc_accuracy_eev    1E-3
    sc_accuracy_etot   1E-6
    sc_accuracy_forces 1E-4
    sc_iter_limit      100
  #
  #  Relaxation
  #
  #  relax_geometry   bfgs 1.e-3
  #
  ################################################################################
  #
  #  FHI-aims code project
  #  VB, Fritz-Haber Institut, 2009
  #
  #  Suggested "light" defaults for H atom (to be pasted into control.in file)
  #  Be sure to double-check any results obtained with these settings for post-processing,
  #  e.g., with the "tight" defaults and larger basis sets.
  #
  ################################################################################
    species        H
  #     global species definitions
      nucleus             1
      mass                1.00794
  #
      l_hartree           4
  #
      cut_pot             3.5  1.5  1.0
      basis_dep_cutoff    1e-4
  #
      radial_base         24 5.0
      radial_multiplier   1
      angular_grids       specified
        division   0.2421   50
        division   0.3822  110
        division   0.4799  194
        division   0.5341  302
  #      division   0.5626  434
  #      division   0.5922  590
  #      division   0.6542  770
  #      division   0.6868 1202
  #      outer_grid  770
        outer_grid  302
  ################################################################################
  #
  #  Definition of "minimal" basis
  #
  ################################################################################
  #     valence basis states
      valence      1  s   1.
  #     ion occupancy
      ion_occ      1  s   0.5
  ################################################################################
  #
  #  Suggested additional basis functions. For production calculations,
  #  uncomment them one after another (the most important basis functions are
  #  listed first).
  #
  #  Basis constructed for dimers: 0.5 A, 0.7 A, 1.0 A, 1.5 A, 2.5 A
  #
  ################################################################################
  #  "First tier" - improvements: -1014.90 meV to -62.69 meV
       hydro 2 s 2.1
       hydro 2 p 3.5
  #  "Second tier" - improvements: -12.89 meV to -1.83 meV
  #     hydro 1 s 0.85
  #     hydro 2 p 3.7
  #     hydro 2 s 1.2
  #     hydro 3 d 7
  #  "Third tier" - improvements: -0.25 meV to -0.12 meV
  #     hydro 4 f 11.2
  #     hydro 3 p 4.8
  #     hydro 4 d 9
  #     hydro 3 s 3.2
  ################################################################################
  #
  #  FHI-aims code project
  #  VB, Fritz-Haber Institut, 2009
  #
  #  Suggested "light" defaults for C atom (to be pasted into control.in file)
  #  Be sure to double-check any results obtained with these settings for post-processing,
  #  e.g., with the "tight" defaults and larger basis sets.
  #
  ################################################################################
    species        C
  #     global species definitions
      nucleus             6
      mass                12.0107
  #
      l_hartree           4
  #
      cut_pot             3.5  1.5  1.0
      basis_dep_cutoff    1e-4
  #
      radial_base         34 5.0
      radial_multiplier   1
      angular_grids specified
        division   0.3326   50
        division   0.5710  110
        division   0.7727  194
        division   0.8772  302
  #      division   0.9334  434
  #      division   0.9625  590
  #      division   0.9924  770
  #      division   1.0230  974
  #      division   1.4589 1202
  #     outer_grid  974
       outer_grid 302
  ################################################################################
  #
  #  Definition of "minimal" basis
  #
  ################################################################################
  #     valence basis states
      valence      2  s   2.
      valence      2  p   2.
  #     ion occupancy
      ion_occ      2  s   1.
      ion_occ      2  p   1.
  ################################################################################
  #
  #  Suggested additional basis functions. For production calculations,
  #  uncomment them one after another (the most important basis functions are
  #  listed first).
  #
  #  Constructed for dimers: 1.0 A, 1.25 A, 1.5 A, 2.0 A, 3.0 A
  #
  ################################################################################
  #  "First tier" - improvements: -1214.57 meV to -155.61 meV
       hydro 2 p 1.7
       hydro 3 d 6
       hydro 2 s 4.9
  #  "Second tier" - improvements: -67.75 meV to -5.23 meV
  #     hydro 4 f 9.8
  #     hydro 3 p 5.2
  #     hydro 3 s 4.3
  #     hydro 5 g 14.4
  #     hydro 3 d 6.2
  #  "Third tier" - improvements: -2.43 meV to -0.60 meV
  #     hydro 2 p 5.6
  #     hydro 2 s 1.4
  #     hydro 3 d 4.9
  #     hydro 4 f 11.2
  #  "Fourth tier" - improvements: -0.39 meV to -0.18 meV
  #     hydro 2 p 2.1
  #     hydro 5 g 16.4
  #     hydro 4 d 13.2
  #     hydro 3 s 13.6
  #     hydro 4 f 17.6
  #  Further basis functions - improvements: -0.08 meV and below
  #     hydro 3 s 2
  #     hydro 3 p 6
  #     hydro 4 d 20
  ################################################################################
  #
  #  FHI-aims code project
  #  VB, Fritz-Haber Institut, 2009
  #
  #  Suggested "light" defaults for N atom (to be pasted into control.in file)
  #  Be sure to double-check any results obtained with these settings for post-processing,
  #  e.g., with the "tight" defaults and larger basis sets.
  #
  ################################################################################
    species        N
  #     global species definitions
      nucleus             7
      mass                14.0067
  #
      l_hartree           4
  #
      cut_pot             3.5  1.5  1.0
      basis_dep_cutoff    1e-4
  #
      radial_base         35 5.0
      radial_multiplier   1
      angular_grids       specified
        division   0.2599   50
        division   0.4601  110
        division   0.5885  194
        division   0.6503  302
  #      division   0.6939  434
  #      division   0.7396  590
  #      division   0.7632  770
  #      division   0.8122  974
  #      division   1.1604 1202
  #      outer_grid  974
        outer_grid  302
  ################################################################################
  #
  #  Definition of "minimal" basis
  #
  ################################################################################
  #     valence basis states
      valence      2  s   2.
      valence      2  p   3.
  #     ion occupancy
      ion_occ      2  s   1.
      ion_occ      2  p   2.
  ################################################################################
  #
  #  Suggested additional basis functions. For production calculations,
  #  uncomment them one after another (the most important basis functions are
  #  listed first).
  #
  #  Constructed for dimers: 1.0 A, 1.1 A, 1.5 A, 2.0 A, 3.0 A
  #
  ################################################################################
  #  "First tier" - improvements: -1193.42 meV to -220.60 meV
       hydro 2 p 1.8
       hydro 3 d 6.8
       hydro 3 s 5.8
  #  "Second tier" - improvements: -80.21 meV to -6.86 meV
  #     hydro 4 f 10.8
  #     hydro 3 p 5.8
  #     hydro 1 s 0.8
  #     hydro 5 g 16
  #     hydro 3 d 4.9
  #  "Third tier" - improvements: -4.29 meV to -0.53 meV
  #     hydro 3 s 16
  #     ionic 2 p auto
  #     hydro 3 d 6.6
  #     hydro 4 f 11.6
  #  "Fourth tier" - improvements: -0.75 meV to -0.25 meV
  #     hydro 2 p 4.5
  #     hydro 2 s 2.4
  #     hydro 5 g 14.4
  #     hydro 4 d 14.4
  #     hydro 4 f 16.8
  # Further basis functions - -0.21 meV and below
  #     hydro 3 p 14.8
  #     hydro 3 s 4.4
  #     hydro 3 d 19.6
  #     hydro 5 g 12.8
  ################################################################################
  #
  #  FHI-aims code project
  #  VB, Fritz-Haber Institut, 2009
  #
  #  Suggested "light" defaults for O atom (to be pasted into control.in file)
  #  Be sure to double-check any results obtained with these settings for post-processing,
  #  e.g., with the "tight" defaults and larger basis sets.
  #
  ################################################################################
    species        O
  #     global species definitions
      nucleus             8
      mass                15.9994
  #
      l_hartree           4
  #
      cut_pot             3.5  1.5  1.0
      basis_dep_cutoff    1e-4
  #
      radial_base         36 5.0
      radial_multiplier   1
       angular_grids specified
        division   0.2659   50
        division   0.4451  110
        division   0.6052  194
        division   0.7543  302
  #      division   0.8014  434
  #      division   0.8507  590
  #      division   0.8762  770
  #      division   0.9023  974
  #      division   1.2339 1202
  #      outer_grid 974
        outer_grid 302
  ################################################################################
  #
  #  Definition of "minimal" basis
  #
  ################################################################################
  #     valence basis states
      valence      2  s   2.
      valence      2  p   4.
  #     ion occupancy
      ion_occ      2  s   1.
      ion_occ      2  p   3.
  ################################################################################
  #
  #  Suggested additional basis functions. For production calculations,
  #  uncomment them one after another (the most important basis functions are
  #  listed first).
  #
  #  Constructed for dimers: 1.0 A, 1.208 A, 1.5 A, 2.0 A, 3.0 A
  #
  ################################################################################
  #  "First tier" - improvements: -699.05 meV to -159.38 meV
       hydro 2 p 1.8
       hydro 3 d 7.6
       hydro 3 s 6.4
  #  "Second tier" - improvements: -49.91 meV to -5.39 meV
  #     hydro 4 f 11.6
  #     hydro 3 p 6.2
  #     hydro 3 d 5.6
  #     hydro 5 g 17.6
  #     hydro 1 s 0.75
  #  "Third tier" - improvements: -2.83 meV to -0.50 meV
  #     ionic 2 p auto
  #     hydro 4 f 10.8
  #     hydro 4 d 4.7
  #     hydro 2 s 6.8
  #  "Fourth tier" - improvements: -0.40 meV to -0.12 meV
  #     hydro 3 p 5
  #     hydro 3 s 3.3
  #     hydro 5 g 15.6
  #     hydro 4 f 17.6
  #     hydro 4 d 14
  # Further basis functions - -0.08 meV and below
  #     hydro 3 s 2.1
  #     hydro 4 d 11.6
  #     hydro 3 p 16
  #     hydro 2 s 17.2
  
  -----------------------------------------------------------------------
  Completed first pass over input file control.in .
  -----------------------------------------------------------------------
  
  
  -----------------------------------------------------------------------
  Parsing geometry.in (first pass over file, find array dimensions only).
  The contents of geometry.in will be repeated verbatim below
  unless switched off by setting 'verbatim_writeout .false.' .
  in the first line of geometry.in .
  -----------------------------------------------------------------------
  
  atom  0.00000 0.00000 0.00000 C
  atom  1.09300 0.00000 0.00000 H
  atom  -0.47961 0.00000 -1.41207 N
  atom  -0.91053 0.90361 -1.61114 H
  atom  0.31642 -0.15343 -2.02764 H
  atom  -0.49584 1.26211 0.72868 C
  atom  -1.58789 1.28919 0.74431 H
  atom  -0.13407 1.27425 1.75947 H
  atom  -0.13407 2.16087 0.22380 H
  atom  -0.39425 -1.28861 0.74398 C
  atom  -0.10189 -1.56493 1.88303 O
  atom  -1.10210 -2.13717 0.06896 O
  atom  -1.08084 -1.68643 -0.79206 H
  
  -----------------------------------------------------------------------
  Completed first pass over input file geometry.in .
  -----------------------------------------------------------------------
  

  Basic array size parameters:
  | Number of species                 :        4
  | Number of atoms                   :       13
  | Max. basis fn. angular momentum   :        2
  | Max. atomic/ionic basis occupied n:        2
  | Max. number of basis fn. types    :        2
  | Max. radial fns per species/type  :        3
  | Max. logarithmic grid size        :     1301
  | Max. radial integration grid size :       36
  | Max. angular integration grid size:      302
  | Max. angular grid division number :        8
  | Radial grid for Hartree potential :     1301
  | Number of spin channels           :        1

------------------------------------------------------------
          Reading file control.in.
------------------------------------------------------------
  XC: Using PBE gradient-corrected functionals.
  Spin treatment: No spin polarisation.
  Non-relativistic treatment of kinetic energy.
  Charge =   0.000000E+00: Neutral system requested explicitly.
  Occupation type: Gaussian broadening, width =   0.100000E-01 eV.
  Using pulay charge density mixing.
  Pulay mixing - number of memorized iterations:   10
  Charge density mixing - mixing parameter:     0.2000
  Convergence accuracy of self-consistent charge density:  0.1000E-04
  Convergence accuracy of sum of eigenvalues:  0.1000E-02
  Convergence accuracy of total energy:  0.1000E-05
  Convergence accuracy of forces:  0.1000E-03
  Maximum number of s.-c. iterations  :   100
 
  Reading configuration options for species H                   .
  | Found nuclear charge :   1.0000
  | Found atomic mass :    1.00794000000000      amu
  | Found l_max for Hartree potential  :   4
  | Found cutoff potl. onset [A], width [A], scale factor :    3.50000    1.50000    1.00000
  | Threshold for basis-dependent cutoff potential is   0.100000E-03
  | Found data for basic radial integration grid :    24 points, outermost radius =    5.000 A
  | Found multiplier for basic radial grid :   1
  | Found angular grid specification: user-specified.
  | Specified grid contains     5 separate shells.
  | Check grid settings after all constraints further below.
  | Found free-atom valence shell :  1 s   1.000
  | No ionic wave fns used. Skipping ion_occ.
  | Found hydrogenic basis function :  2 s   2.100
  | Found hydrogenic basis function :  2 p   3.500
  Species H                   : Missing cutoff potential type.
  Defaulting to exp(1/x)/(1-x)^2 type cutoff potential.
  Species H : No 'logarithmic' tag. Using default grid for free atom:
  | Default logarithmic grid data [bohr] : 0.1000E-03 0.1000E+03 0.1012E+01
  Species H : On-site basis accuracy parameter (for Gram-Schmidt orthonormalisation) not specified.
  Using default value basis_acc =  0.1000000E-03.
  Species H                   : Using default innermost maximum threshold i_radial=  2 for radial functions.
  Species H                   : Default cutoff onset for free atom density etc. : 0.35000000E+01 AA.
  Species H                   : Basic radial grid will be enhanced according to radial_multiplier =   1, to contain    24 grid points.
 
  Reading configuration options for species C                   .
  | Found nuclear charge :   6.0000
  | Found atomic mass :    12.0107000000000      amu
  | Found l_max for Hartree potential  :   4
  | Found cutoff potl. onset [A], width [A], scale factor :    3.50000    1.50000    1.00000
  | Threshold for basis-dependent cutoff potential is   0.100000E-03
  | Found data for basic radial integration grid :    34 points, outermost radius =    5.000 A
  | Found multiplier for basic radial grid :   1
  | Found angular grid specification: user-specified.
  | Specified grid contains     5 separate shells.
  | Check grid settings after all constraints further below.
  | Found free-atom valence shell :  2 s   2.000
  | Found free-atom valence shell :  2 p   2.000
  | No ionic wave fns used. Skipping ion_occ.
  | No ionic wave fns used. Skipping ion_occ.
  | Found hydrogenic basis function :  2 p   1.700
  | Found hydrogenic basis function :  3 d   6.000
  | Found hydrogenic basis function :  2 s   4.900
  Species C                   : Missing cutoff potential type.
  Defaulting to exp(1/x)/(1-x)^2 type cutoff potential.
  Species C : No 'logarithmic' tag. Using default grid for free atom:
  | Default logarithmic grid data [bohr] : 0.1000E-03 0.1000E+03 0.1012E+01
  Species C : On-site basis accuracy parameter (for Gram-Schmidt orthonormalisation) not specified.
  Using default value basis_acc =  0.1000000E-03.
  Species C                   : Using default innermost maximum threshold i_radial=  2 for radial functions.
  Species C                   : Default cutoff onset for free atom density etc. : 0.35000000E+01 AA.
  Species C                   : Basic radial grid will be enhanced according to radial_multiplier =   1, to contain    34 grid points.
 
  Reading configuration options for species N                   .
  | Found nuclear charge :   7.0000
  | Found atomic mass :    14.0067000000000      amu
  | Found l_max for Hartree potential  :   4
  | Found cutoff potl. onset [A], width [A], scale factor :    3.50000    1.50000    1.00000
  | Threshold for basis-dependent cutoff potential is   0.100000E-03
  | Found data for basic radial integration grid :    35 points, outermost radius =    5.000 A
  | Found multiplier for basic radial grid :   1
  | Found angular grid specification: user-specified.
  | Specified grid contains     5 separate shells.
  | Check grid settings after all constraints further below.
  | Found free-atom valence shell :  2 s   2.000
  | Found free-atom valence shell :  2 p   3.000
  | No ionic wave fns used. Skipping ion_occ.
  | No ionic wave fns used. Skipping ion_occ.
  | Found hydrogenic basis function :  2 p   1.800
  | Found hydrogenic basis function :  3 d   6.800
  | Found hydrogenic basis function :  3 s   5.800
  Species N                   : Missing cutoff potential type.
  Defaulting to exp(1/x)/(1-x)^2 type cutoff potential.
  Species N : No 'logarithmic' tag. Using default grid for free atom:
  | Default logarithmic grid data [bohr] : 0.1000E-03 0.1000E+03 0.1012E+01
  Species N : On-site basis accuracy parameter (for Gram-Schmidt orthonormalisation) not specified.
  Using default value basis_acc =  0.1000000E-03.
  Species N                   : Using default innermost maximum threshold i_radial=  2 for radial functions.
  Species N                   : Default cutoff onset for free atom density etc. : 0.35000000E+01 AA.
  Species N                   : Basic radial grid will be enhanced according to radial_multiplier =   1, to contain    35 grid points.
 
  Reading configuration options for species O                   .
  | Found nuclear charge :   8.0000
  | Found atomic mass :    15.9994000000000      amu
  | Found l_max for Hartree potential  :   4
  | Found cutoff potl. onset [A], width [A], scale factor :    3.50000    1.50000    1.00000
  | Threshold for basis-dependent cutoff potential is   0.100000E-03
  | Found data for basic radial integration grid :    36 points, outermost radius =    5.000 A
  | Found multiplier for basic radial grid :   1
  | Found angular grid specification: user-specified.
  | Specified grid contains     5 separate shells.
  | Check grid settings after all constraints further below.
  | Found free-atom valence shell :  2 s   2.000
  | Found free-atom valence shell :  2 p   4.000
  | No ionic wave fns used. Skipping ion_occ.
  | No ionic wave fns used. Skipping ion_occ.
  | Found hydrogenic basis function :  2 p   1.800
  | Found hydrogenic basis function :  3 d   7.600
  | Found hydrogenic basis function :  3 s   6.400
  Species O                   : Missing cutoff potential type.
  Defaulting to exp(1/x)/(1-x)^2 type cutoff potential.
  Species O : No 'logarithmic' tag. Using default grid for free atom:
  | Default logarithmic grid data [bohr] : 0.1000E-03 0.1000E+03 0.1012E+01
  Species O : On-site basis accuracy parameter (for Gram-Schmidt orthonormalisation) not specified.
  Using default value basis_acc =  0.1000000E-03.
  Species O                   : Using default innermost maximum threshold i_radial=  2 for radial functions.
  Species O                   : Default cutoff onset for free atom density etc. : 0.35000000E+01 AA.
  Species O                   : Basic radial grid will be enhanced according to radial_multiplier =   1, to contain    36 grid points.
 
  Finished reading input file 'control.in'. Consistency checks are next.
 
  MPI_IN_PLACE appears to work with this MPI implementation.
  | Keeping use_mpi_in_place .true. (see manual).
  Target number of points in a grid batch is not set. Defaulting to  100
  Method for grid partitioning is not set. Defaulting to parallel hash+maxmin partitioning.
  Batch size limit is not set. Defaulting to    200
  By default, will store active basis functions for each batch.
  If in need of memory, prune_basis_once .false. can be used to disable this option.
  communication_type for Hartree potential was not specified.
  Defaulting to calc_hartree .
  Pulay mixer: Number of initial linear mixing iterations not set.
  Defaulting to    0 iterations.
  Work space size for distributed Hartree potential not set.
  Defaulting to   0.200000E+03 MB.
  Algorithm-dependent basis array size parameters:
  | n_max_pulay                         :       10
  Presetting      1001 iterations before the initial mixing cycle
  is restarted anyway using the sc_init_iter criterion / keyword.
  Presetting a factor      1.000 between actual scf density residual
  and density convergence criterion sc_accuracy_rho below which sc_init_iter
  takes no effect.
  Geometry relaxation not requested: no relaxation will be performed.
  Handling of forces: Unphysical translation and rotation will be removed from forces.
  No accuracy limit for integral partition fn. given. Defaulting to  0.1000E-14.
  No threshold value for u(r) in integrations given. Defaulting to  0.1000E-05.
  No accuracy for occupation numbers given. Defaulting to  0.1000E-12.
  No threshold value for occupation numbers given. Defaulting to  0.0000E+00.
  No accuracy for fermi level given. Defaulting to  0.1000E-19.
  Maximum # of iterations to find E_F not set. Defaulting to  200.
  Preferred method for the eigenvalue solver ('KS_method') not specified in 'control.in'.
  Defaulting to serial version, 'lapack_fast'.
  Will not use alltoall communication since running on < 1024 CPUs.
  Threshold for basis singularities not set.
  Default threshold for basis singularities:  0.1000E-04
  partition_type (choice of integration weights) for integrals was not specified.
  | Using a version of the partition function of Stratmann and coworkers ('stratmann_smoother').
  | At each grid point, the set of atoms used to build the partition table is smoothly restricted to
  | only those atoms whose free-atom density would be non-zero at that grid point.
  Partitioning for Hartree potential was not defined. Using partition_type for integrals.
  | Adjusted default value of keyword multip_moments_threshold to:       0.10000000E-11
  | This value may affect high angular momentum components of the Hartree potential in periodic systems.
  No q(lm)/r^(l+1) cutoff set for long-range Hartree potential.
  | Using default value of  0.100000E-09 .
  | Verify using the multipole_threshold keyword.
  Defaulting to new monopole extrapolation.
  Density update method: automatic selection selected.
------------------------------------------------------------


------------------------------------------------------------
          Reading geometry description geometry.in.
------------------------------------------------------------
  Input structure read successfully.
  The structure contains       13 atoms,  and a total of         48.000 electrons.

  Input geometry:
  | No unit cell requested.
  | Atomic structure:
  |       Atom                x [A]            y [A]            z [A]
  |    1: Species C             0.00000000        0.00000000        0.00000000
  |    2: Species H             1.09300000        0.00000000        0.00000000
  |    3: Species N            -0.47961000        0.00000000       -1.41207000
  |    4: Species H            -0.91053000        0.90361000       -1.61114000
  |    5: Species H             0.31642000       -0.15343000       -2.02764000
  |    6: Species C            -0.49584000        1.26211000        0.72868000
  |    7: Species H            -1.58789000        1.28919000        0.74431000
  |    8: Species H            -0.13407000        1.27425000        1.75947000
  |    9: Species H            -0.13407000        2.16087000        0.22380000
  |   10: Species C            -0.39425000       -1.28861000        0.74398000
  |   11: Species O            -0.10189000       -1.56493000        1.88303000
  |   12: Species O            -1.10210000       -2.13717000        0.06896000
  |   13: Species H            -1.08084000       -1.68643000       -0.79206000
  |

  | The smallest distance between any two atoms is         0.97209772 AA.
  |
  | The first atom of this pair is atom number                     12 .
  | The second atom of this pair is atom number                    13 .

  Number of empty states per atom not set in control.in - providing a guess from actual geometry.
  | Total number of empty states used during s.c.f. cycle:       29
  If you use a very high smearing, use empty_states (per atom!) in control.in to increase this value.

  Structure-dependent array size parameters: 
  | Maximum number of distinct radial functions  :       21
  | Maximum number of basis functions            :      119
  | Number of Kohn-Sham states (occupied + empty):       53
------------------------------------------------------------

------------------------------------------------------------
          Preparing all fixed parts of the calculation.
------------------------------------------------------------
  Determining machine precision:
    2.225073858507201E-308
  Setting up grids for atomic and cluster calculations.

  Creating wave function, potential, and density for free atoms.

  Species: H

  List of occupied orbitals and eigenvalues:
    n    l              occ      energy [Ha]    energy [eV]
    1    0           1.0000        -0.237589        -6.4651


  Species: C

  List of occupied orbitals and eigenvalues:
    n    l              occ      energy [Ha]    energy [eV]
    1    0           2.0000       -10.038835      -273.1706
    2    0           2.0000        -0.502696       -13.6791
    2    1           2.0000        -0.191971        -5.2238


  Species: N

  List of occupied orbitals and eigenvalues:
    n    l              occ      energy [Ha]    energy [eV]
    1    0           2.0000       -14.128000      -384.4424
    2    0           2.0000        -0.681077       -18.5330
    2    1           3.0000        -0.259788        -7.0692


  Species: O

  List of occupied orbitals and eigenvalues:
    n    l              occ      energy [Ha]    energy [eV]
    1    0           2.0000       -18.898188      -514.2459
    2    0           2.0000        -0.878505       -23.9053
    2    1           4.0000        -0.331779        -9.0282

  Creating fixed part of basis set: Ionic, confined, hydrogenic.
 
  H                    hydrogenic:
 
  List of hydrogenic basis orbitals: 
    n    l      effective z      eigenvalue [eV]  inner max. [A]     outer max. [A]     outer radius [A]   
    2    0         2.100000       -14.9728           0.193243           1.317208           4.583499
    2    1         3.500000       -41.6669           0.602369           0.602369           3.723403
 
 
  C                    hydrogenic:
 
  List of hydrogenic basis orbitals: 
    n    l      effective z      eigenvalue [eV]  inner max. [A]     outer max. [A]     outer radius [A]   
    2    1         1.700000        -9.7616           1.230570           1.230570           4.607917
    3    2         6.000000       -54.4224           0.792453           0.792453           3.883070
    2    0         4.900000       -81.6679           0.082559           0.562749           3.078220
 
 
  N                    hydrogenic:
 
  List of hydrogenic basis orbitals: 
    n    l      effective z      eigenvalue [eV]  inner max. [A]     outer max. [A]     outer radius [A]   
    2    1         1.800000       -10.9749           1.177451           1.177451           4.573712
    3    2         6.800000       -69.9026           0.704619           0.704619           3.538137
    3    0         5.800000       -50.8545           0.067388           1.191934           4.250239
 
 
  O                    hydrogenic:
 
  List of hydrogenic basis orbitals: 
    n    l      effective z      eigenvalue [eV]  inner max. [A]     outer max. [A]     outer radius [A]   
    2    1         1.800000       -10.9749           1.164242           1.164242           4.578029
    3    2         7.600000       -87.3180           0.624125           0.624125           3.251020
    3    0         6.400000       -61.9207           0.061167           1.081902           4.001998
 

  Adding cutoff potential to free-atom effective potential.
  Creating atomic-like basis functions for current effective potential.

  Species H                   :

  List of atomic basis orbitals and eigenvalues:
    n    l      energy [Ha]    energy [eV]    outer radius [A]
    1    0        -0.237589        -6.4651       4.527807


  Species C                   :

  List of atomic basis orbitals and eigenvalues:
    n    l      energy [Ha]    energy [eV]    outer radius [A]
    1    0       -10.038835      -273.1706       1.934409
    2    0        -0.502696       -13.6791       4.496620
    2    1        -0.191971        -5.2238       4.551928


  Species N                   :

  List of atomic basis orbitals and eigenvalues:
    n    l      energy [Ha]    energy [eV]    outer radius [A]
    1    0       -14.128000      -384.4424       1.637919
    2    0        -0.681077       -18.5330       4.463241
    2    1        -0.259788        -7.0692       4.518138


  Species O                   :

  List of atomic basis orbitals and eigenvalues:
    n    l      energy [Ha]    energy [eV]    outer radius [A]
    1    0       -18.898188      -514.2459       1.415765
    2    0        -0.878505       -23.9053       4.413171
    2    1        -0.331779        -9.0282       4.522403

  Assembling full basis from fixed parts.
  | Species H :   atomic orbital   1 s accepted.
  | Species H :    hydro orbital   2 s accepted.
  | Species H :    hydro orbital   2 p accepted.
  | Species C :   atomic orbital   1 s accepted.
  | Species C :    hydro orbital   2 s accepted.
  | Species C :   atomic orbital   2 s accepted.
  | Species C :   atomic orbital   2 p accepted.
  | Species C :    hydro orbital   2 p accepted.
  | Species C :    hydro orbital   3 d accepted.
  | Species N :   atomic orbital   1 s accepted.
  | Species N :    hydro orbital   3 s accepted.
  | Species N :   atomic orbital   2 s accepted.
  | Species N :   atomic orbital   2 p accepted.
  | Species N :    hydro orbital   2 p accepted.
  | Species N :    hydro orbital   3 d accepted.
  | Species O :   atomic orbital   1 s accepted.
  | Species O :    hydro orbital   3 s accepted.
  | Species O :   atomic orbital   2 s accepted.
  | Species O :   atomic orbital   2 p accepted.
  | Species O :    hydro orbital   2 p accepted.
  | Species O :    hydro orbital   3 d accepted.
 
  Basis size parameters after reduction:
  | Total number of radial functions:       21
  | Total number of basis functions :      119
 
  Per-task memory consumption for arrays in subroutine allocate_ext:
  |           5.250512MB.
  Testing on-site integration grid accuracy.
  |  Species  Function  <phi|h_atom|phi> (log., in eV)  <phi|h_atom|phi> (rad., in eV)
           1        1                 -6.4663192853                 -6.4651273558
           1        2                 13.7111246313                 13.7170609718
           1        3                 25.2673269279                 25.2674696378
           2        4               -273.1705927641               -273.1705631568
           2        5                -10.7109323383                -10.7107120029
           2        6                 17.4381822266                 17.4352413244
           2        7                 -5.2255326521                 -5.2270484734
           2        8                  8.6835629259                  8.6603288385
           2        9                 27.4952418996                 27.4953360207
           3       10               -384.4424306495               -384.4423701208
           3       11                 12.5842251816                 12.5842222903
           3       12                -15.7264628251                -15.7264433455
           3       13                 -7.0696854293                 -7.0701769954
           3       14                  8.8090390882                  8.7901077751
           3       15                 35.9586762123                 35.9588528632
           4       16               -514.2458688638               -514.2457643834
           4       17                 15.1795651126                 15.1795290741
           4       18                -21.5359799773                -21.5360846186
           4       19                 -9.0283069236                 -9.0284644067
           4       20                  8.3027758564                  8.2834874195
           4       21                 45.8339351984                 45.8338762259

  Preparing densities etc. for the partition functions (integrals / Hartree potential).

  Preparations completed.
  max(cpu_time)          :      0.146 s.
  Wall clock time (cpu1) :      0.147 s.
------------------------------------------------------------

------------------------------------------------------------
          Begin self-consistency loop: Initialization.

          Date     :  20200805, Time     :  185736.065
------------------------------------------------------------

  Initializing index lists of integration centers etc. from given atomic structure:
  | Number of centers in hartree potential         :        13
  | Number of centers in hartree multipole         :        13
  | Number of centers in electron density summation:        13
  | Number of centers in basis integrals           :        13
  | Number of centers in integrals                 :        13
  | Number of centers in hamiltonian               :        13
  Partitioning the integration grid into batches with parallel hashing+maxmin method.
  | Number of batches:      957
  | Maximal batch size:     139
  | Minimal batch size:      66
  | Average batch size:      72.775
  | Standard deviation of batch sizes:      17.340

  Integration load balanced across     1 MPI tasks.
  Work distribution over tasks is as follows:
  Task     0 has      69646 integration points.
  Initializing partition tables, free-atom densities, potentials, etc. across the integration grid (initialize_grid_storage).
  | initialize_grid_storage: Actual outermost partition radius vs. multipole_radius_free
  | (-- VB: in principle, multipole_radius_free should be larger, hence this output)
  | Species        1: Confinement radius =              4.999999999999999 AA, multipole_radius_free =              5.054417573612229 AA.
  | Species        1: outer_partition_radius set to              5.054417573612229 AA .
  | Species        2: Confinement radius =              4.999999999999999 AA, multipole_radius_free =              5.019602836301480 AA.
  | Species        2: outer_partition_radius set to              5.019602836301480 AA .
  | Species        3: Confinement radius =              4.999999999999999 AA, multipole_radius_free =              5.043624274424571 AA.
  | Species        3: outer_partition_radius set to              5.043624274424571 AA .
  | Species        4: Confinement radius =              4.999999999999999 AA, multipole_radius_free =              5.048384829883283 AA.
  | Species        4: outer_partition_radius set to              5.048384829883283 AA .
  | Original list of interatomic distances with          13 x         13 entries is created.
  | Net number of integration points:    69646
  | of which are non-zero points    :    59400
  Renormalizing the initial density to the exact electron count on the 3D integration grid.
  | Initial density: Formal number of electrons (from input files) :      48.0000000000
  | Integrated number of electrons on 3D grid     :      47.9999533704
  | Charge integration error                      :      -0.0000466296
  | Normalization factor for density and gradient :       1.0000009715
  Obtaining max. number of non-zero basis functions in each batch (get_n_compute_maxes).
  | Maximal number of non-zero basis functions:      119 in task     0
  Selecting the method for density update.
  Loop over occupied states selected for charge density update.
  Allocating        0.050 MB for KS_eigenvector
  Integrating Hamiltonian matrix: batch-based integration.
  Time summed over all CPUs for integration: real work        0.496 s, elapsed        0.496 s
  Integrating overlap matrix.
  Time summed over all CPUs for integration: real work        0.213 s, elapsed        0.213 s

  Updating Kohn-Sham eigenvalues and eigenvectors using ELSI and the ELPA eigensolver.
  Overlap matrix is nonsingular
  | Lowest eigenvalue of overlap  :  0.44E-02
  | Highest eigenvalue of overlap :  0.63E+01
  Finished singularity check of overlap matrix
  | Time :     0.002 s
  Finished Cholesky decomposition
  | Time :     0.000 s
  Finished transformation to standard eigenproblem
  | Time :     0.000 s
  Starting LAPACK eigensolver
  Finished solving standard eigenproblem
  | Time :     0.002 s
  Finished back-transformation of eigenvectors
  | Time :     0.000 s

  Obtaining occupation numbers and chemical potential using ELSI.
  | Chemical potential (Fermi level):    -9.78234863eV
  Writing Kohn-Sham eigenvalues.

  State    Occupation    Eigenvalue [Ha]    Eigenvalue [eV]
      1       2.00000         -19.007489         -517.22009
      2       2.00000         -18.977117         -516.39362
      3       2.00000         -14.247783         -387.70191
      4       2.00000         -10.166899         -276.65539
      5       2.00000         -10.142037         -275.97886
      6       2.00000         -10.131885         -275.70261
      7       2.00000          -1.181343          -32.14598
      8       2.00000          -1.101439          -29.97169
      9       2.00000          -0.994096          -27.05073
     10       2.00000          -0.859915          -23.39948
     11       2.00000          -0.756167          -20.57634
     12       2.00000          -0.680611          -18.52038
     13       2.00000          -0.622685          -16.94413
     14       2.00000          -0.621575          -16.91391
     15       2.00000          -0.592730          -16.12901
     16       2.00000          -0.557143          -15.16064
     17       2.00000          -0.552240          -15.02721
     18       2.00000          -0.525572          -14.30154
     19       2.00000          -0.518401          -14.10641
     20       2.00000          -0.496275          -13.50432
     21       2.00000          -0.473851          -12.89415
     22       2.00000          -0.428679          -11.66496
     23       2.00000          -0.422651          -11.50091
     24       2.00000          -0.384730          -10.46903
     25       0.00000          -0.148254           -4.03420
     26       0.00000          -0.063753           -1.73480
     27       0.00000          -0.029391           -0.79977
     28       0.00000          -0.009434           -0.25672
     29       0.00000           0.005041            0.13716
     30       0.00000           0.012102            0.32931
     31       0.00000           0.019488            0.53029
     32       0.00000           0.029188            0.79426
     33       0.00000           0.035065            0.95418
     34       0.00000           0.077779            2.11647
     35       0.00000           0.093949            2.55648
     36       0.00000           0.132557            3.60706
     37       0.00000           0.173916            4.73251
     38       0.00000           0.190652            5.18791
     39       0.00000           0.203558            5.53909
     40       0.00000           0.224650            6.11304
     41       0.00000           0.252022            6.85788
     42       0.00000           0.258672            7.03883
     43       0.00000           0.289130            7.86762
     44       0.00000           0.300937            8.18892
     45       0.00000           0.349348            9.50625
     46       0.00000           0.357184            9.71947
     47       0.00000           0.376576           10.24716
     48       0.00000           0.384013           10.44952
     49       0.00000           0.440712           11.99240
     50       0.00000           0.482576           13.13157
     51       0.00000           0.495058           13.47121
     52       0.00000           0.547403           14.89561
     53       0.00000           0.557620           15.17361

  Highest occupied state (VBM) at    -10.46902654 eV
  | Occupation number:      2.00000000

  Lowest unoccupied state (CBM) at    -4.03420476 eV
  | Occupation number:      0.00000000

  Overall HOMO-LUMO gap:      6.43482178 eV.
  Calculating total energy contributions from superposition of free atom densities.

  Total energy components:
  | Sum of eigenvalues            :        -188.88662721 Ha       -5139.86663992 eV
  | XC energy correction          :         -41.80296405 Ha       -1137.51652795 eV
  | XC potential correction       :          53.73966706 Ha        1462.33074321 eV
  | Free-atom electrostatic energy:        -146.82315122 Ha       -3995.26122137 eV
  | Hartree energy correction     :           0.00000000 Ha           0.00000000 eV
  | vdW energy correction         :           0.00000000 Ha           0.00000000 eV
  | Entropy correction            :           0.00000000 Ha           0.00000000 eV
  | ---------------------------
  | Total energy                  :        -323.77307542 Ha       -8810.31364603 eV
  | Total energy, T -> 0          :        -323.77307542 Ha       -8810.31364603 eV  <-- do not rely on this value for anything but (periodic) metals
  | Electronic free energy        :        -323.77307542 Ha       -8810.31364603 eV

  Derived energy quantities:
  | Kinetic energy                :         320.51325129 Ha        8721.60931817 eV
  | Electrostatic energy          :        -602.48336266 Ha      -16394.40643624 eV
  | Energy correction for multipole
  | error in Hartree potential    :           0.00000000 Ha           0.00000000 eV
  | Sum of eigenvalues per atom                           :        -395.37435692 eV
  | Total energy (T->0) per atom                          :        -677.71643431 eV  <-- do not rely on this value for anything but (periodic) metals
  | Electronic free energy per atom                       :        -677.71643431 eV
  Initialize hartree_potential_storage
  Max. number of atoms included in rho_multipole:           13

  End scf initialization - timings             :  max(cpu_time)    wall_clock(cpu1)
  | Time for scf. initialization               :        1.153 s           1.155 s
  | Boundary condition initialization          :        0.000 s           0.000 s
  | Integration                                :        0.709 s           0.710 s
  | Solution of K.-S. eqns.                    :        0.004 s           0.004 s
  | Grid partitioning                          :        0.110 s           0.111 s
  | Preloading free-atom quantities on grid    :        0.002 s           0.003 s
  | Free-atom superposition energy             :        0.085 s           0.085 s
  | Total energy evaluation                    :        0.000 s           0.000 s

  Partial memory accounting:
  | Current value for overall tracked memory usage on task 0  :           0.165 MB
  | Peak value for overall tracked memory usage on task 0     :           0.678 MB after allocating wave
  | Largest tracked array allocation on task 0 so far         :           0.132 MB  when allocating H_times_psi
  Note:  These values currently only include a subset of arrays which are explicitly tracked.
  The "true" memory usage will be greater.
------------------------------------------------------------

------------------------------------------------------------
          Begin self-consistency iteration #    1

  Date     :  20200805, Time     :  185737.220
------------------------------------------------------------
  Evaluating new KS density.
  Integration grid: deviation in total charge (<rho> - N_e) =  -1.421085E-14
  Pulay mixing of updated and previous charge densities.

  Evaluating partitioned Hartree potential by multipole expansion.
  | Analytical far-field extrapolation by fixed multipoles:
  | Hartree multipole sum: apparent total charge =  -0.147789E-03
  Summing up the Hartree potential.
  Time summed over all CPUs for potential: real work        0.283 s, elapsed        0.283 s
  | RMS charge density error from multipole expansion :   0.591236E-02

  Integrating Hamiltonian matrix: batch-based integration.
  Time summed over all CPUs for integration: real work        0.502 s, elapsed        0.502 s

  Updating Kohn-Sham eigenvalues and eigenvectors using ELSI and the ELPA eigensolver.
  Finished Cholesky decomposition
  | Time :     0.000 s
  Finished transformation to standard eigenproblem
  | Time :     0.000 s
  Starting LAPACK eigensolver
  Finished solving standard eigenproblem
  | Time :     0.001 s
  Finished back-transformation of eigenvectors
  | Time :     0.000 s

  Obtaining occupation numbers and chemical potential using ELSI.
  | Chemical potential (Fermi level):    -4.69129447eV
  Writing Kohn-Sham eigenvalues.

  State    Occupation    Eigenvalue [Ha]    Eigenvalue [eV]
      1       2.00000         -18.899966         -514.29425
      2       2.00000         -18.826687         -512.30022
      3       2.00000         -14.115639         -384.10607
      4       2.00000         -10.109193         -275.08514
      5       2.00000         -10.069252         -273.99829
      6       2.00000         -10.036096         -273.09606
      7       2.00000          -1.126791          -30.66154
      8       2.00000          -1.031527          -28.06928
      9       2.00000          -0.934270          -25.42278
     10       2.00000          -0.798866          -21.73824
     11       2.00000          -0.705984          -19.21080
     12       2.00000          -0.630307          -17.15152
     13       2.00000          -0.575424          -15.65808
     14       2.00000          -0.566778          -15.42281
     15       2.00000          -0.533743          -14.52388
     16       2.00000          -0.500445          -13.61781
     17       2.00000          -0.485932          -13.22288
     18       2.00000          -0.470298          -12.79745
     19       2.00000          -0.458274          -12.47027
     20       2.00000          -0.438617          -11.93539
     21       2.00000          -0.419638          -11.41893
     22       2.00000          -0.360641           -9.81355
     23       2.00000          -0.354449           -9.64506
     24       2.00000          -0.314834           -8.56707
     25       0.00000          -0.106614           -2.90112
     26       0.00000          -0.041042           -1.11681
     27       0.00000           0.008568            0.23314
     28       0.00000           0.016253            0.44227
     29       0.00000           0.040092            1.09095
     30       0.00000           0.041644            1.13318
     31       0.00000           0.053115            1.44532
     32       0.00000           0.064048            1.74282
     33       0.00000           0.069892            1.90185
     34       0.00000           0.116811            3.17860
     35       0.00000           0.131076            3.56675
     36       0.00000           0.163875            4.45926
     37       0.00000           0.204286            5.55890
     38       0.00000           0.217663            5.92291
     39       0.00000           0.231581            6.30163
     40       0.00000           0.257699            7.01236
     41       0.00000           0.284796            7.74969
     42       0.00000           0.290871            7.91500
     43       0.00000           0.322672            8.78034
     44       0.00000           0.341688            9.29779
     45       0.00000           0.387477           10.54379
     46       0.00000           0.400905           10.90918
     47       0.00000           0.412554           11.22617
     48       0.00000           0.422669           11.50142
     49       0.00000           0.474169           12.90280
     50       0.00000           0.512977           13.95881
     51       0.00000           0.526343           14.32253
     52       0.00000           0.582699           15.85605
     53       0.00000           0.588881           16.02427

  Highest occupied state (VBM) at     -8.56706538 eV
  | Occupation number:      2.00000000

  Lowest unoccupied state (CBM) at    -2.90112106 eV
  | Occupation number:      0.00000000

  Overall HOMO-LUMO gap:      5.66594432 eV.

  Total energy components:
  | Sum of eigenvalues            :        -185.52730197 Ha       -5048.45474929 eV
  | XC energy correction          :         -42.12742323 Ha       -1146.34551140 eV
  | XC potential correction       :          54.16162122 Ha        1473.81270010 eV
  | Free-atom electrostatic energy:        -146.82315122 Ha       -3995.26122137 eV
  | Hartree energy correction     :          -3.28330544 Ha         -89.34328682 eV
  | vdW energy correction         :           0.00000000 Ha           0.00000000 eV
  | Entropy correction            :           0.00000000 Ha           0.00000000 eV
  | ---------------------------
  | Total energy                  :        -323.59956065 Ha       -8805.59206878 eV
  | Total energy, T -> 0          :        -323.59956065 Ha       -8805.59206878 eV  <-- do not rely on this value for anything but (periodic) metals
  | Electronic free energy        :        -323.59956065 Ha       -8805.59206878 eV

  Derived energy quantities:
  | Kinetic energy                :         322.27744641 Ha        8769.61550989 eV
  | Electrostatic energy          :        -603.74958383 Ha      -16428.86206727 eV
  | Energy correction for multipole
  | error in Hartree potential    :           0.01176310 Ha           0.32009035 eV
  | Sum of eigenvalues per atom                           :        -388.34267302 eV
  | Total energy (T->0) per atom                          :        -677.35323606 eV  <-- do not rely on this value for anything but (periodic) metals
  | Electronic free energy per atom                       :        -677.35323606 eV

  Self-consistency convergence accuracy:
  | Change of charge density      :  0.5745E+00
  | Change of sum of eigenvalues  :  0.9141E+02 eV
  | Change of total energy        :  0.4722E+01 eV

  End self-consistency iteration #     1       :  max(cpu_time)    wall_clock(cpu1)
  | Time for this iteration                    :        1.189 s           1.198 s
  | Charge density update                      :        0.395 s           0.395 s
  | Density mixing                             :        0.005 s           0.006 s
  | Hartree multipole update                   :        0.008 s           0.009 s
  | Hartree multipole summation                :        0.283 s           0.284 s
  | Integration                                :        0.495 s           0.501 s
  | Solution of K.-S. eqns.                    :        0.002 s           0.003 s
  | Total energy evaluation                    :        0.000 s           0.000 s

  Partial memory accounting:
  | Current value for overall tracked memory usage on task 0  :           0.165 MB
  | Peak value for overall tracked memory usage on task 0     :           0.695 MB after allocating gradient_basis_wave
  | Largest tracked array allocation on task 0 so far         :           0.397 MB  when allocating gradient_basis_wave
  Note:  These values currently only include a subset of arrays which are explicitly tracked.
  The "true" memory usage will be greater.
------------------------------------------------------------

------------------------------------------------------------
          Begin self-consistency iteration #    2

  Date     :  20200805, Time     :  185738.419
------------------------------------------------------------
  Evaluating new KS density.
  Integration grid: deviation in total charge (<rho> - N_e) =  -1.421085E-14
  Pulay mixing of updated and previous charge densities.

  Evaluating partitioned Hartree potential by multipole expansion.
  | Analytical far-field extrapolation by fixed multipoles:
  | Hartree multipole sum: apparent total charge =  -0.278608E-03
  Summing up the Hartree potential.
  Time summed over all CPUs for potential: real work        0.282 s, elapsed        0.282 s
  | RMS charge density error from multipole expansion :   0.141414E-01

  Integrating Hamiltonian matrix: batch-based integration.
  Time summed over all CPUs for integration: real work        0.496 s, elapsed        0.496 s

  Updating Kohn-Sham eigenvalues and eigenvectors using ELSI and the ELPA eigensolver.
  Finished Cholesky decomposition
  | Time :     0.000 s
  Finished transformation to standard eigenproblem
  | Time :     0.000 s
  Starting LAPACK eigensolver
  Finished solving standard eigenproblem
  | Time :     0.001 s
  Finished back-transformation of eigenvectors
  | Time :     0.000 s

  Obtaining occupation numbers and chemical potential using ELSI.
  | Chemical potential (Fermi level):    -3.42656019eV
  Highest occupied state (VBM) at     -6.61204994 eV
  | Occupation number:      2.00000000

  Lowest unoccupied state (CBM) at    -1.46910710 eV
  | Occupation number:      0.00000000

  Overall HOMO-LUMO gap:      5.14294283 eV.

  Checking to see if s.c.f. parameters should be adjusted.

  Total energy components:
  | Sum of eigenvalues            :        -181.94503898 Ha       -4950.97641358 eV
  | XC energy correction          :         -42.48604132 Ha       -1156.10400630 eV
  | XC potential correction       :          54.62645876 Ha        1486.46157307 eV
  | Free-atom electrostatic energy:        -146.82315122 Ha       -3995.26122137 eV
  | Hartree energy correction     :          -6.89573058 Ha        -187.64237614 eV
  | vdW energy correction         :           0.00000000 Ha           0.00000000 eV
  | Entropy correction            :           0.00000000 Ha           0.00000000 eV
  | ---------------------------
  | Total energy                  :        -323.52350335 Ha       -8803.52244432 eV
  | Total energy, T -> 0          :        -323.52350335 Ha       -8803.52244432 eV  <-- do not rely on this value for anything but (periodic) metals
  | Electronic free energy        :        -323.52350335 Ha       -8803.52244432 eV

  Derived energy quantities:
  | Kinetic energy                :         323.59888354 Ha        8805.57364389 eV
  | Electrostatic energy          :        -604.63634557 Ha      -16452.99208190 eV
  | Energy correction for multipole
  | error in Hartree potential    :           0.02591064 Ha           0.70506428 eV
  | Sum of eigenvalues per atom                           :        -380.84433951 eV
  | Total energy (T->0) per atom                          :        -677.19403418 eV  <-- do not rely on this value for anything but (periodic) metals
  | Electronic free energy per atom                       :        -677.19403418 eV

  Self-consistency convergence accuracy:
  | Change of charge density      :  0.3587E+00
  | Change of sum of eigenvalues  :  0.9748E+02 eV
  | Change of total energy        :  0.2070E+01 eV

  End self-consistency iteration #     2       :  max(cpu_time)    wall_clock(cpu1)
  | Time for this iteration                    :        1.183 s           1.184 s
  | Charge density update                      :        0.387 s           0.387 s
  | Density mixing                             :        0.007 s           0.007 s
  | Hartree multipole update                   :        0.009 s           0.009 s
  | Hartree multipole summation                :        0.283 s           0.283 s
  | Integration                                :        0.495 s           0.496 s
  | Solution of K.-S. eqns.                    :        0.002 s           0.002 s
  | Total energy evaluation                    :        0.000 s           0.000 s

  Partial memory accounting:
  | Current value for overall tracked memory usage on task 0  :           0.166 MB
  | Peak value for overall tracked memory usage on task 0     :           0.695 MB after allocating gradient_basis_wave
  | Largest tracked array allocation on task 0 so far         :           0.397 MB  when allocating gradient_basis_wave
  Note:  These values currently only include a subset of arrays which are explicitly tracked.
  The "true" memory usage will be greater.
------------------------------------------------------------

------------------------------------------------------------
          Begin self-consistency iteration #    3

  Date     :  20200805, Time     :  185739.604
------------------------------------------------------------
  Evaluating new KS density.
  Integration grid: deviation in total charge (<rho> - N_e) =  -3.552714E-14
  Pulay mixing of updated and previous charge densities.

  Evaluating partitioned Hartree potential by multipole expansion.
  | Analytical far-field extrapolation by fixed multipoles:
  | Hartree multipole sum: apparent total charge =  -0.374093E-03
  Summing up the Hartree potential.
  Time summed over all CPUs for potential: real work        0.281 s, elapsed        0.281 s
  | RMS charge density error from multipole expansion :   0.224337E-01

  Integrating Hamiltonian matrix: batch-based integration.
  Time summed over all CPUs for integration: real work        0.497 s, elapsed        0.497 s

  Updating Kohn-Sham eigenvalues and eigenvectors using ELSI and the ELPA eigensolver.
  Finished Cholesky decomposition
  | Time :     0.000 s
  Finished transformation to standard eigenproblem
  | Time :     0.000 s
  Starting LAPACK eigensolver
  Finished solving standard eigenproblem
  | Time :     0.001 s
  Finished back-transformation of eigenvectors
  | Time :     0.000 s

  Obtaining occupation numbers and chemical potential using ELSI.
  | Chemical potential (Fermi level):    -2.71543911eV
  Highest occupied state (VBM) at     -5.95036624 eV
  | Occupation number:      2.00000000

  Lowest unoccupied state (CBM) at    -0.69644608 eV
  | Occupation number:      0.00000000

  Overall HOMO-LUMO gap:      5.25392016 eV.

  Total energy components:
  | Sum of eigenvalues            :        -180.58041260 Ha       -4913.84304050 eV
  | XC energy correction          :         -42.64046646 Ha       -1160.30612801 eV
  | XC potential correction       :          54.82344226 Ha        1491.82176690 eV
  | Free-atom electrostatic energy:        -146.82315122 Ha       -3995.26122137 eV
  | Hartree energy correction     :          -8.29074054 Ha        -225.60252872 eV
  | vdW energy correction         :           0.00000000 Ha           0.00000000 eV
  | Entropy correction            :           0.00000000 Ha           0.00000000 eV
  | ---------------------------
  | Total energy                  :        -323.51132857 Ha       -8803.19115169 eV
  | Total energy, T -> 0          :        -323.51132857 Ha       -8803.19115169 eV  <-- do not rely on this value for anything but (periodic) metals
  | Electronic free energy        :        -323.51132857 Ha       -8803.19115169 eV

  Derived energy quantities:
  | Kinetic energy                :         323.19847070 Ha        8794.67785600 eV
  | Electrostatic energy          :        -604.06933281 Ha      -16437.56287969 eV
  | Energy correction for multipole
  | error in Hartree potential    :           0.03647065 Ha           0.99241681 eV
  | Sum of eigenvalues per atom                           :        -377.98792619 eV
  | Total energy (T->0) per atom                          :        -677.16855013 eV  <-- do not rely on this value for anything but (periodic) metals
  | Electronic free energy per atom                       :        -677.16855013 eV

  Self-consistency convergence accuracy:
  | Change of charge density      :  0.1990E+00
  | Change of sum of eigenvalues  :  0.3713E+02 eV
  | Change of total energy        :  0.3313E+00 eV

  End self-consistency iteration #     3       :  max(cpu_time)    wall_clock(cpu1)
  | Time for this iteration                    :        1.184 s           1.186 s
  | Charge density update                      :        0.387 s           0.387 s
  | Density mixing                             :        0.008 s           0.009 s
  | Hartree multipole update                   :        0.009 s           0.008 s
  | Hartree multipole summation                :        0.282 s           0.282 s
  | Integration                                :        0.496 s           0.497 s
  | Solution of K.-S. eqns.                    :        0.002 s           0.002 s
  | Total energy evaluation                    :        0.000 s           0.001 s

  Partial memory accounting:
  | Current value for overall tracked memory usage on task 0  :           0.166 MB
  | Peak value for overall tracked memory usage on task 0     :           0.695 MB after allocating gradient_basis_wave
  | Largest tracked array allocation on task 0 so far         :           0.397 MB  when allocating gradient_basis_wave
  Note:  These values currently only include a subset of arrays which are explicitly tracked.
  The "true" memory usage will be greater.
------------------------------------------------------------

------------------------------------------------------------
          Begin self-consistency iteration #    4

  Date     :  20200805, Time     :  185740.790
------------------------------------------------------------
  Evaluating new KS density.
  Integration grid: deviation in total charge (<rho> - N_e) =  -2.131628E-14
  Pulay mixing of updated and previous charge densities.

  Evaluating partitioned Hartree potential by multipole expansion.
  | Analytical far-field extrapolation by fixed multipoles:
  | Hartree multipole sum: apparent total charge =  -0.404888E-03
  Summing up the Hartree potential.
  Time summed over all CPUs for potential: real work        0.283 s, elapsed        0.283 s
  | RMS charge density error from multipole expansion :   0.258991E-01

  Integrating Hamiltonian matrix: batch-based integration.
  Time summed over all CPUs for integration: real work        0.494 s, elapsed        0.494 s

  Updating Kohn-Sham eigenvalues and eigenvectors using ELSI and the ELPA eigensolver.
  Finished Cholesky decomposition
  | Time :     0.000 s
  Finished transformation to standard eigenproblem
  | Time :     0.000 s
  Starting LAPACK eigensolver
  Finished solving standard eigenproblem
  | Time :     0.002 s
  Finished back-transformation of eigenvectors
  | Time :     0.000 s

  Obtaining occupation numbers and chemical potential using ELSI.
  | Chemical potential (Fermi level):    -2.62550148eV
  Highest occupied state (VBM) at     -5.66178284 eV
  | Occupation number:      2.00000000

  Lowest unoccupied state (CBM) at    -0.62931954 eV
  | Occupation number:      0.00000000

  Overall HOMO-LUMO gap:      5.03246329 eV.

  Total energy components:
  | Sum of eigenvalues            :        -180.49951674 Ha       -4911.64175211 eV
  | XC energy correction          :         -42.67276005 Ha       -1161.18488151 eV
  | XC potential correction       :          54.86379550 Ha        1492.91983458 eV
  | Free-atom electrostatic energy:        -146.82315122 Ha       -3995.26122137 eV
  | Hartree energy correction     :          -8.37875989 Ha        -227.99765705 eV
  | vdW energy correction         :           0.00000000 Ha           0.00000000 eV
  | Entropy correction            :           0.00000000 Ha           0.00000000 eV
  | ---------------------------
  | Total energy                  :        -323.51039240 Ha       -8803.16567746 eV
  | Total energy, T -> 0          :        -323.51039240 Ha       -8803.16567746 eV  <-- do not rely on this value for anything but (periodic) metals
  | Electronic free energy        :        -323.51039240 Ha       -8803.16567746 eV

  Derived energy quantities:
  | Kinetic energy                :         322.78345607 Ha        8783.38473348 eV
  | Electrostatic energy          :        -603.62108842 Ha      -16425.36552943 eV
  | Energy correction for multipole
  | error in Hartree potential    :           0.04022920 Ha           1.09469220 eV
  | Sum of eigenvalues per atom                           :        -377.81859632 eV
  | Total energy (T->0) per atom                          :        -677.16659057 eV  <-- do not rely on this value for anything but (periodic) metals
  | Electronic free energy per atom                       :        -677.16659057 eV

  Self-consistency convergence accuracy:
  | Change of charge density      :  0.6372E-01
  | Change of sum of eigenvalues  :  0.2201E+01 eV
  | Change of total energy        :  0.2547E-01 eV

  End self-consistency iteration #     4       :  max(cpu_time)    wall_clock(cpu1)
  | Time for this iteration                    :        1.184 s           1.186 s
  | Charge density update                      :        0.387 s           0.388 s
  | Density mixing                             :        0.010 s           0.009 s
  | Hartree multipole update                   :        0.009 s           0.009 s
  | Hartree multipole summation                :        0.283 s           0.283 s
  | Integration                                :        0.493 s           0.494 s
  | Solution of K.-S. eqns.                    :        0.002 s           0.003 s
  | Total energy evaluation                    :        0.000 s           0.000 s

  Partial memory accounting:
  | Current value for overall tracked memory usage on task 0  :           0.166 MB
  | Peak value for overall tracked memory usage on task 0     :           0.696 MB after allocating gradient_basis_wave
  | Largest tracked array allocation on task 0 so far         :           0.397 MB  when allocating gradient_basis_wave
  Note:  These values currently only include a subset of arrays which are explicitly tracked.
  The "true" memory usage will be greater.
------------------------------------------------------------

------------------------------------------------------------
          Begin self-consistency iteration #    5

  Date     :  20200805, Time     :  185741.977
------------------------------------------------------------
  Evaluating new KS density.
  Integration grid: deviation in total charge (<rho> - N_e) =  -2.131628E-14
  Pulay mixing of updated and previous charge densities.

  Evaluating partitioned Hartree potential by multipole expansion.
  | Analytical far-field extrapolation by fixed multipoles:
  | Hartree multipole sum: apparent total charge =  -0.400569E-03
  Summing up the Hartree potential.
  Time summed over all CPUs for potential: real work        0.282 s, elapsed        0.282 s
  | RMS charge density error from multipole expansion :   0.256418E-01

  Integrating Hamiltonian matrix: batch-based integration.
  Time summed over all CPUs for integration: real work        0.494 s, elapsed        0.494 s

  Updating Kohn-Sham eigenvalues and eigenvectors using ELSI and the ELPA eigensolver.
  Finished Cholesky decomposition
  | Time :     0.000 s
  Finished transformation to standard eigenproblem
  | Time :     0.000 s
  Starting LAPACK eigensolver
  Finished solving standard eigenproblem
  | Time :     0.002 s
  Finished back-transformation of eigenvectors
  | Time :     0.000 s

  Obtaining occupation numbers and chemical potential using ELSI.
  | Chemical potential (Fermi level):    -2.66612817eV
  Highest occupied state (VBM) at     -5.78114654 eV
  | Occupation number:      2.00000000

  Lowest unoccupied state (CBM) at    -0.68807028 eV
  | Occupation number:      0.00000000

  Overall HOMO-LUMO gap:      5.09307626 eV.

  Total energy components:
  | Sum of eigenvalues            :        -180.62552478 Ha       -4915.07060520 eV
  | XC energy correction          :         -42.65604570 Ha       -1160.73006082 eV
  | XC potential correction       :          54.84214844 Ha        1492.33078789 eV
  | Free-atom electrostatic energy:        -146.82315122 Ha       -3995.26122137 eV
  | Hartree energy correction     :          -8.24752142 Ha        -224.42647665 eV
  | vdW energy correction         :           0.00000000 Ha           0.00000000 eV
  | Entropy correction            :           0.00000000 Ha           0.00000000 eV
  | ---------------------------
  | Total energy                  :        -323.51009469 Ha       -8803.15757615 eV
  | Total energy, T -> 0          :        -323.51009469 Ha       -8803.15757615 eV  <-- do not rely on this value for anything but (periodic) metals
  | Electronic free energy        :        -323.51009469 Ha       -8803.15757615 eV

  Derived energy quantities:
  | Kinetic energy                :         322.72025593 Ha        8781.66497010 eV
  | Electrostatic energy          :        -603.57430492 Ha      -16424.09248543 eV
  | Energy correction for multipole
  | error in Hartree potential    :           0.03968050 Ha           1.07976142 eV
  | Sum of eigenvalues per atom                           :        -378.08235425 eV
  | Total energy (T->0) per atom                          :        -677.16596740 eV  <-- do not rely on this value for anything but (periodic) metals
  | Electronic free energy per atom                       :        -677.16596740 eV

  Self-consistency convergence accuracy:
  | Change of charge density      :  0.2259E-01
  | Change of sum of eigenvalues  : -0.3429E+01 eV
  | Change of total energy        :  0.8101E-02 eV

  End self-consistency iteration #     5       :  max(cpu_time)    wall_clock(cpu1)
  | Time for this iteration                    :        1.184 s           1.185 s
  | Charge density update                      :        0.386 s           0.386 s
  | Density mixing                             :        0.011 s           0.011 s
  | Hartree multipole update                   :        0.009 s           0.009 s
  | Hartree multipole summation                :        0.283 s           0.283 s
  | Integration                                :        0.494 s           0.494 s
  | Solution of K.-S. eqns.                    :        0.002 s           0.002 s
  | Total energy evaluation                    :        0.000 s           0.000 s

  Partial memory accounting:
  | Current value for overall tracked memory usage on task 0  :           0.166 MB
  | Peak value for overall tracked memory usage on task 0     :           0.696 MB after allocating gradient_basis_wave
  | Largest tracked array allocation on task 0 so far         :           0.397 MB  when allocating gradient_basis_wave
  Note:  These values currently only include a subset of arrays which are explicitly tracked.
  The "true" memory usage will be greater.
------------------------------------------------------------

------------------------------------------------------------
          Begin self-consistency iteration #    6

  Date     :  20200805, Time     :  185743.163
------------------------------------------------------------
  Evaluating new KS density.
  Integration grid: deviation in total charge (<rho> - N_e) =  -3.552714E-14
  Pulay mixing of updated and previous charge densities.

  Evaluating partitioned Hartree potential by multipole expansion.
  | Analytical far-field extrapolation by fixed multipoles:
  | Hartree multipole sum: apparent total charge =  -0.401777E-03
  Summing up the Hartree potential.
  Time summed over all CPUs for potential: real work        0.282 s, elapsed        0.282 s
  | RMS charge density error from multipole expansion :   0.258959E-01

  Integrating Hamiltonian matrix: batch-based integration.
  Time summed over all CPUs for integration: real work        0.493 s, elapsed        0.493 s

  Updating Kohn-Sham eigenvalues and eigenvectors using ELSI and the ELPA eigensolver.
  Finished Cholesky decomposition
  | Time :     0.000 s
  Finished transformation to standard eigenproblem
  | Time :     0.000 s
  Starting LAPACK eigensolver
  Finished solving standard eigenproblem
  | Time :     0.002 s
  Finished back-transformation of eigenvectors
  | Time :     0.000 s

  Obtaining occupation numbers and chemical potential using ELSI.
  | Chemical potential (Fermi level):    -2.68787372eV
  Highest occupied state (VBM) at     -5.82208486 eV
  | Occupation number:      2.00000000

  Lowest unoccupied state (CBM) at    -0.73062536 eV
  | Occupation number:      0.00000000

  Overall HOMO-LUMO gap:      5.09145950 eV.

  Total energy components:
  | Sum of eigenvalues            :        -180.69345968 Ha       -4916.91920805 eV
  | XC energy correction          :         -42.64680316 Ha       -1160.47855851 eV
  | XC potential correction       :          54.83015502 Ha        1492.00443041 eV
  | Free-atom electrostatic energy:        -146.82315122 Ha       -3995.26122137 eV
  | Hartree energy correction     :          -8.17675155 Ha        -222.50073029 eV
  | vdW energy correction         :           0.00000000 Ha           0.00000000 eV
  | Entropy correction            :           0.00000000 Ha           0.00000000 eV
  | ---------------------------
  | Total energy                  :        -323.51001059 Ha       -8803.15528780 eV
  | Total energy, T -> 0          :        -323.51001059 Ha       -8803.15528780 eV  <-- do not rely on this value for anything but (periodic) metals
  | Electronic free energy        :        -323.51001059 Ha       -8803.15528780 eV

  Derived energy quantities:
  | Kinetic energy                :         322.61943150 Ha        8778.92139782 eV
  | Electrostatic energy          :        -603.48263893 Ha      -16421.59812712 eV
  | Energy correction for multipole
  | error in Hartree potential    :           0.03964201 Ha           1.07871397 eV
  | Sum of eigenvalues per atom                           :        -378.22455447 eV
  | Total energy (T->0) per atom                          :        -677.16579137 eV  <-- do not rely on this value for anything but (periodic) metals
  | Electronic free energy per atom                       :        -677.16579137 eV

  Self-consistency convergence accuracy:
  | Change of charge density      :  0.1113E-01
  | Change of sum of eigenvalues  : -0.1849E+01 eV
  | Change of total energy        :  0.2288E-02 eV

  End self-consistency iteration #     6       :  max(cpu_time)    wall_clock(cpu1)
  | Time for this iteration                    :        1.184 s           1.186 s
  | Charge density update                      :        0.386 s           0.386 s
  | Density mixing                             :        0.012 s           0.012 s
  | Hartree multipole update                   :        0.009 s           0.009 s
  | Hartree multipole summation                :        0.282 s           0.283 s
  | Integration                                :        0.493 s           0.493 s
  | Solution of K.-S. eqns.                    :        0.002 s           0.002 s
  | Total energy evaluation                    :        0.000 s           0.000 s

  Partial memory accounting:
  | Current value for overall tracked memory usage on task 0  :           0.166 MB
  | Peak value for overall tracked memory usage on task 0     :           0.696 MB after allocating gradient_basis_wave
  | Largest tracked array allocation on task 0 so far         :           0.397 MB  when allocating gradient_basis_wave
  Note:  These values currently only include a subset of arrays which are explicitly tracked.
  The "true" memory usage will be greater.
------------------------------------------------------------

------------------------------------------------------------
          Begin self-consistency iteration #    7

  Date     :  20200805, Time     :  185744.349
------------------------------------------------------------
  Evaluating new KS density.
  Integration grid: deviation in total charge (<rho> - N_e) =   1.421085E-14
  Pulay mixing of updated and previous charge densities.

  Evaluating partitioned Hartree potential by multipole expansion.
  | Analytical far-field extrapolation by fixed multipoles:
  | Hartree multipole sum: apparent total charge =  -0.403546E-03
  Summing up the Hartree potential.
  Time summed over all CPUs for potential: real work        0.282 s, elapsed        0.282 s
  | RMS charge density error from multipole expansion :   0.260619E-01

  Integrating Hamiltonian matrix: batch-based integration.
  Time summed over all CPUs for integration: real work        0.493 s, elapsed        0.493 s

  Updating Kohn-Sham eigenvalues and eigenvectors using ELSI and the ELPA eigensolver.
  Finished Cholesky decomposition
  | Time :     0.000 s
  Finished transformation to standard eigenproblem
  | Time :     0.000 s
  Starting LAPACK eigensolver
  Finished solving standard eigenproblem
  | Time :     0.002 s
  Finished back-transformation of eigenvectors
  | Time :     0.000 s

[...]
  |   Hirshfeld dipole moment :      0.06544932
  |   Hirshfeld second moments:     -0.00415155      -0.02448654      -0.01457081
  |                                 -0.02448654      -0.03068462       0.00524356
  |                                 -0.01457081       0.00524356      -0.02630829
  ----------------------------------------------------------------------
  | Atom    12: O
  |   Hirshfeld charge        :     -0.15367225
  |   Free atom volume        :     23.61338643
  |   Hirshfeld volume        :     21.29383934
  |   Hirshfeld dipole vector :      0.01657632       0.03797862      -0.01103676
  |   Hirshfeld dipole moment :      0.04288310
  |   Hirshfeld second moments:      0.04934914      -0.00972919       0.00821079
  |                                 -0.00972919       0.02265706       0.01277207
  |                                  0.00821079       0.01277207       0.07369897
  ----------------------------------------------------------------------
  | Atom    13: H
  |   Hirshfeld charge        :      0.11495615
  |   Free atom volume        :      9.95071624
  |   Hirshfeld volume        :      7.25885254
  |   Hirshfeld dipole vector :     -0.00707365      -0.00610281      -0.06426417
  |   Hirshfeld dipole moment :      0.06493970
  |   Hirshfeld second moments:      0.10186880      -0.00650381       0.00206466
  |                                 -0.00650381       0.06050126       0.03528650
  |                                  0.00206466       0.03528650       0.07276757
  ----------------------------------------------------------------------


  Total energy components:
  | Sum of eigenvalues            :        -180.67882141 Ha       -4916.52088034 eV
  | XC energy correction          :         -42.64543097 Ha       -1160.44121943 eV
  | XC potential correction       :          54.82845291 Ha        1491.95811379 eV
  | Free-atom electrostatic energy:        -146.82315122 Ha       -3995.26122137 eV
  | Hartree energy correction     :          -8.19104233 Ha        -222.88960232 eV
  | vdW energy correction         :          -0.00341963 Ha          -0.09305275 eV
  | Entropy correction            :           0.00000000 Ha           0.00000000 eV
  | ---------------------------
  | Total energy                  :        -323.51341265 Ha       -8803.24786242 eV
  | Total energy, T -> 0          :        -323.51341265 Ha       -8803.24786242 eV  <-- do not rely on this value for anything but (periodic) metals
  | Electronic free energy        :        -323.51341265 Ha       -8803.24786242 eV

  Derived energy quantities:
  | Kinetic energy                :         322.58326603 Ha        8777.93728510 eV
  | Electrostatic energy          :        -603.44782807 Ha      -16420.65087534 eV
  | Energy correction for multipole
  | error in Hartree potential    :           0.03969144 Ha           1.08005913 eV
  | Sum of eigenvalues per atom                           :        -378.19391387 eV
  | Total energy (T->0) per atom                          :        -677.17291249 eV  <-- do not rely on this value for anything but (periodic) metals
  | Electronic free energy per atom                       :        -677.17291249 eV

  atomic forces [eV/Ang]:
  -----------------------
  atom #    1
   Hellmann-Feynman              :  0.103002E+01  0.744695E-01  0.173104E+01
   Ionic forces                  :  0.000000E+00  0.000000E+00  0.000000E+00
   Multipole                     :  0.103019E+00  0.373138E+00 -0.311303E+00
   Pulay + GGA                   : -0.108487E+01  0.222391E+00 -0.153696E+01
   Van der Waals                 :  0.194723E-02  0.754987E-03 -0.106142E-02
   ----------------------------------------------------------------
   Total forces(   1)            :  0.501090E-01  0.670754E+00 -0.118286E+00
  atom #    2
   Hellmann-Feynman              :  0.284812E+00  0.102256E-01  0.928049E-01
   Ionic forces                  :  0.000000E+00  0.000000E+00  0.000000E+00
   Multipole                     :  0.172602E+00  0.373909E-01  0.844112E-02
   Pulay + GGA                   : -0.129740E+00  0.114109E-01  0.511589E-01
   Van der Waals                 :  0.654602E-02 -0.430550E-02 -0.513445E-02
   ----------------------------------------------------------------
   Total forces(   2)            :  0.334220E+00  0.547218E-01  0.147270E+00
  atom #    3
   Hellmann-Feynman              : -0.655668E+01 -0.851957E+01  0.488860E+00
   Ionic forces                  :  0.000000E+00  0.000000E+00  0.000000E+00
   Multipole                     : -0.160536E+00  0.166396E+00 -0.850216E+00
   Pulay + GGA                   :  0.676842E+01  0.779794E+01  0.101489E+01
   Van der Waals                 :  0.357446E-02 -0.522629E-02 -0.905601E-02
   ----------------------------------------------------------------
   Total forces(   3)            :  0.547784E-01 -0.560462E+00  0.644473E+00
  atom #    4
   Hellmann-Feynman              :  0.537229E-01  0.489179E-01 -0.235706E+00
   Ionic forces                  :  0.000000E+00  0.000000E+00  0.000000E+00
   Multipole                     : -0.660854E-01  0.678656E-01 -0.891856E-01
   Pulay + GGA                   :  0.308755E-01 -0.236126E+00  0.577078E-01
   Van der Waals                 : -0.572171E-03 -0.487111E-02 -0.680117E-02
   ----------------------------------------------------------------
   Total forces(   4)            :  0.179408E-01 -0.124214E+00 -0.273985E+00
  atom #    5
   Hellmann-Feynman              :  0.853698E-01  0.222000E+00 -0.294127E+00
   Ionic forces                  :  0.000000E+00  0.000000E+00  0.000000E+00
   Multipole                     :  0.350606E-01 -0.134966E-01 -0.122493E+00
   Pulay + GGA                   : -0.189251E+00 -0.184641E-01  0.139657E+00
   Van der Waals                 : -0.125504E-02  0.381800E-02  0.293684E-02
   ----------------------------------------------------------------
   Total forces(   5)            : -0.700759E-01  0.193857E+00 -0.274027E+00
  atom #    6
   Hellmann-Feynman              : -0.651066E-01 -0.392814E+00  0.172816E+00
   Ionic forces                  :  0.000000E+00  0.000000E+00  0.000000E+00
   Multipole                     : -0.549156E-01  0.593564E+00  0.261468E+00
   Pulay + GGA                   :  0.311763E+00 -0.662417E+00 -0.358948E+00
   Van der Waals                 : -0.231547E-02  0.295406E-02 -0.514545E-02
   ----------------------------------------------------------------
   Total forces(   6)            :  0.189425E+00 -0.458712E+00  0.701906E-01
  atom #    7
   Hellmann-Feynman              : -0.244729E+00 -0.571490E-01 -0.278090E-01
   Ionic forces                  :  0.000000E+00  0.000000E+00  0.000000E+00
   Multipole                     : -0.119380E+00  0.485199E-01  0.262725E-01
   Pulay + GGA                   :  0.110840E+00 -0.263755E-02  0.298334E-01
   Van der Waals                 : -0.324599E-02  0.228286E-02  0.898136E-02
   ----------------------------------------------------------------
   Total forces(   7)            : -0.256515E+00 -0.898385E-02  0.372782E-01
  atom #    8
   Hellmann-Feynman              :  0.268931E-01 -0.394619E-01  0.148629E+00
   Ionic forces                  :  0.000000E+00  0.000000E+00  0.000000E+00
   Multipole                     :  0.184073E-01  0.662857E-01  0.120735E+00
   Pulay + GGA                   : -0.536596E-01 -0.560061E-01 -0.120511E+00
   Van der Waals                 : -0.290802E-02  0.114286E-01  0.629088E-03
   ----------------------------------------------------------------
   Total forces(   8)            : -0.112672E-01 -0.177537E-01  0.149482E+00
  atom #    9
   Hellmann-Feynman              :  0.132436E+00  0.721940E-01 -0.176496E+00
   Ionic forces                  :  0.000000E+00  0.000000E+00  0.000000E+00
   Multipole                     :  0.172146E-01  0.127578E+00 -0.988909E-02
   Pulay + GGA                   : -0.253043E-01 -0.658293E-01  0.748293E-01
   Van der Waals                 : -0.361077E-03  0.577495E-02  0.723133E-02
   ----------------------------------------------------------------
   Total forces(   9)            :  0.123985E+00  0.139718E+00 -0.104325E+00
  atom #   10
   Hellmann-Feynman              :  0.185677E+01  0.299931E+01  0.151406E+01
   Ionic forces                  :  0.000000E+00  0.000000E+00  0.000000E+00
   Multipole                     :  0.319820E-01 -0.825513E-01  0.243374E+00
   Pulay + GGA                   : -0.128868E+01 -0.240058E+01 -0.104725E+00
   Van der Waals                 :  0.181600E-02 -0.108725E-01 -0.184489E-02
   ----------------------------------------------------------------
   Total forces(  10)            :  0.601884E+00  0.505308E+00  0.165086E+01
  atom #   11
   Hellmann-Feynman              :  0.420126E+01 -0.232329E+01  0.143340E+02
   Ionic forces                  :  0.000000E+00  0.000000E+00  0.000000E+00
   Multipole                     :  0.187140E+00 -0.631186E+00  0.942569E+00
   Pulay + GGA                   : -0.356100E+01  0.370712E+01 -0.140372E+02
   Van der Waals                 : -0.115717E-02 -0.121085E-01  0.802472E-02
   ----------------------------------------------------------------
   Total forces(  11)            :  0.826236E+00  0.740529E+00  0.124734E+01
  atom #   12
   Hellmann-Feynman              : -0.667008E+01 -0.122876E+02  0.152793E+01
   Ionic forces                  :  0.000000E+00  0.000000E+00  0.000000E+00
   Multipole                     : -0.794686E+00 -0.149496E+01 -0.133945E-01
   Pulay + GGA                   :  0.646135E+01  0.125534E+02 -0.306061E+01
   Van der Waals                 :  0.198945E-02  0.100543E-01  0.780253E-03
   ----------------------------------------------------------------
   Total forces(  12)            : -0.100143E+01 -0.121910E+01 -0.154529E+01
  atom #   13
   Hellmann-Feynman              : -0.862455E+00  0.163879E+00 -0.192751E+01
   Ionic forces                  :  0.000000E+00  0.000000E+00  0.000000E+00
   Multipole                     :  0.197654E-01  0.683337E-01 -0.821572E-01
   Pulay + GGA                   : -0.119750E-01 -0.145992E+00  0.369974E+00
   Van der Waals                 : -0.405823E-02  0.316133E-03  0.459797E-03
   ----------------------------------------------------------------
   Total forces(  13)            : -0.858723E+00  0.865361E-01 -0.163923E+01

  Timings for VdW correction (Tkatchenko-Scheffler 2009 or later):
  | CPU time:        0.090 s, Wall clock time:        0.090 s.
  Removing unitary transformations (pure translations, rotations) from forces on atoms.
  Atomic forces before filtering:
  | Net force on center of mass :   0.571645E-03  0.219828E-02 -0.825066E-02 eV/A
  | Net torque on center of mass:   0.860971E-02 -0.270723E-02 -0.406455E-02 eV
  Atomic forces after filtering:
  | Net force on center of mass :   0.178406E-15  0.156105E-15 -0.713624E-15 eV/A
  | Net torque on center of mass:  -0.519247E-15  0.188817E-15  0.377634E-15 eV

  Energy and forces in a compact form:
  | Total energy uncorrected      :         -0.880324786241627E+04 eV
  | Total energy corrected        :         -0.880324786241627E+04 eV  <-- do not rely on this value for anything but (periodic) metals
  | Electronic free energy        :         -0.880324786241627E+04 eV
  Total atomic forces (unitary forces cleaned) [eV/Ang]:
  |   1          0.500629907681006E-01          0.670637127100917E+00         -0.117693372668345E+00
  |   2          0.334174058575432E+00          0.547679228256287E-01          0.147740038754107E+00
  |   3          0.545738266185440E-01         -0.560953169837307E+00          0.645118842382611E+00
  |   4          0.175792085470856E-01         -0.124812562948664E+00         -0.273484246822879E+00
  |   5         -0.703267558387728E-01          0.193352011577856E+00         -0.273436840069092E+00
  |   6          0.189273228252773E+00         -0.458746513863877E+00          0.705675738018607E-01
  |   7         -0.256669853820745E+00         -0.917737449150144E-02          0.377720941462055E-01
  |   8         -0.113053422022050E-01         -0.175125680398128E-01          0.149815777647559E+00
  |   9          0.123642662323416E+00          0.139629022200858E+00         -0.104181581165551E+00
  |  10          0.602113169217111E+00          0.505291820344590E+00          0.165177270658476E+01
  |  11          0.826634306096039E+00          0.740801811825533E+00          0.124827856623497E+01
  |  12         -0.100114513277932E+01         -0.121936575836911E+01         -0.154411129440577E+01
  |  13         -0.858606365757459E+00          0.860882316748937E-01         -0.163815826442043E+01

  ------------------------------------ 
  Start decomposition of the XC Energy 
  ------------------------------------ 
  X and C from original XC functional choice 
  Hartree-Fock Energy :          0.000000000 Ha              0.000000000 eV
  X Energy            :        -41.042356792 Ha          -1116.819351447 eV
  C Energy            :         -1.603074183 Ha            -43.621867979 eV
  Total XC Energy     :        -42.645430975 Ha          -1160.441219427 eV
  ------------------------------------ 
  LDA X and C from self-consistent density 
  X Energy LDA        :        -37.264644710 Ha          -1014.022575467 eV
  C Energy LDA        :         -3.139367239 Ha            -85.426529028 eV
  ------------------------------------ 
  End decomposition of the XC Energy 
  ------------------------------------ 

------------------------------------------------------------

------------------------------------------------------------------------------
  Final output of selected total energy values:

  The following output summarizes some interesting total energy values
  at the end of a run (AFTER all relaxation, molecular dynamics, etc.).

  | Total energy of the DFT / Hartree-Fock s.c.f. calculation      :          -8803.247862416 eV
  | Final zero-broadening corrected energy (caution - metals only) :          -8803.247862416 eV
  | For reference only, the value of 1 Hartree used in FHI-aims is :             27.211384500 eV

  Before relying on these values, please be sure to understand exactly which
  total energy value is referred to by a given number. Different objects may
  all carry the same name 'total energy'. Definitions:

  Total energy of the DFT / Hartree-Fock s.c.f. calculation:
  | Note that this energy does not include ANY quantities calculated after the
  | s.c.f. cycle, in particular not ANY RPA, MP2, etc. many-body perturbation terms.

  Final zero-broadening corrected energy:
  | For metallic systems only, a broadening of the occupation numbers at the Fermi
  | level can be extrapolated back to zero broadening by an electron-gas inspired
  | formula. For all systems that are not real metals, this value can be
  | meaningless and should be avoided.

------------------------------------------------------------------------------
  Methods described in the following list of references were used in this FHI-aims run.
  If you publish the results, please make sure to cite these reference if they apply.
  FHI-aims is an academic code, and for our developers (often, Ph.D. students
  and postdocs), scientific credit in the community is essential.
  Thank you for helping us!

  For any use of FHI-aims, please cite:

    Volker Blum, Ralf Gehrke, Felix Hanke, Paula Havu, Ville Havu,
    Xinguo Ren, Karsten Reuter, and Matthias Scheffler
    'Ab initio molecular simulations with numeric atom-centered orbitals'
    Computer Physics Communications 180, 2175-2196 (2009)
    http://dx.doi.org/10.1016/j.cpc.2009.06.022


  The scalable eigensolver library ELPA was used in your run.
  ELPA is essential especially for large systems on hundreds or thousands of CPUs.
  For ELPA, please cite:

    Andreas Marek, Volker Blum, Rainer Johanni, Ville Havu, Bruno Lang,
    Thomas Auckenthaler, Alexander Heinecke, Hans-Joachim Bungartz, and Hermann Lederer,
    'The ELPA Library - Scalable Parallel Eigenvalue Solutions
    for Electronic Structure Theory and Computational Science'
    The Journal of Physics: Condensed Matter 26, 213201 (2014).
    http://dx.doi.org/10.1088/0953-8984/26/21/213201


  The ELSI infrastructure was used in your run to solve the Kohn-Sham electronic structure.
  Please check out http://elsi-interchange.org to learn more.
  If scalability is important for your project, please acknowledge ELSI by citing:

    V. W-z. Yu, F. Corsetti, A. Garcia, W. P. Huhn, M. Jacquelin, W. Jia,
    B. Lange, L. Lin, J. Lu, W. Mi, A. Seifitokaldani, A. Vazquez-Mayagoitia,
    C. Yang, H. Yang, and V. Blum
    'ELSI: A unified software interface for Kohn-Sham electronic structure solvers'
    Computer Physics Communications 222, 267-285 (2018).
    http://dx.doi.org/10.1016/j.cpc.2017.09.007


  For the real-space grid partitioning and parallelization used in this calculation, please cite:

    Ville Havu, Volker Blum, Paula Havu, and Matthias Scheffler,
    'Efficient O(N) integration for all-electron electronic structure calculation'
    'using numerically tabulated basis functions'
    Journal of Computational Physics 228, 8367-8379 (2009).
    http://dx.doi.org/10.1016/j.jcp.2009.08.008

  Of course, there are many other important community references, e.g., those cited in the
  above references. Our list is limited to references that describe implementations in the
  FHI-aims code. The reason is purely practical (length of this list) - please credit others as well.

------------------------------------------------------------
          Leaving FHI-aims.
          Date     :  20200805, Time     :  185758.591

          Computational steps:
          | Number of self-consistency cycles          :           16
          | Number of SCF (re)initializations          :            1

          Detailed time accounting                     :  max(cpu_time)    wall_clock(cpu1)
          | Total time                                 :       22.626 s          22.690 s
          | Preparation time                           :        0.146 s           0.147 s
          | Boundary condition initalization           :        0.000 s           0.000 s
          | Grid partitioning                          :        0.110 s           0.111 s
          | Preloading free-atom quantities on grid    :        0.002 s           0.003 s
          | Free-atom superposition energy             :        0.085 s           0.085 s
          | Total time for integrations                :        8.601 s           8.623 s
          | Total time for solution of K.-S. equations :        0.037 s           0.039 s
          | Total time for density & force components  :        7.130 s           7.147 s
          | Total time for mixing                      :        0.216 s           0.220 s
          | Total time for Hartree multipole update    :        0.140 s           0.142 s
          | Total time for Hartree multipole sum       :        5.755 s           5.763 s
          | Total time for total energy evaluation     :        0.003 s           0.003 s
          | Total time for vdW correction              :        0.090 s           0.090 s

          Partial memory accounting:
          | Residual value for overall tracked memory usage across tasks :           0.000 MB (should be 0.000 MB)
          | Peak values for overall tracked memory usage (after allocating hessian_basis_wave):
          |   Minimum:        1.622 MB (on task 1)
          |   Maximum:        1.622 MB (on task 1)
          |   Average:        1.622 MB
          | Largest tracked array allocation (hessian_basis_wave):
          |   Minimum:        0.794 MB (on task 1)
          |   Maximum:        0.794 MB (on task 1)
          |   Average:        0.794 MB
          Note:  These values currently only include a subset of arrays which are explicitly tracked.
          The "true" memory usage will be greater.

          Have a nice day.
------------------------------------------------------------
