  MPI-parallelism will be employed.
------------------------------------------------------------
          Invoking FHI-aims ...
          Version 171221_1
          Compiled on 2019/09/09 at 14:39:39 on host puhti-login2.bullx.

          When using FHI-aims, please cite the following reference:

          Volker Blum, Ralf Gehrke, Felix Hanke, Paula Havu,
          Ville Havu, Xinguo Ren, Karsten Reuter, and Matthias Scheffler,
          'Ab Initio Molecular Simulations with Numeric Atom-Centered Orbitals',
          Computer Physics Communications 180, 2175-2196 (2009)

          For any questions about FHI-aims, please visit the aimsclub website
          with its forums and wiki. Contributions to both the forums and the
          wiki are warmly encouraged - they are for you, and everyone is welcome there.

------------------------------------------------------------



  Date     :  20200710, Time     :  150738.048
  Time zero on CPU 1             :   0.112620000000000E-01  s.
  Internal wall clock time zero  :           363625658.048  s.

  FHI-aims created a unique identifier for this run for later identification
  aims_uuid : 5B63A1F3-5D26-4FB2-A3FD-BCAB189C84F8

  Using        1 parallel tasks.
  Task        0 on host r18c45.bullx reporting.

  Performing system and environment tests:
  | Environment variable OMP_NUM_THREADS correctly set to 1.
  | Stacksize not measured: no C compiler
  | Checking for scalapack...
  | Testing pdtran()...
  | All pdtran() tests passed.

  Obtaining array dimensions for all initial allocations:
  
  -----------------------------------------------------------------------
  Parsing control.in (first pass over file, find array dimensions only).
  The contents of control.in will be repeated verbatim below
  unless switched off by setting 'verbatim_writeout .false.' .
  in the first line of control.in .
  -----------------------------------------------------------------------
  
  #########################################################################################
  #
  #  Volker Blum, FHI 2009 : Test run input file control.in for simple H2O
  #
  #########################################################################################
  #
  #  Physical model
  #
    xc                 pbe
    vdw_correction_hirshfeld
    spin               none
    relativistic       none
    charge             0.
  #
  #  SCF convergence
  #
    occupation_type    gaussian 0.01
    mixer              pulay
      n_max_pulay        10
      charge_mix_param   0.2
    sc_accuracy_rho    1E-5
    sc_accuracy_eev    1E-3
    sc_accuracy_etot   1E-6
    sc_accuracy_forces 1E-4
    sc_iter_limit      100
  #
  #  Relaxation
  #
  #  relax_geometry   bfgs 1.e-3
  #
  ################################################################################
  #
  #  FHI-aims code project
  #  VB, Fritz-Haber Institut, 2009
  #
  #  Suggested "light" defaults for H atom (to be pasted into control.in file)
  #  Be sure to double-check any results obtained with these settings for post-processing,
  #  e.g., with the "tight" defaults and larger basis sets.
  #
  ################################################################################
    species        H
  #     global species definitions
      nucleus             1
      mass                1.00794
  #
      l_hartree           4
  #
      cut_pot             3.5  1.5  1.0
      basis_dep_cutoff    1e-4
  #
      radial_base         24 5.0
      radial_multiplier   1
      angular_grids       specified
        division   0.2421   50
        division   0.3822  110
        division   0.4799  194
        division   0.5341  302
  #      division   0.5626  434
  #      division   0.5922  590
  #      division   0.6542  770
  #      division   0.6868 1202
  #      outer_grid  770
        outer_grid  302
  ################################################################################
  #
  #  Definition of "minimal" basis
  #
  ################################################################################
  #     valence basis states
      valence      1  s   1.
  #     ion occupancy
      ion_occ      1  s   0.5
  ################################################################################
  #
  #  Suggested additional basis functions. For production calculations,
  #  uncomment them one after another (the most important basis functions are
  #  listed first).
  #
  #  Basis constructed for dimers: 0.5 A, 0.7 A, 1.0 A, 1.5 A, 2.5 A
  #
  ################################################################################
  #  "First tier" - improvements: -1014.90 meV to -62.69 meV
       hydro 2 s 2.1
       hydro 2 p 3.5
  #  "Second tier" - improvements: -12.89 meV to -1.83 meV
  #     hydro 1 s 0.85
  #     hydro 2 p 3.7
  #     hydro 2 s 1.2
  #     hydro 3 d 7
  #  "Third tier" - improvements: -0.25 meV to -0.12 meV
  #     hydro 4 f 11.2
  #     hydro 3 p 4.8
  #     hydro 4 d 9
  #     hydro 3 s 3.2
  ################################################################################
  #
  #  FHI-aims code project
  #  VB, Fritz-Haber Institut, 2009
  #
  #  Suggested "light" defaults for C atom (to be pasted into control.in file)
  #  Be sure to double-check any results obtained with these settings for post-processing,
  #  e.g., with the "tight" defaults and larger basis sets.
  #
  ################################################################################
    species        C
  #     global species definitions
      nucleus             6
      mass                12.0107
  #
      l_hartree           4
  #
      cut_pot             3.5  1.5  1.0
      basis_dep_cutoff    1e-4
  #
      radial_base         34 5.0
      radial_multiplier   1
      angular_grids specified
        division   0.3326   50
        division   0.5710  110
        division   0.7727  194
        division   0.8772  302
  #      division   0.9334  434
  #      division   0.9625  590
  #      division   0.9924  770
  #      division   1.0230  974
  #      division   1.4589 1202
  #     outer_grid  974
       outer_grid 302
  ################################################################################
  #
  #  Definition of "minimal" basis
  #
  ################################################################################
  #     valence basis states
      valence      2  s   2.
      valence      2  p   2.
  #     ion occupancy
      ion_occ      2  s   1.
      ion_occ      2  p   1.
  ################################################################################
  #
  #  Suggested additional basis functions. For production calculations,
  #  uncomment them one after another (the most important basis functions are
  #  listed first).
  #
  #  Constructed for dimers: 1.0 A, 1.25 A, 1.5 A, 2.0 A, 3.0 A
  #
  ################################################################################
  #  "First tier" - improvements: -1214.57 meV to -155.61 meV
       hydro 2 p 1.7
       hydro 3 d 6
       hydro 2 s 4.9
  #  "Second tier" - improvements: -67.75 meV to -5.23 meV
  #     hydro 4 f 9.8
  #     hydro 3 p 5.2
  #     hydro 3 s 4.3
  #     hydro 5 g 14.4
  #     hydro 3 d 6.2
  #  "Third tier" - improvements: -2.43 meV to -0.60 meV
  #     hydro 2 p 5.6
  #     hydro 2 s 1.4
  #     hydro 3 d 4.9
  #     hydro 4 f 11.2
  #  "Fourth tier" - improvements: -0.39 meV to -0.18 meV
  #     hydro 2 p 2.1
  #     hydro 5 g 16.4
  #     hydro 4 d 13.2
  #     hydro 3 s 13.6
  #     hydro 4 f 17.6
  #  Further basis functions - improvements: -0.08 meV and below
  #     hydro 3 s 2
  #     hydro 3 p 6
  #     hydro 4 d 20
  ################################################################################
  #
  #  FHI-aims code project
  #  VB, Fritz-Haber Institut, 2009
  #
  #  Suggested "light" defaults for N atom (to be pasted into control.in file)
  #  Be sure to double-check any results obtained with these settings for post-processing,
  #  e.g., with the "tight" defaults and larger basis sets.
  #
  ################################################################################
    species        N
  #     global species definitions
      nucleus             7
      mass                14.0067
  #
      l_hartree           4
  #
      cut_pot             3.5  1.5  1.0
      basis_dep_cutoff    1e-4
  #
      radial_base         35 5.0
      radial_multiplier   1
      angular_grids       specified
        division   0.2599   50
        division   0.4601  110
        division   0.5885  194
        division   0.6503  302
  #      division   0.6939  434
  #      division   0.7396  590
  #      division   0.7632  770
  #      division   0.8122  974
  #      division   1.1604 1202
  #      outer_grid  974
        outer_grid  302
  ################################################################################
  #
  #  Definition of "minimal" basis
  #
  ################################################################################
  #     valence basis states
      valence      2  s   2.
      valence      2  p   3.
  #     ion occupancy
      ion_occ      2  s   1.
      ion_occ      2  p   2.
  ################################################################################
  #
  #  Suggested additional basis functions. For production calculations,
  #  uncomment them one after another (the most important basis functions are
  #  listed first).
  #
  #  Constructed for dimers: 1.0 A, 1.1 A, 1.5 A, 2.0 A, 3.0 A
  #
  ################################################################################
  #  "First tier" - improvements: -1193.42 meV to -220.60 meV
       hydro 2 p 1.8
       hydro 3 d 6.8
       hydro 3 s 5.8
  #  "Second tier" - improvements: -80.21 meV to -6.86 meV
  #     hydro 4 f 10.8
  #     hydro 3 p 5.8
  #     hydro 1 s 0.8
  #     hydro 5 g 16
  #     hydro 3 d 4.9
  #  "Third tier" - improvements: -4.29 meV to -0.53 meV
  #     hydro 3 s 16
  #     ionic 2 p auto
  #     hydro 3 d 6.6
  #     hydro 4 f 11.6
  #  "Fourth tier" - improvements: -0.75 meV to -0.25 meV
  #     hydro 2 p 4.5
  #     hydro 2 s 2.4
  #     hydro 5 g 14.4
  #     hydro 4 d 14.4
  #     hydro 4 f 16.8
  # Further basis functions - -0.21 meV and below
  #     hydro 3 p 14.8
  #     hydro 3 s 4.4
  #     hydro 3 d 19.6
  #     hydro 5 g 12.8
  ################################################################################
  #
  #  FHI-aims code project
  #  VB, Fritz-Haber Institut, 2009
  #
  #  Suggested "light" defaults for O atom (to be pasted into control.in file)
  #  Be sure to double-check any results obtained with these settings for post-processing,
  #  e.g., with the "tight" defaults and larger basis sets.
  #
  ################################################################################
    species        O
  #     global species definitions
      nucleus             8
      mass                15.9994
  #
      l_hartree           4
  #
      cut_pot             3.5  1.5  1.0
      basis_dep_cutoff    1e-4
  #
      radial_base         36 5.0
      radial_multiplier   1
       angular_grids specified
        division   0.2659   50
        division   0.4451  110
        division   0.6052  194
        division   0.7543  302
  #      division   0.8014  434
  #      division   0.8507  590
  #      division   0.8762  770
  #      division   0.9023  974
  #      division   1.2339 1202
  #      outer_grid 974
        outer_grid 302
  ################################################################################
  #
  #  Definition of "minimal" basis
  #
  ################################################################################
  #     valence basis states
      valence      2  s   2.
      valence      2  p   4.
  #     ion occupancy
      ion_occ      2  s   1.
      ion_occ      2  p   3.
  ################################################################################
  #
  #  Suggested additional basis functions. For production calculations,
  #  uncomment them one after another (the most important basis functions are
  #  listed first).
  #
  #  Constructed for dimers: 1.0 A, 1.208 A, 1.5 A, 2.0 A, 3.0 A
  #
  ################################################################################
  #  "First tier" - improvements: -699.05 meV to -159.38 meV
       hydro 2 p 1.8
       hydro 3 d 7.6
       hydro 3 s 6.4
  #  "Second tier" - improvements: -49.91 meV to -5.39 meV
  #     hydro 4 f 11.6
  #     hydro 3 p 6.2
  #     hydro 3 d 5.6
  #     hydro 5 g 17.6
  #     hydro 1 s 0.75
  #  "Third tier" - improvements: -2.83 meV to -0.50 meV
  #     ionic 2 p auto
  #     hydro 4 f 10.8
  #     hydro 4 d 4.7
  #     hydro 2 s 6.8
  #  "Fourth tier" - improvements: -0.40 meV to -0.12 meV
  #     hydro 3 p 5
  #     hydro 3 s 3.3
  #     hydro 5 g 15.6
  #     hydro 4 f 17.6
  #     hydro 4 d 14
  # Further basis functions - -0.08 meV and below
  #     hydro 3 s 2.1
  #     hydro 4 d 11.6
  #     hydro 3 p 16
  #     hydro 2 s 17.2
  
  -----------------------------------------------------------------------
  Completed first pass over input file control.in .
  -----------------------------------------------------------------------
  
  
  -----------------------------------------------------------------------
  Parsing geometry.in (first pass over file, find array dimensions only).
  The contents of geometry.in will be repeated verbatim below
  unless switched off by setting 'verbatim_writeout .false.' .
  in the first line of geometry.in .
  -----------------------------------------------------------------------
  
  atom  0.00000 0.00000 0.00000 C
  atom  1.09300 0.00000 0.00000 H
  atom  -0.47961 0.00000 -1.41207 N
  atom  -0.95943 0.88222 -1.59453 H
  atom  0.32331 -0.09817 -2.02998 H
  atom  -0.49584 1.26211 0.72868 C
  atom  -1.58789 1.28919 0.74431 H
  atom  -0.13407 1.27425 1.75947 H
  atom  -0.13407 2.16087 0.22380 H
  atom  -0.39425 -1.28861 0.74398 C
  atom  -0.10189 -1.56493 1.88303 O
  atom  -1.10210 -2.13717 0.06896 O
  atom  -1.98483 -1.82777 0.33360 H
  
  -----------------------------------------------------------------------
  Completed first pass over input file geometry.in .
  -----------------------------------------------------------------------
  

  Basic array size parameters:
  | Number of species                 :        4
  | Number of atoms                   :       13
  | Max. basis fn. angular momentum   :        2
  | Max. atomic/ionic basis occupied n:        2
  | Max. number of basis fn. types    :        2
  | Max. radial fns per species/type  :        3
  | Max. logarithmic grid size        :     1301
  | Max. radial integration grid size :       36
  | Max. angular integration grid size:      302
  | Max. angular grid division number :        8
  | Radial grid for Hartree potential :     1301
  | Number of spin channels           :        1

------------------------------------------------------------
          Reading file control.in.
------------------------------------------------------------
  XC: Using PBE gradient-corrected functionals.
  Spin treatment: No spin polarisation.
  Non-relativistic treatment of kinetic energy.
  Charge =   0.000000E+00: Neutral system requested explicitly.
  Occupation type: Gaussian broadening, width =   0.100000E-01 eV.
  Using pulay charge density mixing.
  Pulay mixing - number of memorized iterations:   10
  Charge density mixing - mixing parameter:     0.2000
  Convergence accuracy of self-consistent charge density:  0.1000E-04
  Convergence accuracy of sum of eigenvalues:  0.1000E-02
  Convergence accuracy of total energy:  0.1000E-05
  Convergence accuracy of forces:  0.1000E-03
  Maximum number of s.-c. iterations  :   100
 
  Reading configuration options for species H                   .
  | Found nuclear charge :   1.0000
  | Found atomic mass :    1.00794000000000      amu
  | Found l_max for Hartree potential  :   4
  | Found cutoff potl. onset [A], width [A], scale factor :    3.50000    1.50000    1.00000
  | Threshold for basis-dependent cutoff potential is   0.100000E-03
  | Found data for basic radial integration grid :    24 points, outermost radius =    5.000 A
  | Found multiplier for basic radial grid :   1
  | Found angular grid specification: user-specified.
  | Specified grid contains     5 separate shells.
  | Check grid settings after all constraints further below.
  | Found free-atom valence shell :  1 s   1.000
  | No ionic wave fns used. Skipping ion_occ.
  | Found hydrogenic basis function :  2 s   2.100
  | Found hydrogenic basis function :  2 p   3.500
  Species H                   : Missing cutoff potential type.
  Defaulting to exp(1/x)/(1-x)^2 type cutoff potential.
  Species H : No 'logarithmic' tag. Using default grid for free atom:
  | Default logarithmic grid data [bohr] : 0.1000E-03 0.1000E+03 0.1012E+01
  Species H : On-site basis accuracy parameter (for Gram-Schmidt orthonormalisation) not specified.
  Using default value basis_acc =  0.1000000E-03.
  Species H                   : Using default innermost maximum threshold i_radial=  2 for radial functions.
  Species H                   : Default cutoff onset for free atom density etc. : 0.35000000E+01 AA.
  Species H                   : Basic radial grid will be enhanced according to radial_multiplier =   1, to contain    24 grid points.
 
  Reading configuration options for species C                   .
  | Found nuclear charge :   6.0000
  | Found atomic mass :    12.0107000000000      amu
  | Found l_max for Hartree potential  :   4
  | Found cutoff potl. onset [A], width [A], scale factor :    3.50000    1.50000    1.00000
  | Threshold for basis-dependent cutoff potential is   0.100000E-03
  | Found data for basic radial integration grid :    34 points, outermost radius =    5.000 A
  | Found multiplier for basic radial grid :   1
  | Found angular grid specification: user-specified.
  | Specified grid contains     5 separate shells.
  | Check grid settings after all constraints further below.
  | Found free-atom valence shell :  2 s   2.000
  | Found free-atom valence shell :  2 p   2.000
  | No ionic wave fns used. Skipping ion_occ.
  | No ionic wave fns used. Skipping ion_occ.
  | Found hydrogenic basis function :  2 p   1.700
  | Found hydrogenic basis function :  3 d   6.000
  | Found hydrogenic basis function :  2 s   4.900
  Species C                   : Missing cutoff potential type.
  Defaulting to exp(1/x)/(1-x)^2 type cutoff potential.
  Species C : No 'logarithmic' tag. Using default grid for free atom:
  | Default logarithmic grid data [bohr] : 0.1000E-03 0.1000E+03 0.1012E+01
  Species C : On-site basis accuracy parameter (for Gram-Schmidt orthonormalisation) not specified.
  Using default value basis_acc =  0.1000000E-03.
  Species C                   : Using default innermost maximum threshold i_radial=  2 for radial functions.
  Species C                   : Default cutoff onset for free atom density etc. : 0.35000000E+01 AA.
  Species C                   : Basic radial grid will be enhanced according to radial_multiplier =   1, to contain    34 grid points.
 
  Reading configuration options for species N                   .
  | Found nuclear charge :   7.0000
  | Found atomic mass :    14.0067000000000      amu
  | Found l_max for Hartree potential  :   4
  | Found cutoff potl. onset [A], width [A], scale factor :    3.50000    1.50000    1.00000
  | Threshold for basis-dependent cutoff potential is   0.100000E-03
  | Found data for basic radial integration grid :    35 points, outermost radius =    5.000 A
  | Found multiplier for basic radial grid :   1
  | Found angular grid specification: user-specified.
  | Specified grid contains     5 separate shells.
  | Check grid settings after all constraints further below.
  | Found free-atom valence shell :  2 s   2.000
  | Found free-atom valence shell :  2 p   3.000
  | No ionic wave fns used. Skipping ion_occ.
  | No ionic wave fns used. Skipping ion_occ.
  | Found hydrogenic basis function :  2 p   1.800
  | Found hydrogenic basis function :  3 d   6.800
  | Found hydrogenic basis function :  3 s   5.800
  Species N                   : Missing cutoff potential type.
  Defaulting to exp(1/x)/(1-x)^2 type cutoff potential.
  Species N : No 'logarithmic' tag. Using default grid for free atom:
  | Default logarithmic grid data [bohr] : 0.1000E-03 0.1000E+03 0.1012E+01
  Species N : On-site basis accuracy parameter (for Gram-Schmidt orthonormalisation) not specified.
  Using default value basis_acc =  0.1000000E-03.
  Species N                   : Using default innermost maximum threshold i_radial=  2 for radial functions.
  Species N                   : Default cutoff onset for free atom density etc. : 0.35000000E+01 AA.
  Species N                   : Basic radial grid will be enhanced according to radial_multiplier =   1, to contain    35 grid points.
 
  Reading configuration options for species O                   .
  | Found nuclear charge :   8.0000
  | Found atomic mass :    15.9994000000000      amu
  | Found l_max for Hartree potential  :   4
  | Found cutoff potl. onset [A], width [A], scale factor :    3.50000    1.50000    1.00000
  | Threshold for basis-dependent cutoff potential is   0.100000E-03
  | Found data for basic radial integration grid :    36 points, outermost radius =    5.000 A
  | Found multiplier for basic radial grid :   1
  | Found angular grid specification: user-specified.
  | Specified grid contains     5 separate shells.
  | Check grid settings after all constraints further below.
  | Found free-atom valence shell :  2 s   2.000
  | Found free-atom valence shell :  2 p   4.000
  | No ionic wave fns used. Skipping ion_occ.
  | No ionic wave fns used. Skipping ion_occ.
  | Found hydrogenic basis function :  2 p   1.800
  | Found hydrogenic basis function :  3 d   7.600
  | Found hydrogenic basis function :  3 s   6.400
  Species O                   : Missing cutoff potential type.
  Defaulting to exp(1/x)/(1-x)^2 type cutoff potential.
  Species O : No 'logarithmic' tag. Using default grid for free atom:
  | Default logarithmic grid data [bohr] : 0.1000E-03 0.1000E+03 0.1012E+01
  Species O : On-site basis accuracy parameter (for Gram-Schmidt orthonormalisation) not specified.
  Using default value basis_acc =  0.1000000E-03.
  Species O                   : Using default innermost maximum threshold i_radial=  2 for radial functions.
  Species O                   : Default cutoff onset for free atom density etc. : 0.35000000E+01 AA.
  Species O                   : Basic radial grid will be enhanced according to radial_multiplier =   1, to contain    36 grid points.
 
  Finished reading input file 'control.in'. Consistency checks are next.
 
  MPI_IN_PLACE appears to work with this MPI implementation.
  | Keeping use_mpi_in_place .true. (see manual).
  Target number of points in a grid batch is not set. Defaulting to  100
  Method for grid partitioning is not set. Defaulting to parallel hash+maxmin partitioning.
  Batch size limit is not set. Defaulting to    200
  By default, will store active basis functions for each batch.
  If in need of memory, prune_basis_once .false. can be used to disable this option.
  communication_type for Hartree potential was not specified.
  Defaulting to calc_hartree .
  Pulay mixer: Number of initial linear mixing iterations not set.
  Defaulting to    0 iterations.
  Work space size for distributed Hartree potential not set.
  Defaulting to   0.200000E+03 MB.
  Algorithm-dependent basis array size parameters:
  | n_max_pulay                         :       10
  Presetting      1001 iterations before the initial mixing cycle
  is restarted anyway using the sc_init_iter criterion / keyword.
  Presetting a factor      1.000 between actual scf density residual
  and density convergence criterion sc_accuracy_rho below which sc_init_iter
  takes no effect.
  Geometry relaxation not requested: no relaxation will be performed.
  Handling of forces: Unphysical translation and rotation will be removed from forces.
  No accuracy limit for integral partition fn. given. Defaulting to  0.1000E-14.
  No threshold value for u(r) in integrations given. Defaulting to  0.1000E-05.
  No accuracy for occupation numbers given. Defaulting to  0.1000E-12.
  No threshold value for occupation numbers given. Defaulting to  0.0000E+00.
  No accuracy for fermi level given. Defaulting to  0.1000E-19.
  Maximum # of iterations to find E_F not set. Defaulting to  200.
  Preferred method for the eigenvalue solver ('KS_method') not specified in 'control.in'.
  Defaulting to serial version, 'lapack_fast'.
  Will not use alltoall communication since running on < 1024 CPUs.
  Threshold for basis singularities not set.
  Default threshold for basis singularities:  0.1000E-04
  partition_type (choice of integration weights) for integrals was not specified.
  | Using a version of the partition function of Stratmann and coworkers ('stratmann_smoother').
  | At each grid point, the set of atoms used to build the partition table is smoothly restricted to
  | only those atoms whose free-atom density would be non-zero at that grid point.
  Partitioning for Hartree potential was not defined. Using partition_type for integrals.
  | Adjusted default value of keyword multip_moments_threshold to:       0.10000000E-11
  | This value may affect high angular momentum components of the Hartree potential in periodic systems.
  No q(lm)/r^(l+1) cutoff set for long-range Hartree potential.
  | Using default value of  0.100000E-09 .
  | Verify using the multipole_threshold keyword.
  Defaulting to new monopole extrapolation.
  Density update method: automatic selection selected.
------------------------------------------------------------


------------------------------------------------------------
          Reading geometry description geometry.in.
------------------------------------------------------------
  Input structure read successfully.
  The structure contains       13 atoms,  and a total of         48.000 electrons.

  Input geometry:
  | No unit cell requested.
  | Atomic structure:
  |       Atom                x [A]            y [A]            z [A]
  |    1: Species C             0.00000000        0.00000000        0.00000000
  |    2: Species H             1.09300000        0.00000000        0.00000000
  |    3: Species N            -0.47961000        0.00000000       -1.41207000
  |    4: Species H            -0.95943000        0.88222000       -1.59453000
  |    5: Species H             0.32331000       -0.09817000       -2.02998000
  |    6: Species C            -0.49584000        1.26211000        0.72868000
  |    7: Species H            -1.58789000        1.28919000        0.74431000
  |    8: Species H            -0.13407000        1.27425000        1.75947000
  |    9: Species H            -0.13407000        2.16087000        0.22380000
  |   10: Species C            -0.39425000       -1.28861000        0.74398000
  |   11: Species O            -0.10189000       -1.56493000        1.88303000
  |   12: Species O            -1.10210000       -2.13717000        0.06896000
  |   13: Species H            -1.98483000       -1.82777000        0.33360000
  |

  | The smallest distance between any two atoms is         0.97209822 AA.
  |
  | The first atom of this pair is atom number                     12 .
  | The second atom of this pair is atom number                    13 .

  Number of empty states per atom not set in control.in - providing a guess from actual geometry.
  | Total number of empty states used during s.c.f. cycle:       29
  If you use a very high smearing, use empty_states (per atom!) in control.in to increase this value.

  Structure-dependent array size parameters: 
  | Maximum number of distinct radial functions  :       21
  | Maximum number of basis functions            :      119
  | Number of Kohn-Sham states (occupied + empty):       53
------------------------------------------------------------

------------------------------------------------------------
          Preparing all fixed parts of the calculation.
------------------------------------------------------------
  Determining machine precision:
    2.225073858507201E-308
  Setting up grids for atomic and cluster calculations.

  Creating wave function, potential, and density for free atoms.

  Species: H

  List of occupied orbitals and eigenvalues:
    n    l              occ      energy [Ha]    energy [eV]
    1    0           1.0000        -0.237589        -6.4651


  Species: C

  List of occupied orbitals and eigenvalues:
    n    l              occ      energy [Ha]    energy [eV]
    1    0           2.0000       -10.038835      -273.1706
    2    0           2.0000        -0.502696       -13.6791
    2    1           2.0000        -0.191971        -5.2238


  Species: N

  List of occupied orbitals and eigenvalues:
    n    l              occ      energy [Ha]    energy [eV]
    1    0           2.0000       -14.128000      -384.4424
    2    0           2.0000        -0.681077       -18.5330
    2    1           3.0000        -0.259788        -7.0692


  Species: O

  List of occupied orbitals and eigenvalues:
    n    l              occ      energy [Ha]    energy [eV]
    1    0           2.0000       -18.898188      -514.2459
    2    0           2.0000        -0.878505       -23.9053
    2    1           4.0000        -0.331779        -9.0282

  Creating fixed part of basis set: Ionic, confined, hydrogenic.
 
  H                    hydrogenic:
 
  List of hydrogenic basis orbitals: 
    n    l      effective z      eigenvalue [eV]  inner max. [A]     outer max. [A]     outer radius [A]   
    2    0         2.100000       -14.9728           0.193243           1.317208           4.583499
    2    1         3.500000       -41.6669           0.602369           0.602369           3.723403
 
 
  C                    hydrogenic:
 
  List of hydrogenic basis orbitals: 
    n    l      effective z      eigenvalue [eV]  inner max. [A]     outer max. [A]     outer radius [A]   
    2    1         1.700000        -9.7616           1.230570           1.230570           4.607917
    3    2         6.000000       -54.4224           0.792453           0.792453           3.883070
    2    0         4.900000       -81.6679           0.082559           0.562749           3.078220
 
 
  N                    hydrogenic:
 
  List of hydrogenic basis orbitals: 
    n    l      effective z      eigenvalue [eV]  inner max. [A]     outer max. [A]     outer radius [A]   
    2    1         1.800000       -10.9749           1.177451           1.177451           4.573712
    3    2         6.800000       -69.9026           0.704619           0.704619           3.538137
    3    0         5.800000       -50.8545           0.067388           1.191934           4.250239
 
 
  O                    hydrogenic:
 
  List of hydrogenic basis orbitals: 
    n    l      effective z      eigenvalue [eV]  inner max. [A]     outer max. [A]     outer radius [A]   
    2    1         1.800000       -10.9749           1.164242           1.164242           4.578029
    3    2         7.600000       -87.3180           0.624125           0.624125           3.251020
    3    0         6.400000       -61.9207           0.061167           1.081902           4.001998
 

  Adding cutoff potential to free-atom effective potential.
  Creating atomic-like basis functions for current effective potential.

  Species H                   :

  List of atomic basis orbitals and eigenvalues:
    n    l      energy [Ha]    energy [eV]    outer radius [A]
    1    0        -0.237589        -6.4651       4.527807


  Species C                   :

  List of atomic basis orbitals and eigenvalues:
    n    l      energy [Ha]    energy [eV]    outer radius [A]
    1    0       -10.038835      -273.1706       1.934409
    2    0        -0.502696       -13.6791       4.496620
    2    1        -0.191971        -5.2238       4.551928


  Species N                   :

  List of atomic basis orbitals and eigenvalues:
    n    l      energy [Ha]    energy [eV]    outer radius [A]
    1    0       -14.128000      -384.4424       1.637919
    2    0        -0.681077       -18.5330       4.463241
    2    1        -0.259788        -7.0692       4.518138


  Species O                   :

  List of atomic basis orbitals and eigenvalues:
    n    l      energy [Ha]    energy [eV]    outer radius [A]
    1    0       -18.898188      -514.2459       1.415765
    2    0        -0.878505       -23.9053       4.413171
    2    1        -0.331779        -9.0282       4.522403

  Assembling full basis from fixed parts.
  | Species H :   atomic orbital   1 s accepted.
  | Species H :    hydro orbital   2 s accepted.
  | Species H :    hydro orbital   2 p accepted.
  | Species C :   atomic orbital   1 s accepted.
  | Species C :    hydro orbital   2 s accepted.
  | Species C :   atomic orbital   2 s accepted.
  | Species C :   atomic orbital   2 p accepted.
  | Species C :    hydro orbital   2 p accepted.
  | Species C :    hydro orbital   3 d accepted.
  | Species N :   atomic orbital   1 s accepted.
  | Species N :    hydro orbital   3 s accepted.
  | Species N :   atomic orbital   2 s accepted.
  | Species N :   atomic orbital   2 p accepted.
  | Species N :    hydro orbital   2 p accepted.
  | Species N :    hydro orbital   3 d accepted.
  | Species O :   atomic orbital   1 s accepted.
  | Species O :    hydro orbital   3 s accepted.
  | Species O :   atomic orbital   2 s accepted.
  | Species O :   atomic orbital   2 p accepted.
  | Species O :    hydro orbital   2 p accepted.
  | Species O :    hydro orbital   3 d accepted.
 
  Basis size parameters after reduction:
  | Total number of radial functions:       21
  | Total number of basis functions :      119
 
  Per-task memory consumption for arrays in subroutine allocate_ext:
  |           5.250512MB.
  Testing on-site integration grid accuracy.
  |  Species  Function  <phi|h_atom|phi> (log., in eV)  <phi|h_atom|phi> (rad., in eV)
           1        1                 -6.4663192853                 -6.4651273558
           1        2                 13.7111246313                 13.7170609718
           1        3                 25.2673269279                 25.2674696378
           2        4               -273.1705927641               -273.1705631568
           2        5                -10.7109323383                -10.7107120029
           2        6                 17.4381822266                 17.4352413244
           2        7                 -5.2255326521                 -5.2270484734
           2        8                  8.6835629259                  8.6603288385
           2        9                 27.4952418996                 27.4953360207
           3       10               -384.4424306495               -384.4423701208
           3       11                 12.5842251816                 12.5842222903
           3       12                -15.7264628251                -15.7264433455
           3       13                 -7.0696854293                 -7.0701769954
           3       14                  8.8090390882                  8.7901077751
           3       15                 35.9586762123                 35.9588528632
           4       16               -514.2458688638               -514.2457643834
           4       17                 15.1795651126                 15.1795290741
           4       18                -21.5359799773                -21.5360846186
           4       19                 -9.0283069236                 -9.0284644067
           4       20                  8.3027758564                  8.2834874195
           4       21                 45.8339351984                 45.8338762259

  Preparing densities etc. for the partition functions (integrals / Hartree potential).

  Preparations completed.
  max(cpu_time)          :      0.145 s.
  Wall clock time (cpu1) :      0.146 s.
------------------------------------------------------------

------------------------------------------------------------
          Begin self-consistency loop: Initialization.

          Date     :  20200710, Time     :  150738.208
------------------------------------------------------------

  Initializing index lists of integration centers etc. from given atomic structure:
  | Number of centers in hartree potential         :        13
  | Number of centers in hartree multipole         :        13
  | Number of centers in electron density summation:        13
  | Number of centers in basis integrals           :        13
  | Number of centers in integrals                 :        13
  | Number of centers in hamiltonian               :        13
  Partitioning the integration grid into batches with parallel hashing+maxmin method.
  | Number of batches:      952
  | Maximal batch size:     138
  | Minimal batch size:      66
  | Average batch size:      73.158
  | Standard deviation of batch sizes:      18.016

  Integration load balanced across     1 MPI tasks.
  Work distribution over tasks is as follows:
  Task     0 has      69646 integration points.
  Initializing partition tables, free-atom densities, potentials, etc. across the integration grid (initialize_grid_storage).
  | initialize_grid_storage: Actual outermost partition radius vs. multipole_radius_free
  | (-- VB: in principle, multipole_radius_free should be larger, hence this output)
  | Species        1: Confinement radius =              4.999999999999999 AA, multipole_radius_free =              5.054417573612229 AA.
  | Species        1: outer_partition_radius set to              5.054417573612229 AA .
  | Species        2: Confinement radius =              4.999999999999999 AA, multipole_radius_free =              5.019602836301480 AA.
  | Species        2: outer_partition_radius set to              5.019602836301480 AA .
  | Species        3: Confinement radius =              4.999999999999999 AA, multipole_radius_free =              5.043624274424571 AA.
  | Species        3: outer_partition_radius set to              5.043624274424571 AA .
  | Species        4: Confinement radius =              4.999999999999999 AA, multipole_radius_free =              5.048384829883283 AA.
  | Species        4: outer_partition_radius set to              5.048384829883283 AA .
  | Original list of interatomic distances with          13 x         13 entries is created.
  | Net number of integration points:    69646
  | of which are non-zero points    :    59506
  Renormalizing the initial density to the exact electron count on the 3D integration grid.
  | Initial density: Formal number of electrons (from input files) :      48.0000000000
  | Integrated number of electrons on 3D grid     :      47.9998628405
  | Charge integration error                      :      -0.0001371595
  | Normalization factor for density and gradient :       1.0000028575
  Obtaining max. number of non-zero basis functions in each batch (get_n_compute_maxes).
  | Maximal number of non-zero basis functions:      119 in task     0
  Selecting the method for density update.
  Loop over occupied states selected for charge density update.
  Allocating        0.050 MB for KS_eigenvector
  Integrating Hamiltonian matrix: batch-based integration.
  Time summed over all CPUs for integration: real work        0.493 s, elapsed        0.493 s
  Integrating overlap matrix.
  Time summed over all CPUs for integration: real work        0.212 s, elapsed        0.212 s

  Updating Kohn-Sham eigenvalues and eigenvectors using ELSI and the ELPA eigensolver.
  Overlap matrix is nonsingular
  | Lowest eigenvalue of overlap  :  0.43E-02
  | Highest eigenvalue of overlap :  0.62E+01
  Finished singularity check of overlap matrix
  | Time :     0.002 s
  Finished Cholesky decomposition
  | Time :     0.000 s
  Finished transformation to standard eigenproblem
  | Time :     0.000 s
  Starting LAPACK eigensolver
  Finished solving standard eigenproblem
  | Time :     0.001 s
  Finished back-transformation of eigenvectors
  | Time :     0.000 s

  Obtaining occupation numbers and chemical potential using ELSI.
  | Chemical potential (Fermi level):    -9.92617634eV
  Writing Kohn-Sham eigenvalues.

  State    Occupation    Eigenvalue [Ha]    Eigenvalue [eV]
      1       2.00000         -19.007489         -517.22009
      2       2.00000         -18.977329         -516.39940
      3       2.00000         -14.245825         -387.64862
      4       2.00000         -10.166904         -276.65554
      5       2.00000         -10.141320         -275.95936
      6       2.00000         -10.131885         -275.70262
      7       2.00000          -1.183212          -32.19685
      8       2.00000          -1.096742          -29.84386
      9       2.00000          -0.991847          -26.98952
     10       2.00000          -0.859366          -23.38453
     11       2.00000          -0.758802          -20.64804
     12       2.00000          -0.677128          -18.42560
     13       2.00000          -0.622858          -16.94883
     14       2.00000          -0.611282          -16.63383
     15       2.00000          -0.587705          -15.99227
     16       2.00000          -0.574377          -15.62958
     17       2.00000          -0.552887          -15.04483
     18       2.00000          -0.532178          -14.48130
     19       2.00000          -0.517674          -14.08662
     20       2.00000          -0.496251          -13.50367
     21       2.00000          -0.456662          -12.42641
     22       2.00000          -0.428054          -11.64794
     23       2.00000          -0.412066          -11.21289
     24       2.00000          -0.379728          -10.33292
     25       0.00000          -0.163079           -4.43762
     26       0.00000          -0.065518           -1.78283
     27       0.00000          -0.036152           -0.98376
     28       0.00000          -0.021295           -0.57946
     29       0.00000          -0.007991           -0.21746
     30       0.00000           0.009545            0.25974
     31       0.00000           0.019038            0.51804
     32       0.00000           0.028337            0.77109
     33       0.00000           0.040979            1.11509
     34       0.00000           0.079978            2.17630
     35       0.00000           0.095310            2.59352
     36       0.00000           0.134549            3.66128
     37       0.00000           0.156487            4.25823
     38       0.00000           0.204008            5.55134
     39       0.00000           0.216864            5.90118
     40       0.00000           0.231658            6.30375
     41       0.00000           0.256400            6.97700
     42       0.00000           0.266189            7.24337
     43       0.00000           0.282775            7.69469
     44       0.00000           0.309851            8.43147
     45       0.00000           0.312711            8.50929
     46       0.00000           0.362578            9.86624
     47       0.00000           0.381834           10.39022
     48       0.00000           0.395613           10.76518
     49       0.00000           0.452340           12.30881
     50       0.00000           0.479119           13.03750
     51       0.00000           0.515483           14.02701
     52       0.00000           0.530951           14.44791
     53       0.00000           0.552074           15.02270

  Highest occupied state (VBM) at    -10.33291901 eV
  | Occupation number:      2.00000000

  Lowest unoccupied state (CBM) at    -4.43761871 eV
  | Occupation number:      0.00000000

  Overall HOMO-LUMO gap:      5.89530030 eV.
  Calculating total energy contributions from superposition of free atom densities.

  Total energy components:
  | Sum of eigenvalues            :        -188.81913920 Ha       -5138.03019782 eV
  | XC energy correction          :         -41.78388069 Ha       -1136.99724327 eV
  | XC potential correction       :          53.71328400 Ha        1461.61282356 eV
  | Free-atom electrostatic energy:        -146.86584484 Ha       -3996.42297387 eV
  | Hartree energy correction     :           0.00000000 Ha           0.00000000 eV
  | vdW energy correction         :           0.00000000 Ha           0.00000000 eV
  | Entropy correction            :           0.00000000 Ha           0.00000000 eV
  | ---------------------------
  | Total energy                  :        -323.75558074 Ha       -8809.83759141 eV
  | Total energy, T -> 0          :        -323.75558074 Ha       -8809.83759141 eV  <-- do not rely on this value for anything but (periodic) metals
  | Electronic free energy        :        -323.75558074 Ha       -8809.83759141 eV

  Derived energy quantities:
  | Kinetic energy                :         320.49047655 Ha        8720.98958588 eV
  | Electrostatic energy          :        -602.46217659 Ha      -16393.82993402 eV
  | Energy correction for multipole
  | error in Hartree potential    :           0.00000000 Ha           0.00000000 eV
  | Sum of eigenvalues per atom                           :        -395.23309214 eV
  | Total energy (T->0) per atom                          :        -677.67981472 eV  <-- do not rely on this value for anything but (periodic) metals
  | Electronic free energy per atom                       :        -677.67981472 eV
  Initialize hartree_potential_storage
  Max. number of atoms included in rho_multipole:           13

  End scf initialization - timings             :  max(cpu_time)    wall_clock(cpu1)
  | Time for scf. initialization               :        1.147 s           1.148 s
  | Boundary condition initialization          :        0.000 s           0.000 s
  | Integration                                :        0.705 s           0.706 s
  | Solution of K.-S. eqns.                    :        0.004 s           0.004 s
  | Grid partitioning                          :        0.111 s           0.111 s
  | Preloading free-atom quantities on grid    :        0.002 s           0.003 s
  | Free-atom superposition energy             :        0.084 s           0.084 s
  | Total energy evaluation                    :        0.000 s           0.000 s

  Partial memory accounting:
  | Current value for overall tracked memory usage on task 0  :           0.165 MB
  | Peak value for overall tracked memory usage on task 0     :           0.676 MB after allocating wave
  | Largest tracked array allocation on task 0 so far         :           0.131 MB  when allocating H_times_psi
  Note:  These values currently only include a subset of arrays which are explicitly tracked.
  The "true" memory usage will be greater.
------------------------------------------------------------

------------------------------------------------------------
          Begin self-consistency iteration #    1

  Date     :  20200710, Time     :  150739.357
------------------------------------------------------------
  Evaluating new KS density.
  Integration grid: deviation in total charge (<rho> - N_e) =   2.131628E-14
  Pulay mixing of updated and previous charge densities.

  Evaluating partitioned Hartree potential by multipole expansion.
  | Analytical far-field extrapolation by fixed multipoles:
  | Hartree multipole sum: apparent total charge =  -0.240582E-03
  Summing up the Hartree potential.
  Time summed over all CPUs for potential: real work        0.283 s, elapsed        0.283 s
  | RMS charge density error from multipole expansion :   0.586433E-02

  Integrating Hamiltonian matrix: batch-based integration.
  Time summed over all CPUs for integration: real work        0.495 s, elapsed        0.495 s

  Updating Kohn-Sham eigenvalues and eigenvectors using ELSI and the ELPA eigensolver.
  Finished Cholesky decomposition
  | Time :     0.000 s
  Finished transformation to standard eigenproblem
  | Time :     0.000 s
  Starting LAPACK eigensolver
  Finished solving standard eigenproblem
  | Time :     0.002 s
  Finished back-transformation of eigenvectors
  | Time :     0.000 s

  Obtaining occupation numbers and chemical potential using ELSI.
  | Chemical potential (Fermi level):    -4.71983285eV
  Writing Kohn-Sham eigenvalues.

  State    Occupation    Eigenvalue [Ha]    Eigenvalue [eV]
      1       2.00000         -18.888394         -513.97935
      2       2.00000         -18.838194         -512.61335
      3       2.00000         -14.096443         -383.58373
      4       2.00000         -10.113954         -275.21470
      5       2.00000         -10.063094         -273.83073
      6       2.00000         -10.035512         -273.08018
      7       2.00000          -1.127883          -30.69126
      8       2.00000          -1.030847          -28.05076
      9       2.00000          -0.922228          -25.09511
     10       2.00000          -0.794999          -21.63303
     11       2.00000          -0.707148          -19.24247
     12       2.00000          -0.627170          -17.06615
     13       2.00000          -0.569130          -15.48681
     14       2.00000          -0.552177          -15.02549
     15       2.00000          -0.523532          -14.24604
     16       2.00000          -0.516144          -14.04501
     17       2.00000          -0.488453          -13.29149
     18       2.00000          -0.473620          -12.88785
     19       2.00000          -0.454792          -12.37553
     20       2.00000          -0.439962          -11.97196
     21       2.00000          -0.393124          -10.69744
     22       2.00000          -0.365335           -9.94128
     23       2.00000          -0.339051           -9.22604
     24       2.00000          -0.306934           -8.35209
     25       0.00000          -0.125966           -3.42770
     26       0.00000          -0.042293           -1.15086
     27       0.00000          -0.011000           -0.29933
     28       0.00000           0.015958            0.43424
     29       0.00000           0.023352            0.63545
     30       0.00000           0.047504            1.29266
     31       0.00000           0.055296            1.50468
     32       0.00000           0.065004            1.76886
     33       0.00000           0.080185            2.18195
     34       0.00000           0.120154            3.26955
     35       0.00000           0.135415            3.68484
     36       0.00000           0.164380            4.47300
     37       0.00000           0.184467            5.01961
     38       0.00000           0.231252            6.29268
     39       0.00000           0.250131            6.80642
     40       0.00000           0.267980            7.29210
     41       0.00000           0.292578            7.96146
     42       0.00000           0.297742            8.10196
     43       0.00000           0.318584            8.66910
     44       0.00000           0.346762            9.43588
     45       0.00000           0.355246            9.66674
     46       0.00000           0.404636           11.01069
     47       0.00000           0.423588           11.52643
     48       0.00000           0.436398           11.87499
     49       0.00000           0.486549           13.23967
     50       0.00000           0.512645           13.94979
     51       0.00000           0.552839           15.04352
     52       0.00000           0.565322           15.38319
     53       0.00000           0.587319           15.98177

  Highest occupied state (VBM) at     -8.35209169 eV
  | Occupation number:      2.00000000

  Lowest unoccupied state (CBM) at    -3.42769929 eV
  | Occupation number:      0.00000000

  Overall HOMO-LUMO gap:      4.92439240 eV.

  Total energy components:
  | Sum of eigenvalues            :        -185.33624159 Ha       -5043.25573157 eV
  | XC energy correction          :         -42.11608164 Ha       -1146.03689118 eV
  | XC potential correction       :          54.14544682 Ha        1473.37257239 eV
  | Free-atom electrostatic energy:        -146.86584484 Ha       -3996.42297387 eV
  | Hartree energy correction     :          -3.39679702 Ha         -92.43154988 eV
  | vdW energy correction         :           0.00000000 Ha           0.00000000 eV
  | Entropy correction            :           0.00000000 Ha           0.00000000 eV
  | ---------------------------
  | Total energy                  :        -323.56951827 Ha       -8804.77457411 eV
  | Total energy, T -> 0          :        -323.56951827 Ha       -8804.77457411 eV  <-- do not rely on this value for anything but (periodic) metals
  | Electronic free energy        :        -323.56951827 Ha       -8804.77457411 eV

  Derived energy quantities:
  | Kinetic energy                :         322.30536873 Ha        8770.37531491 eV
  | Electrostatic energy          :        -603.75880536 Ha      -16429.11299784 eV
  | Energy correction for multipole
  | error in Hartree potential    :           0.01220898 Ha           0.33222317 eV
  | Sum of eigenvalues per atom                           :        -387.94274858 eV
  | Total energy (T->0) per atom                          :        -677.29035185 eV  <-- do not rely on this value for anything but (periodic) metals
  | Electronic free energy per atom                       :        -677.29035185 eV

  Self-consistency convergence accuracy:
  | Change of charge density      :  0.5911E+00
  | Change of sum of eigenvalues  :  0.9477E+02 eV
  | Change of total energy        :  0.5063E+01 eV

  End self-consistency iteration #     1       :  max(cpu_time)    wall_clock(cpu1)
  | Time for this iteration                    :        1.188 s           1.189 s
  | Charge density update                      :        0.392 s           0.392 s
  | Density mixing                             :        0.005 s           0.006 s
  | Hartree multipole update                   :        0.009 s           0.009 s
  | Hartree multipole summation                :        0.283 s           0.284 s
  | Integration                                :        0.495 s           0.495 s
  | Solution of K.-S. eqns.                    :        0.002 s           0.003 s
  | Total energy evaluation                    :        0.000 s           0.000 s

  Partial memory accounting:
  | Current value for overall tracked memory usage on task 0  :           0.165 MB
  | Peak value for overall tracked memory usage on task 0     :           0.691 MB after allocating gradient_basis_wave
  | Largest tracked array allocation on task 0 so far         :           0.394 MB  when allocating gradient_basis_wave
  Note:  These values currently only include a subset of arrays which are explicitly tracked.
  The "true" memory usage will be greater.
------------------------------------------------------------

------------------------------------------------------------
          Begin self-consistency iteration #    2

  Date     :  20200710, Time     :  150740.547
------------------------------------------------------------
  Evaluating new KS density.
  Integration grid: deviation in total charge (<rho> - N_e) =   1.421085E-14
  Pulay mixing of updated and previous charge densities.

  Evaluating partitioned Hartree potential by multipole expansion.
  | Analytical far-field extrapolation by fixed multipoles:
  | Hartree multipole sum: apparent total charge =  -0.372858E-03
  Summing up the Hartree potential.
  Time summed over all CPUs for potential: real work        0.282 s, elapsed        0.282 s
  | RMS charge density error from multipole expansion :   0.138671E-01

  Integrating Hamiltonian matrix: batch-based integration.
  Time summed over all CPUs for integration: real work        0.493 s, elapsed        0.493 s

  Updating Kohn-Sham eigenvalues and eigenvectors using ELSI and the ELPA eigensolver.
  Finished Cholesky decomposition
  | Time :     0.000 s
  Finished transformation to standard eigenproblem
  | Time :     0.000 s
  Starting LAPACK eigensolver
  Finished solving standard eigenproblem
  | Time :     0.002 s
  Finished back-transformation of eigenvectors
  | Time :     0.000 s

  Obtaining occupation numbers and chemical potential using ELSI.
  | Chemical potential (Fermi level):    -3.49280424eV
  Highest occupied state (VBM) at     -6.35967082 eV
  | Occupation number:      2.00000000

  Lowest unoccupied state (CBM) at    -2.15401889 eV
  | Occupation number:      0.00000000

  Overall HOMO-LUMO gap:      4.20565193 eV.

  Checking to see if s.c.f. parameters should be adjusted.

  Total energy components:
  | Sum of eigenvalues            :        -181.68472009 Ha       -4943.89277625 eV
  | XC energy correction          :         -42.47772836 Ha       -1155.87779917 eV
  | XC potential correction       :          54.61439703 Ha        1486.13335689 eV
  | Free-atom electrostatic energy:        -146.86584484 Ha       -3996.42297387 eV
  | Hartree energy correction     :          -7.07465152 Ha        -192.51106267 eV
  | vdW energy correction         :           0.00000000 Ha           0.00000000 eV
  | Entropy correction            :           0.00000000 Ha           0.00000000 eV
  | ---------------------------
  | Total energy                  :        -323.48854778 Ha       -8802.57125508 eV
  | Total energy, T -> 0          :        -323.48854778 Ha       -8802.57125508 eV  <-- do not rely on this value for anything but (periodic) metals
  | Electronic free energy        :        -323.48854778 Ha       -8802.57125508 eV

  Derived energy quantities:
  | Kinetic energy                :         323.62956383 Ha        8806.40849682 eV
  | Electrostatic energy          :        -604.64038325 Ha      -16453.10195273 eV
  | Energy correction for multipole
  | error in Hartree potential    :           0.02674717 Ha           0.72782758 eV
  | Sum of eigenvalues per atom                           :        -380.29944433 eV
  | Total energy (T->0) per atom                          :        -677.12086578 eV  <-- do not rely on this value for anything but (periodic) metals
  | Electronic free energy per atom                       :        -677.12086578 eV

  Self-consistency convergence accuracy:
  | Change of charge density      :  0.3696E+00
  | Change of sum of eigenvalues  :  0.9936E+02 eV
  | Change of total energy        :  0.2203E+01 eV

  End self-consistency iteration #     2       :  max(cpu_time)    wall_clock(cpu1)
  | Time for this iteration                    :        1.177 s           1.184 s
  | Charge density update                      :        0.384 s           0.390 s
  | Density mixing                             :        0.007 s           0.007 s
  | Hartree multipole update                   :        0.009 s           0.009 s
  | Hartree multipole summation                :        0.282 s           0.282 s
  | Integration                                :        0.493 s           0.493 s
  | Solution of K.-S. eqns.                    :        0.002 s           0.002 s
  | Total energy evaluation                    :        0.000 s           0.001 s

  Partial memory accounting:
  | Current value for overall tracked memory usage on task 0  :           0.166 MB
  | Peak value for overall tracked memory usage on task 0     :           0.691 MB after allocating gradient_basis_wave
  | Largest tracked array allocation on task 0 so far         :           0.394 MB  when allocating gradient_basis_wave
  Note:  These values currently only include a subset of arrays which are explicitly tracked.
  The "true" memory usage will be greater.
------------------------------------------------------------

------------------------------------------------------------
          Begin self-consistency iteration #    3

  Date     :  20200710, Time     :  150741.731
------------------------------------------------------------
  Evaluating new KS density.
  Integration grid: deviation in total charge (<rho> - N_e) =  -2.131628E-14
  Pulay mixing of updated and previous charge densities.

  Evaluating partitioned Hartree potential by multipole expansion.
  | Analytical far-field extrapolation by fixed multipoles:
  | Hartree multipole sum: apparent total charge =  -0.467994E-03
  Summing up the Hartree potential.
  Time summed over all CPUs for potential: real work        0.282 s, elapsed        0.282 s
  | RMS charge density error from multipole expansion :   0.217638E-01

  Integrating Hamiltonian matrix: batch-based integration.
  Time summed over all CPUs for integration: real work        0.494 s, elapsed        0.494 s

  Updating Kohn-Sham eigenvalues and eigenvectors using ELSI and the ELPA eigensolver.
  Finished Cholesky decomposition
  | Time :     0.000 s
  Finished transformation to standard eigenproblem
  | Time :     0.000 s
  Starting LAPACK eigensolver
  Finished solving standard eigenproblem
  | Time :     0.001 s
  Finished back-transformation of eigenvectors
  | Time :     0.000 s

  Obtaining occupation numbers and chemical potential using ELSI.
  | Chemical potential (Fermi level):    -2.82568558eV
  Highest occupied state (VBM) at     -5.67210014 eV
  | Occupation number:      2.00000000

  Lowest unoccupied state (CBM) at    -1.44869328 eV
  | Occupation number:      0.00000000

  Overall HOMO-LUMO gap:      4.22340686 eV.

  Total energy components:
  | Sum of eigenvalues            :        -180.35204809 Ha       -4907.62892592 eV
  | XC energy correction          :         -42.62842319 Ha       -1159.97841417 eV
  | XC potential correction       :          54.80670930 Ha        1491.36644004 eV
  | Free-atom electrostatic energy:        -146.86584484 Ha       -3996.42297387 eV
  | Hartree energy correction     :          -8.43535294 Ha        -229.53763218 eV
  | vdW energy correction         :           0.00000000 Ha           0.00000000 eV
  | Entropy correction            :           0.00000000 Ha           0.00000000 eV
  | ---------------------------
  | Total energy                  :        -323.47495976 Ha       -8802.20150610 eV
  | Total energy, T -> 0          :        -323.47495976 Ha       -8802.20150610 eV  <-- do not rely on this value for anything but (periodic) metals
  | Electronic free energy        :        -323.47495976 Ha       -8802.20150610 eV

  Derived energy quantities:
  | Kinetic energy                :         323.19878265 Ha        8794.68634456 eV
  | Electrostatic energy          :        -604.04531921 Ha      -16436.90943649 eV
  | Energy correction for multipole
  | error in Hartree potential    :           0.03756739 Ha           1.02226083 eV
  | Sum of eigenvalues per atom                           :        -377.50991738 eV
  | Total energy (T->0) per atom                          :        -677.09242355 eV  <-- do not rely on this value for anything but (periodic) metals
  | Electronic free energy per atom                       :        -677.09242355 eV

  Self-consistency convergence accuracy:
  | Change of charge density      :  0.2076E+00
  | Change of sum of eigenvalues  :  0.3626E+02 eV
  | Change of total energy        :  0.3697E+00 eV

  End self-consistency iteration #     3       :  max(cpu_time)    wall_clock(cpu1)
  | Time for this iteration                    :        1.179 s           1.180 s
  | Charge density update                      :        0.384 s           0.385 s
  | Density mixing                             :        0.008 s           0.008 s
  | Hartree multipole update                   :        0.009 s           0.009 s
  | Hartree multipole summation                :        0.282 s           0.282 s
  | Integration                                :        0.494 s           0.494 s
  | Solution of K.-S. eqns.                    :        0.002 s           0.002 s
  | Total energy evaluation                    :        0.000 s           0.000 s

  Partial memory accounting:
  | Current value for overall tracked memory usage on task 0  :           0.166 MB
  | Peak value for overall tracked memory usage on task 0     :           0.692 MB after allocating gradient_basis_wave
  | Largest tracked array allocation on task 0 so far         :           0.394 MB  when allocating gradient_basis_wave
  Note:  These values currently only include a subset of arrays which are explicitly tracked.
  The "true" memory usage will be greater.
------------------------------------------------------------

------------------------------------------------------------
          Begin self-consistency iteration #    4

  Date     :  20200710, Time     :  150742.912
------------------------------------------------------------
  Evaluating new KS density.
  Integration grid: deviation in total charge (<rho> - N_e) =  -1.421085E-14
  Pulay mixing of updated and previous charge densities.

  Evaluating partitioned Hartree potential by multipole expansion.
  | Analytical far-field extrapolation by fixed multipoles:
  | Hartree multipole sum: apparent total charge =  -0.500580E-03
  Summing up the Hartree potential.
  Time summed over all CPUs for potential: real work        0.281 s, elapsed        0.281 s
  | RMS charge density error from multipole expansion :   0.251137E-01

  Integrating Hamiltonian matrix: batch-based integration.
  Time summed over all CPUs for integration: real work        0.494 s, elapsed        0.494 s

  Updating Kohn-Sham eigenvalues and eigenvectors using ELSI and the ELPA eigensolver.
  Finished Cholesky decomposition
  | Time :     0.000 s
  Finished transformation to standard eigenproblem
  | Time :     0.000 s
  Starting LAPACK eigensolver
  Finished solving standard eigenproblem
  | Time :     0.002 s
  Finished back-transformation of eigenvectors
  | Time :     0.000 s

  Obtaining occupation numbers and chemical potential using ELSI.
  | Chemical potential (Fermi level):    -2.71004980eV
  Highest occupied state (VBM) at     -5.47422175 eV
  | Occupation number:      2.00000000

  Lowest unoccupied state (CBM) at    -1.34205761 eV
  | Occupation number:      0.00000000

  Overall HOMO-LUMO gap:      4.13216414 eV.

  Total energy components:
  | Sum of eigenvalues            :        -180.18690200 Ha       -4903.13507224 eV
  | XC energy correction          :         -42.66668567 Ha       -1161.01958918 eV
  | XC potential correction       :          54.85495996 Ha        1492.67940726 eV
  | Free-atom electrostatic energy:        -146.86584484 Ha       -3996.42297387 eV
  | Hartree energy correction     :          -8.60945809 Ha        -234.27527437 eV
  | vdW energy correction         :           0.00000000 Ha           0.00000000 eV
  | Entropy correction            :           0.00000000 Ha           0.00000000 eV
  | ---------------------------
  | Total energy                  :        -323.47393064 Ha       -8802.17350240 eV
  | Total energy, T -> 0          :        -323.47393064 Ha       -8802.17350240 eV  <-- do not rely on this value for anything but (periodic) metals
  | Electronic free energy        :        -323.47393064 Ha       -8802.17350240 eV

  Derived energy quantities:
  | Kinetic energy                :         322.81344856 Ha        8784.20087065 eV
  | Electrostatic energy          :        -603.62069353 Ha      -16425.35478387 eV
  | Energy correction for multipole
  | error in Hartree potential    :           0.04169167 Ha           1.13448806 eV
  | Sum of eigenvalues per atom                           :        -377.16423633 eV
  | Total energy (T->0) per atom                          :        -677.09026942 eV  <-- do not rely on this value for anything but (periodic) metals
  | Electronic free energy per atom                       :        -677.09026942 eV

  Self-consistency convergence accuracy:
  | Change of charge density      :  0.6649E-01
  | Change of sum of eigenvalues  :  0.4494E+01 eV
  | Change of total energy        :  0.2800E-01 eV

  End self-consistency iteration #     4       :  max(cpu_time)    wall_clock(cpu1)
  | Time for this iteration                    :        1.181 s           1.181 s
  | Charge density update                      :        0.385 s           0.385 s
  | Density mixing                             :        0.009 s           0.009 s
  | Hartree multipole update                   :        0.009 s           0.009 s
  | Hartree multipole summation                :        0.282 s           0.282 s
  | Integration                                :        0.494 s           0.494 s
  | Solution of K.-S. eqns.                    :        0.002 s           0.002 s
  | Total energy evaluation                    :        0.000 s           0.000 s

  Partial memory accounting:
  | Current value for overall tracked memory usage on task 0  :           0.166 MB
  | Peak value for overall tracked memory usage on task 0     :           0.692 MB after allocating gradient_basis_wave
  | Largest tracked array allocation on task 0 so far         :           0.394 MB  when allocating gradient_basis_wave
  Note:  These values currently only include a subset of arrays which are explicitly tracked.
  The "true" memory usage will be greater.
------------------------------------------------------------

------------------------------------------------------------
          Begin self-consistency iteration #    5

  Date     :  20200710, Time     :  150744.094
------------------------------------------------------------
  Evaluating new KS density.
  Integration grid: deviation in total charge (<rho> - N_e) =   2.842171E-14
  Pulay mixing of updated and previous charge densities.

  Evaluating partitioned Hartree potential by multipole expansion.
  | Analytical far-field extrapolation by fixed multipoles:
  | Hartree multipole sum: apparent total charge =  -0.494756E-03
  Summing up the Hartree potential.
  Time summed over all CPUs for potential: real work        0.282 s, elapsed        0.282 s
  | RMS charge density error from multipole expansion :   0.248962E-01

  Integrating Hamiltonian matrix: batch-based integration.
  Time summed over all CPUs for integration: real work        0.494 s, elapsed        0.494 s

  Updating Kohn-Sham eigenvalues and eigenvectors using ELSI and the ELPA eigensolver.
  Finished Cholesky decomposition
  | Time :     0.000 s
  Finished transformation to standard eigenproblem
  | Time :     0.000 s
  Starting LAPACK eigensolver
  Finished solving standard eigenproblem
  | Time :     0.002 s
  Finished back-transformation of eigenvectors
  | Time :     0.000 s

  Obtaining occupation numbers and chemical potential using ELSI.
  | Chemical potential (Fermi level):    -2.78500441eV
  Highest occupied state (VBM) at     -5.57849770 eV
  | Occupation number:      2.00000000

  Lowest unoccupied state (CBM) at    -1.44863009 eV
  | Occupation number:      0.00000000

  Overall HOMO-LUMO gap:      4.12986762 eV.

  Total energy components:
  | Sum of eigenvalues            :        -180.41540995 Ha       -4909.35308976 eV
  | XC energy correction          :         -42.63952873 Ha       -1160.28061121 eV
  | XC potential correction       :          54.81970316 Ha        1491.72002094 eV
  | Free-atom electrostatic energy:        -146.86584484 Ha       -3996.42297387 eV
  | Hartree energy correction     :          -8.37255760 Ha        -227.82888401 eV
  | vdW energy correction         :           0.00000000 Ha           0.00000000 eV
  | Entropy correction            :           0.00000000 Ha           0.00000000 eV
  | ---------------------------
  | Total energy                  :        -323.47363795 Ha       -8802.16553792 eV
  | Total energy, T -> 0          :        -323.47363795 Ha       -8802.16553792 eV  <-- do not rely on this value for anything but (periodic) metals
  | Electronic free energy        :        -323.47363795 Ha       -8802.16553792 eV

  Derived energy quantities:
  | Kinetic energy                :         322.67699099 Ha        8780.48767112 eV
  | Electrostatic energy          :        -603.51110021 Ha      -16422.37259783 eV
  | Energy correction for multipole
  | error in Hartree potential    :           0.04104161 Ha           1.11679899 eV
  | Sum of eigenvalues per atom                           :        -377.64254537 eV
  | Total energy (T->0) per atom                          :        -677.08965676 eV  <-- do not rely on this value for anything but (periodic) metals
  | Electronic free energy per atom                       :        -677.08965676 eV

  Self-consistency convergence accuracy:
  | Change of charge density      :  0.2017E-01
  | Change of sum of eigenvalues  : -0.6218E+01 eV
  | Change of total energy        :  0.7964E-02 eV

  End self-consistency iteration #     5       :  max(cpu_time)    wall_clock(cpu1)
  | Time for this iteration                    :        1.182 s           1.183 s
  | Charge density update                      :        0.384 s           0.384 s
  | Density mixing                             :        0.011 s           0.011 s
  | Hartree multipole update                   :        0.009 s           0.009 s
  | Hartree multipole summation                :        0.282 s           0.282 s
  | Integration                                :        0.494 s           0.494 s
  | Solution of K.-S. eqns.                    :        0.002 s           0.002 s
  | Total energy evaluation                    :        0.000 s           0.001 s

  Partial memory accounting:
  | Current value for overall tracked memory usage on task 0  :           0.166 MB
  | Peak value for overall tracked memory usage on task 0     :           0.692 MB after allocating gradient_basis_wave
  | Largest tracked array allocation on task 0 so far         :           0.394 MB  when allocating gradient_basis_wave
  Note:  These values currently only include a subset of arrays which are explicitly tracked.
  The "true" memory usage will be greater.
------------------------------------------------------------

------------------------------------------------------------
          Begin self-consistency iteration #    6

  Date     :  20200710, Time     :  150745.277
------------------------------------------------------------
  Evaluating new KS density.
  Integration grid: deviation in total charge (<rho> - N_e) =   0.000000E+00
  Pulay mixing of updated and previous charge densities.

  Evaluating partitioned Hartree potential by multipole expansion.
  | Analytical far-field extrapolation by fixed multipoles:
  | Hartree multipole sum: apparent total charge =  -0.499796E-03
  Summing up the Hartree potential.
  Time summed over all CPUs for potential: real work        0.282 s, elapsed        0.282 s
  | RMS charge density error from multipole expansion :   0.253663E-01

  Integrating Hamiltonian matrix: batch-based integration.
  Time summed over all CPUs for integration: real work        0.493 s, elapsed        0.493 s

  Updating Kohn-Sham eigenvalues and eigenvectors using ELSI and the ELPA eigensolver.
  Finished Cholesky decomposition
  | Time :     0.000 s
  Finished transformation to standard eigenproblem
  | Time :     0.000 s
  Starting LAPACK eigensolver
  Finished solving standard eigenproblem
  | Time :     0.001 s
  Finished back-transformation of eigenvectors
  | Time :     0.000 s

  Obtaining occupation numbers and chemical potential using ELSI.
  | Chemical potential (Fermi level):    -2.76988980eV
  Highest occupied state (VBM) at     -5.53167227 eV
  | Occupation number:      2.00000000

  Lowest unoccupied state (CBM) at    -1.44239337 eV
  | Occupation number:      0.00000000

  Overall HOMO-LUMO gap:      4.08927891 eV.

  Total energy components:
  | Sum of eigenvalues            :        -180.37314167 Ha       -4908.20291132 eV
  | XC energy correction          :         -42.64343817 Ha       -1160.38699236 eV
  | XC potential correction       :          54.82476316 Ha        1491.85771060 eV
  | Free-atom electrostatic energy:        -146.86584484 Ha       -3996.42297387 eV
  | Hartree energy correction     :          -8.41594115 Ha        -229.00941056 eV
  | vdW energy correction         :           0.00000000 Ha           0.00000000 eV
  | Entropy correction            :           0.00000000 Ha           0.00000000 eV
  | ---------------------------
  | Total energy                  :        -323.47360266 Ha       -8802.16457752 eV
  | Total energy, T -> 0          :        -323.47360266 Ha       -8802.16457752 eV  <-- do not rely on this value for anything but (periodic) metals
  | Electronic free energy        :        -323.47360266 Ha       -8802.16457752 eV

  Derived energy quantities:
  | Kinetic energy                :         322.61960623 Ha        8778.92615230 eV
  | Electrostatic energy          :        -603.44977072 Ha      -16420.70373746 eV
  | Energy correction for multipole
  | error in Hartree potential    :           0.04154024 Ha           1.13036750 eV
  | Sum of eigenvalues per atom                           :        -377.55407010 eV
  | Total energy (T->0) per atom                          :        -677.08958289 eV  <-- do not rely on this value for anything but (periodic) metals
  | Electronic free energy per atom                       :        -677.08958289 eV

  Self-consistency convergence accuracy:
  | Change of charge density      :  0.1038E-01
  | Change of sum of eigenvalues  :  0.1150E+01 eV
  | Change of total energy        :  0.9604E-03 eV

  End self-consistency iteration #     6       :  max(cpu_time)    wall_clock(cpu1)
  | Time for this iteration                    :        1.183 s           1.184 s
  | Charge density update                      :        0.385 s           0.385 s
  | Density mixing                             :        0.012 s           0.012 s
  | Hartree multipole update                   :        0.009 s           0.009 s
  | Hartree multipole summation                :        0.282 s           0.282 s
  | Integration                                :        0.493 s           0.494 s
  | Solution of K.-S. eqns.                    :        0.002 s           0.002 s
  | Total energy evaluation                    :        0.000 s           0.000 s

  Partial memory accounting:
  | Current value for overall tracked memory usage on task 0  :           0.166 MB
  | Peak value for overall tracked memory usage on task 0     :           0.692 MB after allocating gradient_basis_wave
  | Largest tracked array allocation on task 0 so far         :           0.394 MB  when allocating gradient_basis_wave
  Note:  These values currently only include a subset of arrays which are explicitly tracked.
  The "true" memory usage will be greater.
------------------------------------------------------------

------------------------------------------------------------
          Begin self-consistency iteration #    7

  Date     :  20200710, Time     :  150746.462
------------------------------------------------------------
  Evaluating new KS density.
  Integration grid: deviation in total charge (<rho> - N_e) =   2.842171E-14
  Pulay mixing of updated and previous charge densities.

  Evaluating partitioned Hartree potential by multipole expansion.
  | Analytical far-field extrapolation by fixed multipoles:
  | Hartree multipole sum: apparent total charge =  -0.500451E-03
  Summing up the Hartree potential.
  Time summed over all CPUs for potential: real work        0.282 s, elapsed        0.282 s
  | RMS charge density error from multipole expansion :   0.254446E-01

  Integrating Hamiltonian matrix: batch-based integration.
  Time summed over all CPUs for integration: real work        0.495 s, elapsed        0.495 s

  Updating Kohn-Sham eigenvalues and eigenvectors using ELSI and the ELPA eigensolver.
  Finished Cholesky decomposition
  | Time :     0.000 s
  Finished transformation to standard eigenproblem
  | Time :     0.000 s
  Starting LAPACK eigensolver
  Finished solving standard eigenproblem
  | Time :     0.001 s
  Finished back-transformation of eigenvectors
  | Time :     0.000 s

[...]
  |   Hirshfeld dipole moment :      0.05939254
  |   Hirshfeld second moments:      0.01381745      -0.03096962      -0.01927787
  |                                 -0.03096962      -0.02499175       0.00692031
  |                                 -0.01927787       0.00692031      -0.01915522
  ----------------------------------------------------------------------
  | Atom    12: O
  |   Hirshfeld charge        :     -0.17599016
  |   Free atom volume        :     23.61338643
  |   Hirshfeld volume        :     21.26027366
  |   Hirshfeld dipole vector :      0.00326355       0.03470511       0.02592656
  |   Hirshfeld dipole moment :      0.04344287
  |   Hirshfeld second moments:      0.11061721       0.00096310      -0.00951532
  |                                  0.00096310       0.02342051       0.01761437
  |                                 -0.00951532       0.01761437       0.00577138
  ----------------------------------------------------------------------
  | Atom    13: H
  |   Hirshfeld charge        :      0.18377875
  |   Free atom volume        :      9.95071624
  |   Hirshfeld volume        :      6.23787665
  |   Hirshfeld dipole vector :     -0.12322312       0.03361564       0.03240400
  |   Hirshfeld dipole moment :      0.13177240
  |   Hirshfeld second moments:      0.12488454       0.00452052      -0.00046430
  |                                  0.00452052       0.11438468       0.00775142
  |                                 -0.00046430       0.00775142       0.10291032
  ----------------------------------------------------------------------


  Total energy components:
  | Sum of eigenvalues            :        -180.37940832 Ha       -4908.37343567 eV
  | XC energy correction          :         -42.63933749 Ha       -1160.27540729 eV
  | XC potential correction       :          54.81954367 Ha        1491.71568081 eV
  | Free-atom electrostatic energy:        -146.86584484 Ha       -3996.42297387 eV
  | Hartree energy correction     :          -8.40852794 Ha        -228.80768677 eV
  | vdW energy correction         :          -0.00339470 Ha          -0.09237436 eV
  | Entropy correction            :           0.00000000 Ha           0.00000000 eV
  | ---------------------------
  | Total energy                  :        -323.47696962 Ha       -8802.25619716 eV
  | Total energy, T -> 0          :        -323.47696962 Ha       -8802.25619716 eV  <-- do not rely on this value for anything but (periodic) metals
  | Electronic free energy        :        -323.47696962 Ha       -8802.25619716 eV

  Derived energy quantities:
  | Kinetic energy                :         322.58057907 Ha        8777.86416931 eV
  | Electrostatic energy          :        -603.41481650 Ha      -16419.75258481 eV
  | Energy correction for multipole
  | error in Hartree potential    :           0.04154514 Ha           1.13050064 eV
  | Sum of eigenvalues per atom                           :        -377.56718736 eV
  | Total energy (T->0) per atom                          :        -677.09663055 eV  <-- do not rely on this value for anything but (periodic) metals
  | Electronic free energy per atom                       :        -677.09663055 eV

  atomic forces [eV/Ang]:
  -----------------------
  atom #    1
   Hellmann-Feynman              :  0.877644E+00 -0.515092E-01  0.798531E+00
   Ionic forces                  :  0.000000E+00  0.000000E+00  0.000000E+00
   Multipole                     :  0.870193E-01  0.501803E+00 -0.266037E+00
   Pulay + GGA                   : -0.112731E+01 -0.119276E-01 -0.121472E+01
   Van der Waals                 :  0.628886E-02  0.460828E-02 -0.212878E-02
   ----------------------------------------------------------------
   Total forces(   1)            : -0.156356E+00  0.442974E+00 -0.684356E+00
  atom #    2
   Hellmann-Feynman              :  0.323183E+00  0.929182E-02  0.148536E+00
   Ionic forces                  :  0.000000E+00  0.000000E+00  0.000000E+00
   Multipole                     :  0.177319E+00  0.453085E-01  0.452379E-02
   Pulay + GGA                   : -0.132339E+00  0.123440E-01  0.359279E-01
   Van der Waals                 :  0.583427E-02 -0.454143E-02 -0.513774E-02
   ----------------------------------------------------------------
   Total forces(   2)            :  0.373998E+00  0.624029E-01  0.183850E+00
  atom #    3
   Hellmann-Feynman              : -0.742005E+01 -0.869691E+01 -0.345252E+00
   Ionic forces                  :  0.000000E+00  0.000000E+00  0.000000E+00
   Multipole                     : -0.161579E+00  0.114209E+00 -0.855632E+00
   Pulay + GGA                   :  0.763124E+01  0.851006E+01  0.193341E+01
   Van der Waals                 :  0.517641E-02 -0.350959E-02 -0.102970E-01
   ----------------------------------------------------------------
   Total forces(   3)            :  0.547865E-01 -0.761470E-01  0.722228E+00
  atom #    4
   Hellmann-Feynman              :  0.215481E+00  0.141417E+00 -0.186757E+00
   Ionic forces                  :  0.000000E+00  0.000000E+00  0.000000E+00
   Multipole                     : -0.414586E-01  0.676422E-01 -0.852337E-01
   Pulay + GGA                   :  0.345342E-01 -0.220684E+00  0.369334E-01
   Van der Waals                 : -0.136894E-02 -0.858602E-02 -0.478978E-02
   ----------------------------------------------------------------
   Total forces(   4)            :  0.207188E+00 -0.202110E-01 -0.239847E+00
  atom #    5
   Hellmann-Feynman              :  0.207601E-01  0.171322E+00 -0.255810E+00
   Ionic forces                  :  0.000000E+00  0.000000E+00  0.000000E+00
   Multipole                     :  0.393304E-01  0.121377E-01 -0.115874E+00
   Pulay + GGA                   : -0.205079E+00 -0.609950E-01  0.129771E+00
   Van der Waals                 : -0.415291E-02  0.428642E-03  0.583503E-02
   ----------------------------------------------------------------
   Total forces(   5)            : -0.149142E+00  0.122894E+00 -0.236078E+00
  atom #    6
   Hellmann-Feynman              :  0.182130E+00 -0.506936E+00  0.303604E+00
   Ionic forces                  :  0.000000E+00  0.000000E+00  0.000000E+00
   Multipole                     : -0.384946E-01  0.581700E+00  0.253675E+00
   Pulay + GGA                   :  0.134106E+00 -0.537050E+00 -0.358577E+00
   Van der Waals                 : -0.364073E-02  0.303846E-02 -0.341667E-02
   ----------------------------------------------------------------
   Total forces(   6)            :  0.274101E+00 -0.459247E+00  0.195286E+00
  atom #    7
   Hellmann-Feynman              : -0.264882E+00 -0.484655E-01 -0.360879E-01
   Ionic forces                  :  0.000000E+00  0.000000E+00  0.000000E+00
   Multipole                     : -0.118858E+00  0.492268E-01  0.269445E-01
   Pulay + GGA                   :  0.106705E+00  0.203089E-01  0.153827E-01
   Van der Waals                 : -0.365671E-02  0.150414E-02  0.921175E-02
   ----------------------------------------------------------------
   Total forces(   7)            : -0.280692E+00  0.225743E-01  0.154510E-01
  atom #    8
   Hellmann-Feynman              :  0.804552E-02 -0.861257E-02  0.189162E+00
   Ionic forces                  :  0.000000E+00  0.000000E+00  0.000000E+00
   Multipole                     :  0.181330E-01  0.653006E-01  0.116813E+00
   Pulay + GGA                   : -0.437067E-01 -0.492388E-01 -0.116915E+00
   Van der Waals                 : -0.311444E-02  0.112749E-01  0.586976E-03
   ----------------------------------------------------------------
   Total forces(   8)            : -0.206427E-01  0.187240E-01  0.189647E+00
  atom #    9
   Hellmann-Feynman              :  0.107873E+00  0.673526E-01 -0.166665E+00
   Ionic forces                  :  0.000000E+00  0.000000E+00  0.000000E+00
   Multipole                     :  0.178176E-01  0.128577E+00 -0.115923E-01
   Pulay + GGA                   : -0.281930E-01 -0.877819E-01  0.599624E-01
   Van der Waals                 : -0.258293E-03  0.577705E-02  0.704074E-02
   ----------------------------------------------------------------
   Total forces(   9)            :  0.972397E-01  0.113925E+00 -0.111254E+00
  atom #   10
   Hellmann-Feynman              :  0.267309E+01  0.511512E+01  0.165572E+01
   Ionic forces                  :  0.000000E+00  0.000000E+00  0.000000E+00
   Multipole                     :  0.977047E-01 -0.137076E+00  0.321836E+00
   Pulay + GGA                   : -0.815390E+00 -0.334248E+01 -0.441816E+00
   Van der Waals                 :  0.204056E-02 -0.112358E-01 -0.197487E-02
   ----------------------------------------------------------------
   Total forces(  10)            :  0.195745E+01  0.162433E+01  0.153376E+01
  atom #   11
   Hellmann-Feynman              :  0.395637E+01 -0.215882E+01  0.137846E+02
   Ionic forces                  :  0.000000E+00  0.000000E+00  0.000000E+00
   Multipole                     :  0.504399E-01 -0.684252E+00  0.772588E+00
   Pulay + GGA                   : -0.305758E+01  0.363423E+01 -0.134311E+02
   Van der Waals                 : -0.913529E-03 -0.119750E-01  0.420007E-02
   ----------------------------------------------------------------
   Total forces(  11)            :  0.948316E+00  0.779180E+00  0.113030E+01
  atom #   12
   Hellmann-Feynman              :  0.182018E+01 -0.117953E+02 -0.105096E+02
   Ionic forces                  :  0.000000E+00  0.000000E+00  0.000000E+00
   Multipole                     : -0.630133E+00 -0.138143E+01 -0.463822E+00
   Pulay + GGA                   : -0.365422E+01  0.112674E+02  0.886882E+01
   Van der Waals                 :  0.200009E-02  0.105328E-01  0.500795E-03
   ----------------------------------------------------------------
   Total forces(  12)            : -0.246217E+01 -0.189880E+01 -0.210414E+01
  atom #   13
   Hellmann-Feynman              : -0.117357E+01 -0.566624E+00 -0.477190E+00
   Ionic forces                  :  0.000000E+00  0.000000E+00  0.000000E+00
   Multipole                     : -0.469417E-01  0.136865E-01  0.101350E-01
   Pulay + GGA                   :  0.376992E+00 -0.181525E+00 -0.131033E+00
   Van der Waals                 : -0.423465E-02  0.268364E-02  0.369433E-03
   ----------------------------------------------------------------
   Total forces(  13)            : -0.847753E+00 -0.731779E+00 -0.597719E+00

  Timings for VdW correction (Tkatchenko-Scheffler 2009 or later):
  | CPU time:        0.089 s, Wall clock time:        0.090 s.
  Removing unitary transformations (pure translations, rotations) from forces on atoms.
  Atomic forces before filtering:
  | Net force on center of mass :  -0.367437E-02  0.826728E-03 -0.286744E-02 eV/A
  | Net torque on center of mass:  -0.807177E-02  0.447895E-03 -0.679189E-02 eV
  Atomic forces after filtering:
  | Net force on center of mass :   0.178406E-15  0.356812E-15  0.267609E-15 eV/A
  | Net torque on center of mass:   0.103849E-14 -0.377634E-15 -0.188817E-15 eV

  Energy and forces in a compact form:
  | Total energy uncorrected      :         -0.880225619715677E+04 eV
  | Total energy corrected        :         -0.880225619715677E+04 eV  <-- do not rely on this value for anything but (periodic) metals
  | Electronic free energy        :         -0.880225619715677E+04 eV
  Total atomic forces (unitary forces cleaned) [eV/Ang]:
  |   1         -0.156072995340711E+00          0.443033499849613E+00         -0.684131006955942E+00
  |   2          0.374280311551989E+00          0.627026777035533E-01          0.184083996689329E+00
  |   3          0.550806714071671E-01         -0.759101644097766E-01          0.722449162704394E+00
  |   4          0.207289391413220E+00         -0.200430907954735E-01         -0.239452979718644E+00
  |   5         -0.148821130080607E+00          0.123430901668160E+00         -0.235869795999849E+00
  |   6          0.274099899488661E+00         -0.459442735979237E+00          0.195759885346649E+00
  |   7         -0.280698347004933E+00          0.221356068892924E-01          0.159214259496520E-01
  |   8         -0.206543184130814E-01          0.184016343926508E-01          0.190126116382317E+00
  |   9          0.970455821954350E-01          0.113910354003653E+00         -0.110597014667693E+00
  |  10          0.195800967282736E+01          0.162415539994533E+01          0.153372524843532E+01
  |  11          0.948927133130511E+00          0.778840377236060E+00          0.113020931832954E+01
  |  12         -0.246141438191279E+01         -0.189899173410748E+01         -0.210434869992928E+01
  |  13         -0.847071489262214E+00         -0.732222726396340E+00         -0.597875656565786E+00

  ------------------------------------ 
  Start decomposition of the XC Energy 
  ------------------------------------ 
  X and C from original XC functional choice 
  Hartree-Fock Energy :          0.000000000 Ha              0.000000000 eV
  X Energy            :        -41.038791983 Ha          -1116.722348060 eV
  C Energy            :         -1.600545508 Ha            -43.553059232 eV
  Total XC Energy     :        -42.639337491 Ha          -1160.275407292 eV
  ------------------------------------ 
  LDA X and C from self-consistent density 
  X Energy LDA        :        -37.257075006 Ha          -1013.816593323 eV
  C Energy LDA        :         -3.138641279 Ha            -85.406774657 eV
  ------------------------------------ 
  End decomposition of the XC Energy 
  ------------------------------------ 

------------------------------------------------------------

------------------------------------------------------------------------------
  Final output of selected total energy values:

  The following output summarizes some interesting total energy values
  at the end of a run (AFTER all relaxation, molecular dynamics, etc.).

  | Total energy of the DFT / Hartree-Fock s.c.f. calculation      :          -8802.256197157 eV
  | Final zero-broadening corrected energy (caution - metals only) :          -8802.256197157 eV
  | For reference only, the value of 1 Hartree used in FHI-aims is :             27.211384500 eV

  Before relying on these values, please be sure to understand exactly which
  total energy value is referred to by a given number. Different objects may
  all carry the same name 'total energy'. Definitions:

  Total energy of the DFT / Hartree-Fock s.c.f. calculation:
  | Note that this energy does not include ANY quantities calculated after the
  | s.c.f. cycle, in particular not ANY RPA, MP2, etc. many-body perturbation terms.

  Final zero-broadening corrected energy:
  | For metallic systems only, a broadening of the occupation numbers at the Fermi
  | level can be extrapolated back to zero broadening by an electron-gas inspired
  | formula. For all systems that are not real metals, this value can be
  | meaningless and should be avoided.

------------------------------------------------------------------------------
  Methods described in the following list of references were used in this FHI-aims run.
  If you publish the results, please make sure to cite these reference if they apply.
  FHI-aims is an academic code, and for our developers (often, Ph.D. students
  and postdocs), scientific credit in the community is essential.
  Thank you for helping us!

  For any use of FHI-aims, please cite:

    Volker Blum, Ralf Gehrke, Felix Hanke, Paula Havu, Ville Havu,
    Xinguo Ren, Karsten Reuter, and Matthias Scheffler
    'Ab initio molecular simulations with numeric atom-centered orbitals'
    Computer Physics Communications 180, 2175-2196 (2009)
    http://dx.doi.org/10.1016/j.cpc.2009.06.022


  The scalable eigensolver library ELPA was used in your run.
  ELPA is essential especially for large systems on hundreds or thousands of CPUs.
  For ELPA, please cite:

    Andreas Marek, Volker Blum, Rainer Johanni, Ville Havu, Bruno Lang,
    Thomas Auckenthaler, Alexander Heinecke, Hans-Joachim Bungartz, and Hermann Lederer,
    'The ELPA Library - Scalable Parallel Eigenvalue Solutions
    for Electronic Structure Theory and Computational Science'
    The Journal of Physics: Condensed Matter 26, 213201 (2014).
    http://dx.doi.org/10.1088/0953-8984/26/21/213201


  The ELSI infrastructure was used in your run to solve the Kohn-Sham electronic structure.
  Please check out http://elsi-interchange.org to learn more.
  If scalability is important for your project, please acknowledge ELSI by citing:

    V. W-z. Yu, F. Corsetti, A. Garcia, W. P. Huhn, M. Jacquelin, W. Jia,
    B. Lange, L. Lin, J. Lu, W. Mi, A. Seifitokaldani, A. Vazquez-Mayagoitia,
    C. Yang, H. Yang, and V. Blum
    'ELSI: A unified software interface for Kohn-Sham electronic structure solvers'
    Computer Physics Communications 222, 267-285 (2018).
    http://dx.doi.org/10.1016/j.cpc.2017.09.007


  For the real-space grid partitioning and parallelization used in this calculation, please cite:

    Ville Havu, Volker Blum, Paula Havu, and Matthias Scheffler,
    'Efficient O(N) integration for all-electron electronic structure calculation'
    'using numerically tabulated basis functions'
    Journal of Computational Physics 228, 8367-8379 (2009).
    http://dx.doi.org/10.1016/j.jcp.2009.08.008

  Of course, there are many other important community references, e.g., those cited in the
  above references. Our list is limited to references that describe implementations in the
  FHI-aims code. The reason is purely practical (length of this list) - please credit others as well.

------------------------------------------------------------
          Leaving FHI-aims.
          Date     :  20200710, Time     :  150800.732

          Computational steps:
          | Number of self-consistency cycles          :           16
          | Number of SCF (re)initializations          :            1

          Detailed time accounting                     :  max(cpu_time)    wall_clock(cpu1)
          | Total time                                 :       22.628 s          22.684 s
          | Preparation time                           :        0.145 s           0.146 s
          | Boundary condition initalization           :        0.000 s           0.000 s
          | Grid partitioning                          :        0.111 s           0.111 s
          | Preloading free-atom quantities on grid    :        0.002 s           0.003 s
          | Free-atom superposition energy             :        0.084 s           0.084 s
          | Total time for integrations                :        8.619 s           8.630 s
          | Total time for solution of K.-S. equations :        0.037 s           0.038 s
          | Total time for density & force components  :        7.102 s           7.122 s
          | Total time for mixing                      :        0.214 s           0.215 s
          | Total time for Hartree multipole update    :        0.141 s           0.143 s
          | Total time for Hartree multipole sum       :        5.776 s           5.781 s
          | Total time for total energy evaluation     :        0.003 s           0.005 s
          | Total time for vdW correction              :        0.089 s           0.090 s

          Partial memory accounting:
          | Residual value for overall tracked memory usage across tasks :           0.000 MB (should be 0.000 MB)
          | Peak values for overall tracked memory usage (after allocating hessian_basis_wave):
          |   Minimum:        1.612 MB (on task 1)
          |   Maximum:        1.612 MB (on task 1)
          |   Average:        1.612 MB
          | Largest tracked array allocation (hessian_basis_wave):
          |   Minimum:        0.788 MB (on task 1)
          |   Maximum:        0.788 MB (on task 1)
          |   Average:        0.788 MB
          Note:  These values currently only include a subset of arrays which are explicitly tracked.
          The "true" memory usage will be greater.

          Have a nice day.
------------------------------------------------------------
