  MPI-parallelism will be employed.
------------------------------------------------------------
          Invoking FHI-aims ...
          Version 171221_1
          Compiled on 2019/09/09 at 14:39:39 on host puhti-login2.bullx.

          When using FHI-aims, please cite the following reference:

          Volker Blum, Ralf Gehrke, Felix Hanke, Paula Havu,
          Ville Havu, Xinguo Ren, Karsten Reuter, and Matthias Scheffler,
          'Ab Initio Molecular Simulations with Numeric Atom-Centered Orbitals',
          Computer Physics Communications 180, 2175-2196 (2009)

          For any questions about FHI-aims, please visit the aimsclub website
          with its forums and wiki. Contributions to both the forums and the
          wiki are warmly encouraged - they are for you, and everyone is welcome there.

------------------------------------------------------------



  Date     :  20200710, Time     :  145732.829
  Time zero on CPU 1             :   0.185520000000000E-01  s.
  Internal wall clock time zero  :           363625052.829  s.

  FHI-aims created a unique identifier for this run for later identification
  aims_uuid : 6DAD892F-717A-410D-A7DB-F04BB54D99D7

  Using        1 parallel tasks.
  Task        0 on host r18c41.bullx reporting.

  Performing system and environment tests:
  | Environment variable OMP_NUM_THREADS correctly set to 1.
  | Stacksize not measured: no C compiler
  | Checking for scalapack...
  | Testing pdtran()...
  | All pdtran() tests passed.

  Obtaining array dimensions for all initial allocations:
  
  -----------------------------------------------------------------------
  Parsing control.in (first pass over file, find array dimensions only).
  The contents of control.in will be repeated verbatim below
  unless switched off by setting 'verbatim_writeout .false.' .
  in the first line of control.in .
  -----------------------------------------------------------------------
  
  #########################################################################################
  #
  #  Volker Blum, FHI 2009 : Test run input file control.in for simple H2O
  #
  #########################################################################################
  #
  #  Physical model
  #
    xc                 pbe
    vdw_correction_hirshfeld
    spin               none
    relativistic       none
    charge             0.
  #
  #  SCF convergence
  #
    occupation_type    gaussian 0.01
    mixer              pulay
      n_max_pulay        10
      charge_mix_param   0.2
    sc_accuracy_rho    1E-5
    sc_accuracy_eev    1E-3
    sc_accuracy_etot   1E-6
    sc_accuracy_forces 1E-4
    sc_iter_limit      100
  #
  #  Relaxation
  #
  #  relax_geometry   bfgs 1.e-3
  #
  ################################################################################
  #
  #  FHI-aims code project
  #  VB, Fritz-Haber Institut, 2009
  #
  #  Suggested "light" defaults for H atom (to be pasted into control.in file)
  #  Be sure to double-check any results obtained with these settings for post-processing,
  #  e.g., with the "tight" defaults and larger basis sets.
  #
  ################################################################################
    species        H
  #     global species definitions
      nucleus             1
      mass                1.00794
  #
      l_hartree           4
  #
      cut_pot             3.5  1.5  1.0
      basis_dep_cutoff    1e-4
  #
      radial_base         24 5.0
      radial_multiplier   1
      angular_grids       specified
        division   0.2421   50
        division   0.3822  110
        division   0.4799  194
        division   0.5341  302
  #      division   0.5626  434
  #      division   0.5922  590
  #      division   0.6542  770
  #      division   0.6868 1202
  #      outer_grid  770
        outer_grid  302
  ################################################################################
  #
  #  Definition of "minimal" basis
  #
  ################################################################################
  #     valence basis states
      valence      1  s   1.
  #     ion occupancy
      ion_occ      1  s   0.5
  ################################################################################
  #
  #  Suggested additional basis functions. For production calculations,
  #  uncomment them one after another (the most important basis functions are
  #  listed first).
  #
  #  Basis constructed for dimers: 0.5 A, 0.7 A, 1.0 A, 1.5 A, 2.5 A
  #
  ################################################################################
  #  "First tier" - improvements: -1014.90 meV to -62.69 meV
       hydro 2 s 2.1
       hydro 2 p 3.5
  #  "Second tier" - improvements: -12.89 meV to -1.83 meV
  #     hydro 1 s 0.85
  #     hydro 2 p 3.7
  #     hydro 2 s 1.2
  #     hydro 3 d 7
  #  "Third tier" - improvements: -0.25 meV to -0.12 meV
  #     hydro 4 f 11.2
  #     hydro 3 p 4.8
  #     hydro 4 d 9
  #     hydro 3 s 3.2
  ################################################################################
  #
  #  FHI-aims code project
  #  VB, Fritz-Haber Institut, 2009
  #
  #  Suggested "light" defaults for C atom (to be pasted into control.in file)
  #  Be sure to double-check any results obtained with these settings for post-processing,
  #  e.g., with the "tight" defaults and larger basis sets.
  #
  ################################################################################
    species        C
  #     global species definitions
      nucleus             6
      mass                12.0107
  #
      l_hartree           4
  #
      cut_pot             3.5  1.5  1.0
      basis_dep_cutoff    1e-4
  #
      radial_base         34 5.0
      radial_multiplier   1
      angular_grids specified
        division   0.3326   50
        division   0.5710  110
        division   0.7727  194
        division   0.8772  302
  #      division   0.9334  434
  #      division   0.9625  590
  #      division   0.9924  770
  #      division   1.0230  974
  #      division   1.4589 1202
  #     outer_grid  974
       outer_grid 302
  ################################################################################
  #
  #  Definition of "minimal" basis
  #
  ################################################################################
  #     valence basis states
      valence      2  s   2.
      valence      2  p   2.
  #     ion occupancy
      ion_occ      2  s   1.
      ion_occ      2  p   1.
  ################################################################################
  #
  #  Suggested additional basis functions. For production calculations,
  #  uncomment them one after another (the most important basis functions are
  #  listed first).
  #
  #  Constructed for dimers: 1.0 A, 1.25 A, 1.5 A, 2.0 A, 3.0 A
  #
  ################################################################################
  #  "First tier" - improvements: -1214.57 meV to -155.61 meV
       hydro 2 p 1.7
       hydro 3 d 6
       hydro 2 s 4.9
  #  "Second tier" - improvements: -67.75 meV to -5.23 meV
  #     hydro 4 f 9.8
  #     hydro 3 p 5.2
  #     hydro 3 s 4.3
  #     hydro 5 g 14.4
  #     hydro 3 d 6.2
  #  "Third tier" - improvements: -2.43 meV to -0.60 meV
  #     hydro 2 p 5.6
  #     hydro 2 s 1.4
  #     hydro 3 d 4.9
  #     hydro 4 f 11.2
  #  "Fourth tier" - improvements: -0.39 meV to -0.18 meV
  #     hydro 2 p 2.1
  #     hydro 5 g 16.4
  #     hydro 4 d 13.2
  #     hydro 3 s 13.6
  #     hydro 4 f 17.6
  #  Further basis functions - improvements: -0.08 meV and below
  #     hydro 3 s 2
  #     hydro 3 p 6
  #     hydro 4 d 20
  ################################################################################
  #
  #  FHI-aims code project
  #  VB, Fritz-Haber Institut, 2009
  #
  #  Suggested "light" defaults for N atom (to be pasted into control.in file)
  #  Be sure to double-check any results obtained with these settings for post-processing,
  #  e.g., with the "tight" defaults and larger basis sets.
  #
  ################################################################################
    species        N
  #     global species definitions
      nucleus             7
      mass                14.0067
  #
      l_hartree           4
  #
      cut_pot             3.5  1.5  1.0
      basis_dep_cutoff    1e-4
  #
      radial_base         35 5.0
      radial_multiplier   1
      angular_grids       specified
        division   0.2599   50
        division   0.4601  110
        division   0.5885  194
        division   0.6503  302
  #      division   0.6939  434
  #      division   0.7396  590
  #      division   0.7632  770
  #      division   0.8122  974
  #      division   1.1604 1202
  #      outer_grid  974
        outer_grid  302
  ################################################################################
  #
  #  Definition of "minimal" basis
  #
  ################################################################################
  #     valence basis states
      valence      2  s   2.
      valence      2  p   3.
  #     ion occupancy
      ion_occ      2  s   1.
      ion_occ      2  p   2.
  ################################################################################
  #
  #  Suggested additional basis functions. For production calculations,
  #  uncomment them one after another (the most important basis functions are
  #  listed first).
  #
  #  Constructed for dimers: 1.0 A, 1.1 A, 1.5 A, 2.0 A, 3.0 A
  #
  ################################################################################
  #  "First tier" - improvements: -1193.42 meV to -220.60 meV
       hydro 2 p 1.8
       hydro 3 d 6.8
       hydro 3 s 5.8
  #  "Second tier" - improvements: -80.21 meV to -6.86 meV
  #     hydro 4 f 10.8
  #     hydro 3 p 5.8
  #     hydro 1 s 0.8
  #     hydro 5 g 16
  #     hydro 3 d 4.9
  #  "Third tier" - improvements: -4.29 meV to -0.53 meV
  #     hydro 3 s 16
  #     ionic 2 p auto
  #     hydro 3 d 6.6
  #     hydro 4 f 11.6
  #  "Fourth tier" - improvements: -0.75 meV to -0.25 meV
  #     hydro 2 p 4.5
  #     hydro 2 s 2.4
  #     hydro 5 g 14.4
  #     hydro 4 d 14.4
  #     hydro 4 f 16.8
  # Further basis functions - -0.21 meV and below
  #     hydro 3 p 14.8
  #     hydro 3 s 4.4
  #     hydro 3 d 19.6
  #     hydro 5 g 12.8
  ################################################################################
  #
  #  FHI-aims code project
  #  VB, Fritz-Haber Institut, 2009
  #
  #  Suggested "light" defaults for O atom (to be pasted into control.in file)
  #  Be sure to double-check any results obtained with these settings for post-processing,
  #  e.g., with the "tight" defaults and larger basis sets.
  #
  ################################################################################
    species        O
  #     global species definitions
      nucleus             8
      mass                15.9994
  #
      l_hartree           4
  #
      cut_pot             3.5  1.5  1.0
      basis_dep_cutoff    1e-4
  #
      radial_base         36 5.0
      radial_multiplier   1
       angular_grids specified
        division   0.2659   50
        division   0.4451  110
        division   0.6052  194
        division   0.7543  302
  #      division   0.8014  434
  #      division   0.8507  590
  #      division   0.8762  770
  #      division   0.9023  974
  #      division   1.2339 1202
  #      outer_grid 974
        outer_grid 302
  ################################################################################
  #
  #  Definition of "minimal" basis
  #
  ################################################################################
  #     valence basis states
      valence      2  s   2.
      valence      2  p   4.
  #     ion occupancy
      ion_occ      2  s   1.
      ion_occ      2  p   3.
  ################################################################################
  #
  #  Suggested additional basis functions. For production calculations,
  #  uncomment them one after another (the most important basis functions are
  #  listed first).
  #
  #  Constructed for dimers: 1.0 A, 1.208 A, 1.5 A, 2.0 A, 3.0 A
  #
  ################################################################################
  #  "First tier" - improvements: -699.05 meV to -159.38 meV
       hydro 2 p 1.8
       hydro 3 d 7.6
       hydro 3 s 6.4
  #  "Second tier" - improvements: -49.91 meV to -5.39 meV
  #     hydro 4 f 11.6
  #     hydro 3 p 6.2
  #     hydro 3 d 5.6
  #     hydro 5 g 17.6
  #     hydro 1 s 0.75
  #  "Third tier" - improvements: -2.83 meV to -0.50 meV
  #     ionic 2 p auto
  #     hydro 4 f 10.8
  #     hydro 4 d 4.7
  #     hydro 2 s 6.8
  #  "Fourth tier" - improvements: -0.40 meV to -0.12 meV
  #     hydro 3 p 5
  #     hydro 3 s 3.3
  #     hydro 5 g 15.6
  #     hydro 4 f 17.6
  #     hydro 4 d 14
  # Further basis functions - -0.08 meV and below
  #     hydro 3 s 2.1
  #     hydro 4 d 11.6
  #     hydro 3 p 16
  #     hydro 2 s 17.2
  
  -----------------------------------------------------------------------
  Completed first pass over input file control.in .
  -----------------------------------------------------------------------
  
  
  -----------------------------------------------------------------------
  Parsing geometry.in (first pass over file, find array dimensions only).
  The contents of geometry.in will be repeated verbatim below
  unless switched off by setting 'verbatim_writeout .false.' .
  in the first line of geometry.in .
  -----------------------------------------------------------------------
  
  atom  0.00000 0.00000 0.00000 C
  atom  1.09300 0.00000 0.00000 H
  atom  -0.47961 0.00000 -1.41207 N
  atom  -0.34264 0.93244 -1.80403 H
  atom  0.05689 -0.68565 -1.93949 H
  atom  -0.49584 1.26211 0.72868 C
  atom  -1.58789 1.28919 0.74431 H
  atom  -0.13407 1.27425 1.75947 H
  atom  -0.13407 2.16087 0.22380 H
  atom  -0.39425 -1.28861 0.74398 C
  atom  -0.10189 -1.56493 1.88303 O
  atom  -1.10210 -2.13717 0.06896 O
  atom  -0.40227 -2.78356 -0.12443 H
  
  -----------------------------------------------------------------------
  Completed first pass over input file geometry.in .
  -----------------------------------------------------------------------
  

  Basic array size parameters:
  | Number of species                 :        4
  | Number of atoms                   :       13
  | Max. basis fn. angular momentum   :        2
  | Max. atomic/ionic basis occupied n:        2
  | Max. number of basis fn. types    :        2
  | Max. radial fns per species/type  :        3
  | Max. logarithmic grid size        :     1301
  | Max. radial integration grid size :       36
  | Max. angular integration grid size:      302
  | Max. angular grid division number :        8
  | Radial grid for Hartree potential :     1301
  | Number of spin channels           :        1

------------------------------------------------------------
          Reading file control.in.
------------------------------------------------------------
  XC: Using PBE gradient-corrected functionals.
  Spin treatment: No spin polarisation.
  Non-relativistic treatment of kinetic energy.
  Charge =   0.000000E+00: Neutral system requested explicitly.
  Occupation type: Gaussian broadening, width =   0.100000E-01 eV.
  Using pulay charge density mixing.
  Pulay mixing - number of memorized iterations:   10
  Charge density mixing - mixing parameter:     0.2000
  Convergence accuracy of self-consistent charge density:  0.1000E-04
  Convergence accuracy of sum of eigenvalues:  0.1000E-02
  Convergence accuracy of total energy:  0.1000E-05
  Convergence accuracy of forces:  0.1000E-03
  Maximum number of s.-c. iterations  :   100
 
  Reading configuration options for species H                   .
  | Found nuclear charge :   1.0000
  | Found atomic mass :    1.00794000000000      amu
  | Found l_max for Hartree potential  :   4
  | Found cutoff potl. onset [A], width [A], scale factor :    3.50000    1.50000    1.00000
  | Threshold for basis-dependent cutoff potential is   0.100000E-03
  | Found data for basic radial integration grid :    24 points, outermost radius =    5.000 A
  | Found multiplier for basic radial grid :   1
  | Found angular grid specification: user-specified.
  | Specified grid contains     5 separate shells.
  | Check grid settings after all constraints further below.
  | Found free-atom valence shell :  1 s   1.000
  | No ionic wave fns used. Skipping ion_occ.
  | Found hydrogenic basis function :  2 s   2.100
  | Found hydrogenic basis function :  2 p   3.500
  Species H                   : Missing cutoff potential type.
  Defaulting to exp(1/x)/(1-x)^2 type cutoff potential.
  Species H : No 'logarithmic' tag. Using default grid for free atom:
  | Default logarithmic grid data [bohr] : 0.1000E-03 0.1000E+03 0.1012E+01
  Species H : On-site basis accuracy parameter (for Gram-Schmidt orthonormalisation) not specified.
  Using default value basis_acc =  0.1000000E-03.
  Species H                   : Using default innermost maximum threshold i_radial=  2 for radial functions.
  Species H                   : Default cutoff onset for free atom density etc. : 0.35000000E+01 AA.
  Species H                   : Basic radial grid will be enhanced according to radial_multiplier =   1, to contain    24 grid points.
 
  Reading configuration options for species C                   .
  | Found nuclear charge :   6.0000
  | Found atomic mass :    12.0107000000000      amu
  | Found l_max for Hartree potential  :   4
  | Found cutoff potl. onset [A], width [A], scale factor :    3.50000    1.50000    1.00000
  | Threshold for basis-dependent cutoff potential is   0.100000E-03
  | Found data for basic radial integration grid :    34 points, outermost radius =    5.000 A
  | Found multiplier for basic radial grid :   1
  | Found angular grid specification: user-specified.
  | Specified grid contains     5 separate shells.
  | Check grid settings after all constraints further below.
  | Found free-atom valence shell :  2 s   2.000
  | Found free-atom valence shell :  2 p   2.000
  | No ionic wave fns used. Skipping ion_occ.
  | No ionic wave fns used. Skipping ion_occ.
  | Found hydrogenic basis function :  2 p   1.700
  | Found hydrogenic basis function :  3 d   6.000
  | Found hydrogenic basis function :  2 s   4.900
  Species C                   : Missing cutoff potential type.
  Defaulting to exp(1/x)/(1-x)^2 type cutoff potential.
  Species C : No 'logarithmic' tag. Using default grid for free atom:
  | Default logarithmic grid data [bohr] : 0.1000E-03 0.1000E+03 0.1012E+01
  Species C : On-site basis accuracy parameter (for Gram-Schmidt orthonormalisation) not specified.
  Using default value basis_acc =  0.1000000E-03.
  Species C                   : Using default innermost maximum threshold i_radial=  2 for radial functions.
  Species C                   : Default cutoff onset for free atom density etc. : 0.35000000E+01 AA.
  Species C                   : Basic radial grid will be enhanced according to radial_multiplier =   1, to contain    34 grid points.
 
  Reading configuration options for species N                   .
  | Found nuclear charge :   7.0000
  | Found atomic mass :    14.0067000000000      amu
  | Found l_max for Hartree potential  :   4
  | Found cutoff potl. onset [A], width [A], scale factor :    3.50000    1.50000    1.00000
  | Threshold for basis-dependent cutoff potential is   0.100000E-03
  | Found data for basic radial integration grid :    35 points, outermost radius =    5.000 A
  | Found multiplier for basic radial grid :   1
  | Found angular grid specification: user-specified.
  | Specified grid contains     5 separate shells.
  | Check grid settings after all constraints further below.
  | Found free-atom valence shell :  2 s   2.000
  | Found free-atom valence shell :  2 p   3.000
  | No ionic wave fns used. Skipping ion_occ.
  | No ionic wave fns used. Skipping ion_occ.
  | Found hydrogenic basis function :  2 p   1.800
  | Found hydrogenic basis function :  3 d   6.800
  | Found hydrogenic basis function :  3 s   5.800
  Species N                   : Missing cutoff potential type.
  Defaulting to exp(1/x)/(1-x)^2 type cutoff potential.
  Species N : No 'logarithmic' tag. Using default grid for free atom:
  | Default logarithmic grid data [bohr] : 0.1000E-03 0.1000E+03 0.1012E+01
  Species N : On-site basis accuracy parameter (for Gram-Schmidt orthonormalisation) not specified.
  Using default value basis_acc =  0.1000000E-03.
  Species N                   : Using default innermost maximum threshold i_radial=  2 for radial functions.
  Species N                   : Default cutoff onset for free atom density etc. : 0.35000000E+01 AA.
  Species N                   : Basic radial grid will be enhanced according to radial_multiplier =   1, to contain    35 grid points.
 
  Reading configuration options for species O                   .
  | Found nuclear charge :   8.0000
  | Found atomic mass :    15.9994000000000      amu
  | Found l_max for Hartree potential  :   4
  | Found cutoff potl. onset [A], width [A], scale factor :    3.50000    1.50000    1.00000
  | Threshold for basis-dependent cutoff potential is   0.100000E-03
  | Found data for basic radial integration grid :    36 points, outermost radius =    5.000 A
  | Found multiplier for basic radial grid :   1
  | Found angular grid specification: user-specified.
  | Specified grid contains     5 separate shells.
  | Check grid settings after all constraints further below.
  | Found free-atom valence shell :  2 s   2.000
  | Found free-atom valence shell :  2 p   4.000
  | No ionic wave fns used. Skipping ion_occ.
  | No ionic wave fns used. Skipping ion_occ.
  | Found hydrogenic basis function :  2 p   1.800
  | Found hydrogenic basis function :  3 d   7.600
  | Found hydrogenic basis function :  3 s   6.400
  Species O                   : Missing cutoff potential type.
  Defaulting to exp(1/x)/(1-x)^2 type cutoff potential.
  Species O : No 'logarithmic' tag. Using default grid for free atom:
  | Default logarithmic grid data [bohr] : 0.1000E-03 0.1000E+03 0.1012E+01
  Species O : On-site basis accuracy parameter (for Gram-Schmidt orthonormalisation) not specified.
  Using default value basis_acc =  0.1000000E-03.
  Species O                   : Using default innermost maximum threshold i_radial=  2 for radial functions.
  Species O                   : Default cutoff onset for free atom density etc. : 0.35000000E+01 AA.
  Species O                   : Basic radial grid will be enhanced according to radial_multiplier =   1, to contain    36 grid points.
 
  Finished reading input file 'control.in'. Consistency checks are next.
 
  MPI_IN_PLACE appears to work with this MPI implementation.
  | Keeping use_mpi_in_place .true. (see manual).
  Target number of points in a grid batch is not set. Defaulting to  100
  Method for grid partitioning is not set. Defaulting to parallel hash+maxmin partitioning.
  Batch size limit is not set. Defaulting to    200
  By default, will store active basis functions for each batch.
  If in need of memory, prune_basis_once .false. can be used to disable this option.
  communication_type for Hartree potential was not specified.
  Defaulting to calc_hartree .
  Pulay mixer: Number of initial linear mixing iterations not set.
  Defaulting to    0 iterations.
  Work space size for distributed Hartree potential not set.
  Defaulting to   0.200000E+03 MB.
  Algorithm-dependent basis array size parameters:
  | n_max_pulay                         :       10
  Presetting      1001 iterations before the initial mixing cycle
  is restarted anyway using the sc_init_iter criterion / keyword.
  Presetting a factor      1.000 between actual scf density residual
  and density convergence criterion sc_accuracy_rho below which sc_init_iter
  takes no effect.
  Geometry relaxation not requested: no relaxation will be performed.
  Handling of forces: Unphysical translation and rotation will be removed from forces.
  No accuracy limit for integral partition fn. given. Defaulting to  0.1000E-14.
  No threshold value for u(r) in integrations given. Defaulting to  0.1000E-05.
  No accuracy for occupation numbers given. Defaulting to  0.1000E-12.
  No threshold value for occupation numbers given. Defaulting to  0.0000E+00.
  No accuracy for fermi level given. Defaulting to  0.1000E-19.
  Maximum # of iterations to find E_F not set. Defaulting to  200.
  Preferred method for the eigenvalue solver ('KS_method') not specified in 'control.in'.
  Defaulting to serial version, 'lapack_fast'.
  Will not use alltoall communication since running on < 1024 CPUs.
  Threshold for basis singularities not set.
  Default threshold for basis singularities:  0.1000E-04
  partition_type (choice of integration weights) for integrals was not specified.
  | Using a version of the partition function of Stratmann and coworkers ('stratmann_smoother').
  | At each grid point, the set of atoms used to build the partition table is smoothly restricted to
  | only those atoms whose free-atom density would be non-zero at that grid point.
  Partitioning for Hartree potential was not defined. Using partition_type for integrals.
  | Adjusted default value of keyword multip_moments_threshold to:       0.10000000E-11
  | This value may affect high angular momentum components of the Hartree potential in periodic systems.
  No q(lm)/r^(l+1) cutoff set for long-range Hartree potential.
  | Using default value of  0.100000E-09 .
  | Verify using the multipole_threshold keyword.
  Defaulting to new monopole extrapolation.
  Density update method: automatic selection selected.
------------------------------------------------------------


------------------------------------------------------------
          Reading geometry description geometry.in.
------------------------------------------------------------
  Input structure read successfully.
  The structure contains       13 atoms,  and a total of         48.000 electrons.

  Input geometry:
  | No unit cell requested.
  | Atomic structure:
  |       Atom                x [A]            y [A]            z [A]
  |    1: Species C             0.00000000        0.00000000        0.00000000
  |    2: Species H             1.09300000        0.00000000        0.00000000
  |    3: Species N            -0.47961000        0.00000000       -1.41207000
  |    4: Species H            -0.34264000        0.93244000       -1.80403000
  |    5: Species H             0.05689000       -0.68565000       -1.93949000
  |    6: Species C            -0.49584000        1.26211000        0.72868000
  |    7: Species H            -1.58789000        1.28919000        0.74431000
  |    8: Species H            -0.13407000        1.27425000        1.75947000
  |    9: Species H            -0.13407000        2.16087000        0.22380000
  |   10: Species C            -0.39425000       -1.28861000        0.74398000
  |   11: Species O            -0.10189000       -1.56493000        1.88303000
  |   12: Species O            -1.10210000       -2.13717000        0.06896000
  |   13: Species H            -0.40227000       -2.78356000       -0.12443000
  |

  | The smallest distance between any two atoms is         0.97210172 AA.
  |
  | The first atom of this pair is atom number                     12 .
  | The second atom of this pair is atom number                    13 .

  Number of empty states per atom not set in control.in - providing a guess from actual geometry.
  | Total number of empty states used during s.c.f. cycle:       29
  If you use a very high smearing, use empty_states (per atom!) in control.in to increase this value.

  Structure-dependent array size parameters: 
  | Maximum number of distinct radial functions  :       21
  | Maximum number of basis functions            :      119
  | Number of Kohn-Sham states (occupied + empty):       53
------------------------------------------------------------

------------------------------------------------------------
          Preparing all fixed parts of the calculation.
------------------------------------------------------------
  Determining machine precision:
    2.225073858507201E-308
  Setting up grids for atomic and cluster calculations.

  Creating wave function, potential, and density for free atoms.

  Species: H

  List of occupied orbitals and eigenvalues:
    n    l              occ      energy [Ha]    energy [eV]
    1    0           1.0000        -0.237589        -6.4651


  Species: C

  List of occupied orbitals and eigenvalues:
    n    l              occ      energy [Ha]    energy [eV]
    1    0           2.0000       -10.038835      -273.1706
    2    0           2.0000        -0.502696       -13.6791
    2    1           2.0000        -0.191971        -5.2238


  Species: N

  List of occupied orbitals and eigenvalues:
    n    l              occ      energy [Ha]    energy [eV]
    1    0           2.0000       -14.128000      -384.4424
    2    0           2.0000        -0.681077       -18.5330
    2    1           3.0000        -0.259788        -7.0692


  Species: O

  List of occupied orbitals and eigenvalues:
    n    l              occ      energy [Ha]    energy [eV]
    1    0           2.0000       -18.898188      -514.2459
    2    0           2.0000        -0.878505       -23.9053
    2    1           4.0000        -0.331779        -9.0282

  Creating fixed part of basis set: Ionic, confined, hydrogenic.
 
  H                    hydrogenic:
 
  List of hydrogenic basis orbitals: 
    n    l      effective z      eigenvalue [eV]  inner max. [A]     outer max. [A]     outer radius [A]   
    2    0         2.100000       -14.9728           0.193243           1.317208           4.583499
    2    1         3.500000       -41.6669           0.602369           0.602369           3.723403
 
 
  C                    hydrogenic:
 
  List of hydrogenic basis orbitals: 
    n    l      effective z      eigenvalue [eV]  inner max. [A]     outer max. [A]     outer radius [A]   
    2    1         1.700000        -9.7616           1.230570           1.230570           4.607917
    3    2         6.000000       -54.4224           0.792453           0.792453           3.883070
    2    0         4.900000       -81.6679           0.082559           0.562749           3.078220
 
 
  N                    hydrogenic:
 
  List of hydrogenic basis orbitals: 
    n    l      effective z      eigenvalue [eV]  inner max. [A]     outer max. [A]     outer radius [A]   
    2    1         1.800000       -10.9749           1.177451           1.177451           4.573712
    3    2         6.800000       -69.9026           0.704619           0.704619           3.538137
    3    0         5.800000       -50.8545           0.067388           1.191934           4.250239
 
 
  O                    hydrogenic:
 
  List of hydrogenic basis orbitals: 
    n    l      effective z      eigenvalue [eV]  inner max. [A]     outer max. [A]     outer radius [A]   
    2    1         1.800000       -10.9749           1.164242           1.164242           4.578029
    3    2         7.600000       -87.3180           0.624125           0.624125           3.251020
    3    0         6.400000       -61.9207           0.061167           1.081902           4.001998
 

  Adding cutoff potential to free-atom effective potential.
  Creating atomic-like basis functions for current effective potential.

  Species H                   :

  List of atomic basis orbitals and eigenvalues:
    n    l      energy [Ha]    energy [eV]    outer radius [A]
    1    0        -0.237589        -6.4651       4.527807


  Species C                   :

  List of atomic basis orbitals and eigenvalues:
    n    l      energy [Ha]    energy [eV]    outer radius [A]
    1    0       -10.038835      -273.1706       1.934409
    2    0        -0.502696       -13.6791       4.496620
    2    1        -0.191971        -5.2238       4.551928


  Species N                   :

  List of atomic basis orbitals and eigenvalues:
    n    l      energy [Ha]    energy [eV]    outer radius [A]
    1    0       -14.128000      -384.4424       1.637919
    2    0        -0.681077       -18.5330       4.463241
    2    1        -0.259788        -7.0692       4.518138


  Species O                   :

  List of atomic basis orbitals and eigenvalues:
    n    l      energy [Ha]    energy [eV]    outer radius [A]
    1    0       -18.898188      -514.2459       1.415765
    2    0        -0.878505       -23.9053       4.413171
    2    1        -0.331779        -9.0282       4.522403

  Assembling full basis from fixed parts.
  | Species H :   atomic orbital   1 s accepted.
  | Species H :    hydro orbital   2 s accepted.
  | Species H :    hydro orbital   2 p accepted.
  | Species C :   atomic orbital   1 s accepted.
  | Species C :    hydro orbital   2 s accepted.
  | Species C :   atomic orbital   2 s accepted.
  | Species C :   atomic orbital   2 p accepted.
  | Species C :    hydro orbital   2 p accepted.
  | Species C :    hydro orbital   3 d accepted.
  | Species N :   atomic orbital   1 s accepted.
  | Species N :    hydro orbital   3 s accepted.
  | Species N :   atomic orbital   2 s accepted.
  | Species N :   atomic orbital   2 p accepted.
  | Species N :    hydro orbital   2 p accepted.
  | Species N :    hydro orbital   3 d accepted.
  | Species O :   atomic orbital   1 s accepted.
  | Species O :    hydro orbital   3 s accepted.
  | Species O :   atomic orbital   2 s accepted.
  | Species O :   atomic orbital   2 p accepted.
  | Species O :    hydro orbital   2 p accepted.
  | Species O :    hydro orbital   3 d accepted.
 
  Basis size parameters after reduction:
  | Total number of radial functions:       21
  | Total number of basis functions :      119
 
  Per-task memory consumption for arrays in subroutine allocate_ext:
  |           5.250512MB.
  Testing on-site integration grid accuracy.
  |  Species  Function  <phi|h_atom|phi> (log., in eV)  <phi|h_atom|phi> (rad., in eV)
           1        1                 -6.4663192853                 -6.4651273558
           1        2                 13.7111246313                 13.7170609718
           1        3                 25.2673269279                 25.2674696378
           2        4               -273.1705927641               -273.1705631568
           2        5                -10.7109323383                -10.7107120029
           2        6                 17.4381822266                 17.4352413244
           2        7                 -5.2255326521                 -5.2270484734
           2        8                  8.6835629259                  8.6603288385
           2        9                 27.4952418996                 27.4953360207
           3       10               -384.4424306495               -384.4423701208
           3       11                 12.5842251816                 12.5842222903
           3       12                -15.7264628251                -15.7264433455
           3       13                 -7.0696854293                 -7.0701769954
           3       14                  8.8090390882                  8.7901077751
           3       15                 35.9586762123                 35.9588528632
           4       16               -514.2458688638               -514.2457643834
           4       17                 15.1795651126                 15.1795290741
           4       18                -21.5359799773                -21.5360846186
           4       19                 -9.0283069236                 -9.0284644067
           4       20                  8.3027758564                  8.2834874195
           4       21                 45.8339351984                 45.8338762259

  Preparing densities etc. for the partition functions (integrals / Hartree potential).

  Preparations completed.
  max(cpu_time)          :      0.144 s.
  Wall clock time (cpu1) :      0.145 s.
------------------------------------------------------------

------------------------------------------------------------
          Begin self-consistency loop: Initialization.

          Date     :  20200710, Time     :  145732.991
------------------------------------------------------------

  Initializing index lists of integration centers etc. from given atomic structure:
  | Number of centers in hartree potential         :        13
  | Number of centers in hartree multipole         :        13
  | Number of centers in electron density summation:        13
  | Number of centers in basis integrals           :        13
  | Number of centers in integrals                 :        13
  | Number of centers in hamiltonian               :        13
  Partitioning the integration grid into batches with parallel hashing+maxmin method.
  | Number of batches:      953
  | Maximal batch size:     139
  | Minimal batch size:      66
  | Average batch size:      73.081
  | Standard deviation of batch sizes:      17.845

  Integration load balanced across     1 MPI tasks.
  Work distribution over tasks is as follows:
  Task     0 has      69646 integration points.
  Initializing partition tables, free-atom densities, potentials, etc. across the integration grid (initialize_grid_storage).
  | initialize_grid_storage: Actual outermost partition radius vs. multipole_radius_free
  | (-- VB: in principle, multipole_radius_free should be larger, hence this output)
  | Species        1: Confinement radius =              4.999999999999999 AA, multipole_radius_free =              5.054417573612229 AA.
  | Species        1: outer_partition_radius set to              5.054417573612229 AA .
  | Species        2: Confinement radius =              4.999999999999999 AA, multipole_radius_free =              5.019602836301480 AA.
  | Species        2: outer_partition_radius set to              5.019602836301480 AA .
  | Species        3: Confinement radius =              4.999999999999999 AA, multipole_radius_free =              5.043624274424571 AA.
  | Species        3: outer_partition_radius set to              5.043624274424571 AA .
  | Species        4: Confinement radius =              4.999999999999999 AA, multipole_radius_free =              5.048384829883283 AA.
  | Species        4: outer_partition_radius set to              5.048384829883283 AA .
  | Original list of interatomic distances with          13 x         13 entries is created.
  | Net number of integration points:    69646
  | of which are non-zero points    :    59554
  Renormalizing the initial density to the exact electron count on the 3D integration grid.
  | Initial density: Formal number of electrons (from input files) :      48.0000000000
  | Integrated number of electrons on 3D grid     :      47.9999890082
  | Charge integration error                      :      -0.0000109918
  | Normalization factor for density and gradient :       1.0000002290
  Obtaining max. number of non-zero basis functions in each batch (get_n_compute_maxes).
  | Maximal number of non-zero basis functions:      119 in task     0
  Selecting the method for density update.
  Loop over occupied states selected for charge density update.
  Allocating        0.050 MB for KS_eigenvector
  Integrating Hamiltonian matrix: batch-based integration.
  Time summed over all CPUs for integration: real work        0.489 s, elapsed        0.489 s
  Integrating overlap matrix.
  Time summed over all CPUs for integration: real work        0.209 s, elapsed        0.209 s

  Updating Kohn-Sham eigenvalues and eigenvectors using ELSI and the ELPA eigensolver.
  Overlap matrix is nonsingular
  | Lowest eigenvalue of overlap  :  0.53E-02
  | Highest eigenvalue of overlap :  0.61E+01
  Finished singularity check of overlap matrix
  | Time :     0.002 s
  Finished Cholesky decomposition
  | Time :     0.000 s
  Finished transformation to standard eigenproblem
  | Time :     0.000 s
  Starting LAPACK eigensolver
  Finished solving standard eigenproblem
  | Time :     0.002 s
  Finished back-transformation of eigenvectors
  | Time :     0.000 s

  Obtaining occupation numbers and chemical potential using ELSI.
  | Chemical potential (Fermi level):    -9.43352420eV
  Writing Kohn-Sham eigenvalues.

  State    Occupation    Eigenvalue [Ha]    Eigenvalue [eV]
      1       2.00000         -19.007563         -517.22211
      2       2.00000         -18.977426         -516.40202
      3       2.00000         -14.245806         -387.64811
      4       2.00000         -10.166741         -276.65111
      5       2.00000         -10.141286         -275.95844
      6       2.00000         -10.131934         -275.70396
      7       2.00000          -1.184083          -32.22054
      8       2.00000          -1.096022          -29.82427
      9       2.00000          -0.991254          -26.97339
     10       2.00000          -0.860578          -23.41753
     11       2.00000          -0.757114          -20.60211
     12       2.00000          -0.680132          -18.50734
     13       2.00000          -0.625091          -17.00959
     14       2.00000          -0.599272          -16.30701
     15       2.00000          -0.588479          -16.01333
     16       2.00000          -0.579135          -15.75905
     17       2.00000          -0.553924          -15.07305
     18       2.00000          -0.530109          -14.42500
     19       2.00000          -0.512976          -13.95879
     20       2.00000          -0.504765          -13.73536
     21       2.00000          -0.459948          -12.51583
     22       2.00000          -0.428212          -11.65225
     23       2.00000          -0.405641          -11.03806
     24       2.00000          -0.382306          -10.40308
     25       0.00000          -0.162597           -4.42448
     26       0.00000          -0.065366           -1.77871
     27       0.00000          -0.028632           -0.77913
     28       0.00000          -0.026679           -0.72598
     29       0.00000           0.004206            0.11444
     30       0.00000           0.008805            0.23960
     31       0.00000           0.018247            0.49654
     32       0.00000           0.029881            0.81311
     33       0.00000           0.042708            1.16214
     34       0.00000           0.071541            1.94673
     35       0.00000           0.080289            2.18478
     36       0.00000           0.132747            3.61223
     37       0.00000           0.159405            4.33763
     38       0.00000           0.196744            5.35367
     39       0.00000           0.216852            5.90086
     40       0.00000           0.226668            6.16795
     41       0.00000           0.244669            6.65777
     42       0.00000           0.276596            7.52657
     43       0.00000           0.289082            7.86632
     44       0.00000           0.300304            8.17170
     45       0.00000           0.337273            9.17767
     46       0.00000           0.365966            9.95844
     47       0.00000           0.376645           10.24904
     48       0.00000           0.412034           11.21202
     49       0.00000           0.420718           11.44833
     50       0.00000           0.469435           12.77399
     51       0.00000           0.480914           13.08633
     52       0.00000           0.543345           14.78516
     53       0.00000           0.571073           15.53969

  Highest occupied state (VBM) at    -10.40307726 eV
  | Occupation number:      2.00000000

  Lowest unoccupied state (CBM) at    -4.42447942 eV
  | Occupation number:      0.00000000

  Overall HOMO-LUMO gap:      5.97859784 eV.
  Calculating total energy contributions from superposition of free atom densities.

  Total energy components:
  | Sum of eigenvalues            :        -188.81959762 Ha       -5138.04267207 eV
  | XC energy correction          :         -41.78261965 Ha       -1136.96292870 eV
  | XC potential correction       :          53.71157461 Ha        1461.56630888 eV
  | Free-atom electrostatic energy:        -146.86728236 Ha       -3996.46209078 eV
  | Hartree energy correction     :           0.00000000 Ha           0.00000000 eV
  | vdW energy correction         :           0.00000000 Ha           0.00000000 eV
  | Entropy correction            :           0.00000000 Ha           0.00000000 eV
  | ---------------------------
  | Total energy                  :        -323.75792502 Ha       -8809.90138267 eV
  | Total energy, T -> 0          :        -323.75792502 Ha       -8809.90138267 eV  <-- do not rely on this value for anything but (periodic) metals
  | Electronic free energy        :        -323.75792502 Ha       -8809.90138267 eV

  Derived energy quantities:
  | Kinetic energy                :         320.48586082 Ha        8720.86398552 eV
  | Electrostatic energy          :        -602.46116619 Ha      -16393.80243949 eV
  | Energy correction for multipole
  | error in Hartree potential    :           0.00000000 Ha           0.00000000 eV
  | Sum of eigenvalues per atom                           :        -395.23405170 eV
  | Total energy (T->0) per atom                          :        -677.68472174 eV  <-- do not rely on this value for anything but (periodic) metals
  | Electronic free energy per atom                       :        -677.68472174 eV
  Initialize hartree_potential_storage
  Max. number of atoms included in rho_multipole:           13

  End scf initialization - timings             :  max(cpu_time)    wall_clock(cpu1)
  | Time for scf. initialization               :        1.137 s           1.139 s
  | Boundary condition initialization          :        0.000 s           0.000 s
  | Integration                                :        0.697 s           0.698 s
  | Solution of K.-S. eqns.                    :        0.004 s           0.005 s
  | Grid partitioning                          :        0.109 s           0.110 s
  | Preloading free-atom quantities on grid    :        0.002 s           0.002 s
  | Free-atom superposition energy             :        0.084 s           0.085 s
  | Total energy evaluation                    :        0.000 s           0.000 s

  Partial memory accounting:
  | Current value for overall tracked memory usage on task 0  :           0.165 MB
  | Peak value for overall tracked memory usage on task 0     :           0.678 MB after allocating wave
  | Largest tracked array allocation on task 0 so far         :           0.132 MB  when allocating H_times_psi
  Note:  These values currently only include a subset of arrays which are explicitly tracked.
  The "true" memory usage will be greater.
------------------------------------------------------------

------------------------------------------------------------
          Begin self-consistency iteration #    1

  Date     :  20200710, Time     :  145734.130
------------------------------------------------------------
  Evaluating new KS density.
  Integration grid: deviation in total charge (<rho> - N_e) =  -7.105427E-15
  Pulay mixing of updated and previous charge densities.

  Evaluating partitioned Hartree potential by multipole expansion.
  | Analytical far-field extrapolation by fixed multipoles:
  | Hartree multipole sum: apparent total charge =  -0.120970E-03
  Summing up the Hartree potential.
  Time summed over all CPUs for potential: real work        0.281 s, elapsed        0.281 s
  | RMS charge density error from multipole expansion :   0.587266E-02

  Integrating Hamiltonian matrix: batch-based integration.
  Time summed over all CPUs for integration: real work        0.511 s, elapsed        0.511 s

  Updating Kohn-Sham eigenvalues and eigenvectors using ELSI and the ELPA eigensolver.
  Finished Cholesky decomposition
  | Time :     0.000 s
  Finished transformation to standard eigenproblem
  | Time :     0.000 s
  Starting LAPACK eigensolver
  Finished solving standard eigenproblem
  | Time :     0.002 s
  Finished back-transformation of eigenvectors
  | Time :     0.000 s

  Obtaining occupation numbers and chemical potential using ELSI.
  | Chemical potential (Fermi level):    -8.31670063eV
  Writing Kohn-Sham eigenvalues.

  State    Occupation    Eigenvalue [Ha]    Eigenvalue [eV]
      1       2.00000         -18.892700         -514.09652
      2       2.00000         -18.839507         -512.64907
      3       2.00000         -14.095652         -383.56222
      4       2.00000         -10.116057         -275.27191
      5       2.00000         -10.062594         -273.81712
      6       2.00000         -10.031348         -272.96686
      7       2.00000          -1.131527          -30.79042
      8       2.00000          -1.032098          -28.08482
      9       2.00000          -0.921351          -25.07125
     10       2.00000          -0.794300          -21.61400
     11       2.00000          -0.704882          -19.18083
     12       2.00000          -0.633423          -17.23632
     13       2.00000          -0.564769          -15.36816
     14       2.00000          -0.539177          -14.67176
     15       2.00000          -0.531537          -14.46385
     16       2.00000          -0.522049          -14.20568
     17       2.00000          -0.491155          -13.36500
     18       2.00000          -0.469226          -12.76830
     19       2.00000          -0.447285          -12.17124
     20       2.00000          -0.444271          -12.08924
     21       2.00000          -0.397908          -10.82764
     22       2.00000          -0.368322          -10.02256
     23       2.00000          -0.332791           -9.05571
     24       2.00000          -0.310537           -8.45014
     25       0.00000          -0.126866           -3.45221
     26       0.00000          -0.043822           -1.19245
     27       0.00000          -0.006279           -0.17085
     28       0.00000           0.014650            0.39864
     29       0.00000           0.037719            1.02639
     30       0.00000           0.042778            1.16405
     31       0.00000           0.058921            1.60331
     32       0.00000           0.067315            1.83172
     33       0.00000           0.083610            2.27514
     34       0.00000           0.111246            3.02715
     35       0.00000           0.121446            3.30473
     36       0.00000           0.160757            4.37442
     37       0.00000           0.186673            5.07963
     38       0.00000           0.227599            6.19327
     39       0.00000           0.250670            6.82107
     40       0.00000           0.262620            7.14626
     41       0.00000           0.281554            7.66146
     42       0.00000           0.316637            8.61613
     43       0.00000           0.322574            8.77769
     44       0.00000           0.333951            9.08727
     45       0.00000           0.378255           10.29283
     46       0.00000           0.410149           11.16072
     47       0.00000           0.416198           11.32532
     48       0.00000           0.444390           12.09246
     49       0.00000           0.458504           12.47654
     50       0.00000           0.506467           13.78168
     51       0.00000           0.521436           14.18900
     52       0.00000           0.576955           15.69973
     53       0.00000           0.608485           16.55772

  Highest occupied state (VBM) at     -8.45014025 eV
  | Occupation number:      2.00000000

  Lowest unoccupied state (CBM) at    -3.45221164 eV
  | Occupation number:      0.00000000

  Overall HOMO-LUMO gap:      4.99792861 eV.

  Total energy components:
  | Sum of eigenvalues            :        -185.34893612 Ha       -5043.60116730 eV
  | XC energy correction          :         -42.11395533 Ha       -1145.97903141 eV
  | XC potential correction       :          54.14257043 Ha        1473.29430184 eV
  | Free-atom electrostatic energy:        -146.86728236 Ha       -3996.46209078 eV
  | Hartree energy correction     :          -3.38379146 Ha         -92.07765045 eV
  | vdW energy correction         :           0.00000000 Ha           0.00000000 eV
  | Entropy correction            :          -0.00000000 Ha          -0.00000000 eV
  | ---------------------------
  | Total energy                  :        -323.57139484 Ha       -8804.82563810 eV
  | Total energy, T -> 0          :        -323.57139484 Ha       -8804.82563810 eV  <-- do not rely on this value for anything but (periodic) metals
  | Electronic free energy        :        -323.57139484 Ha       -8804.82563810 eV

  Derived energy quantities:
  | Kinetic energy                :         322.29415818 Ha        8770.07026047 eV
  | Electrostatic energy          :        -603.75159769 Ha      -16428.91686716 eV
  | Energy correction for multipole
  | error in Hartree potential    :           0.01212535 Ha           0.32994752 eV
  | Sum of eigenvalues per atom                           :        -387.96932056 eV
  | Total energy (T->0) per atom                          :        -677.29427985 eV  <-- do not rely on this value for anything but (periodic) metals
  | Electronic free energy per atom                       :        -677.29427985 eV

  Self-consistency convergence accuracy:
  | Change of charge density      :  0.5901E+00
  | Change of sum of eigenvalues  :  0.9444E+02 eV
  | Change of total energy        :  0.5076E+01 eV

  End self-consistency iteration #     1       :  max(cpu_time)    wall_clock(cpu1)
  | Time for this iteration                    :        1.198 s           1.200 s
  | Charge density update                      :        0.388 s           0.389 s
  | Density mixing                             :        0.005 s           0.006 s
  | Hartree multipole update                   :        0.009 s           0.009 s
  | Hartree multipole summation                :        0.282 s           0.282 s
  | Integration                                :        0.511 s           0.511 s
  | Solution of K.-S. eqns.                    :        0.002 s           0.002 s
  | Total energy evaluation                    :        0.000 s           0.001 s

  Partial memory accounting:
  | Current value for overall tracked memory usage on task 0  :           0.165 MB
  | Peak value for overall tracked memory usage on task 0     :           0.695 MB after allocating gradient_basis_wave
  | Largest tracked array allocation on task 0 so far         :           0.397 MB  when allocating gradient_basis_wave
  Note:  These values currently only include a subset of arrays which are explicitly tracked.
  The "true" memory usage will be greater.
------------------------------------------------------------

------------------------------------------------------------
          Begin self-consistency iteration #    2

  Date     :  20200710, Time     :  145735.330
------------------------------------------------------------
  Evaluating new KS density.
  Integration grid: deviation in total charge (<rho> - N_e) =  -2.842171E-14
  Pulay mixing of updated and previous charge densities.

  Evaluating partitioned Hartree potential by multipole expansion.
  | Analytical far-field extrapolation by fixed multipoles:
  | Hartree multipole sum: apparent total charge =  -0.260355E-03
  Summing up the Hartree potential.
  Time summed over all CPUs for potential: real work        0.281 s, elapsed        0.281 s
  | RMS charge density error from multipole expansion :   0.138686E-01

  Integrating Hamiltonian matrix: batch-based integration.
  Time summed over all CPUs for integration: real work        0.494 s, elapsed        0.494 s

  Updating Kohn-Sham eigenvalues and eigenvectors using ELSI and the ELPA eigensolver.
  Finished Cholesky decomposition
  | Time :     0.000 s
  Finished transformation to standard eigenproblem
  | Time :     0.000 s
  Starting LAPACK eigensolver
  Finished solving standard eigenproblem
  | Time :     0.002 s
  Finished back-transformation of eigenvectors
  | Time :     0.000 s

  Obtaining occupation numbers and chemical potential using ELSI.
  | Chemical potential (Fermi level):    -2.84697481eV
  Highest occupied state (VBM) at     -6.47210400 eV
  | Occupation number:      2.00000000

  Lowest unoccupied state (CBM) at    -2.23495573 eV
  | Occupation number:      0.00000000

  Overall HOMO-LUMO gap:      4.23714828 eV.

  Checking to see if s.c.f. parameters should be adjusted.

  Total energy components:
  | Sum of eigenvalues            :        -181.74195650 Ha       -4945.45025803 eV
  | XC energy correction          :         -42.47236150 Ha       -1155.73175941 eV
  | XC potential correction       :          54.60722952 Ha        1485.93831897 eV
  | Free-atom electrostatic energy:        -146.86728236 Ha       -3996.46209078 eV
  | Hartree energy correction     :          -7.01706707 Ha        -190.94411014 eV
  | vdW energy correction         :           0.00000000 Ha           0.00000000 eV
  | Entropy correction            :           0.00000000 Ha           0.00000000 eV
  | ---------------------------
  | Total energy                  :        -323.49143791 Ha       -8802.64989940 eV
  | Total energy, T -> 0          :        -323.49143791 Ha       -8802.64989940 eV  <-- do not rely on this value for anything but (periodic) metals
  | Electronic free energy        :        -323.49143791 Ha       -8802.64989940 eV

  Derived energy quantities:
  | Kinetic energy                :         323.60298901 Ha        8805.68535942 eV
  | Electrostatic energy          :        -604.62206542 Ha      -16452.60349940 eV
  | Energy correction for multipole
  | error in Hartree potential    :           0.02660395 Ha           0.72393043 eV
  | Sum of eigenvalues per atom                           :        -380.41925062 eV
  | Total energy (T->0) per atom                          :        -677.12691534 eV  <-- do not rely on this value for anything but (periodic) metals
  | Electronic free energy per atom                       :        -677.12691534 eV

  Self-consistency convergence accuracy:
  | Change of charge density      :  0.3686E+00
  | Change of sum of eigenvalues  :  0.9815E+02 eV
  | Change of total energy        :  0.2176E+01 eV

  End self-consistency iteration #     2       :  max(cpu_time)    wall_clock(cpu1)
  | Time for this iteration                    :        1.173 s           1.176 s
  | Charge density update                      :        0.381 s           0.382 s
  | Density mixing                             :        0.007 s           0.007 s
  | Hartree multipole update                   :        0.009 s           0.009 s
  | Hartree multipole summation                :        0.281 s           0.281 s
  | Integration                                :        0.493 s           0.495 s
  | Solution of K.-S. eqns.                    :        0.002 s           0.002 s
  | Total energy evaluation                    :        0.000 s           0.000 s

  Partial memory accounting:
  | Current value for overall tracked memory usage on task 0  :           0.166 MB
  | Peak value for overall tracked memory usage on task 0     :           0.695 MB after allocating gradient_basis_wave
  | Largest tracked array allocation on task 0 so far         :           0.397 MB  when allocating gradient_basis_wave
  Note:  These values currently only include a subset of arrays which are explicitly tracked.
  The "true" memory usage will be greater.
------------------------------------------------------------

------------------------------------------------------------
          Begin self-consistency iteration #    3

  Date     :  20200710, Time     :  145736.507
------------------------------------------------------------
  Evaluating new KS density.
  Integration grid: deviation in total charge (<rho> - N_e) =   0.000000E+00
  Pulay mixing of updated and previous charge densities.

  Evaluating partitioned Hartree potential by multipole expansion.
  | Analytical far-field extrapolation by fixed multipoles:
  | Hartree multipole sum: apparent total charge =  -0.360883E-03
  Summing up the Hartree potential.
  Time summed over all CPUs for potential: real work        0.281 s, elapsed        0.281 s
  | RMS charge density error from multipole expansion :   0.219058E-01

  Integrating Hamiltonian matrix: batch-based integration.
  Time summed over all CPUs for integration: real work        0.494 s, elapsed        0.494 s

  Updating Kohn-Sham eigenvalues and eigenvectors using ELSI and the ELPA eigensolver.
  Finished Cholesky decomposition
  | Time :     0.000 s
  Finished transformation to standard eigenproblem
  | Time :     0.000 s
  Starting LAPACK eigensolver
  Finished solving standard eigenproblem
  | Time :     0.002 s
  Finished back-transformation of eigenvectors
  | Time :     0.000 s

  Obtaining occupation numbers and chemical potential using ELSI.
  | Chemical potential (Fermi level):    -2.14337100eV
  Highest occupied state (VBM) at     -5.78201117 eV
  | Occupation number:      2.00000000

  Lowest unoccupied state (CBM) at    -1.55406010 eV
  | Occupation number:      0.00000000

  Overall HOMO-LUMO gap:      4.22795107 eV.

  Total energy components:
  | Sum of eigenvalues            :        -180.42760007 Ha       -4909.68479979 eV
  | XC energy correction          :         -42.62396881 Ha       -1159.85720407 eV
  | XC potential correction       :          54.80057653 Ha        1491.19955869 eV
  | Free-atom electrostatic energy:        -146.86728236 Ha       -3996.46209078 eV
  | Hartree energy correction     :          -8.35949551 Ha        -227.47344657 eV
  | vdW energy correction         :           0.00000000 Ha           0.00000000 eV
  | Entropy correction            :           0.00000000 Ha           0.00000000 eV
  | ---------------------------
  | Total energy                  :        -323.47777021 Ha       -8802.27798252 eV
  | Total energy, T -> 0          :        -323.47777021 Ha       -8802.27798252 eV  <-- do not rely on this value for anything but (periodic) metals
  | Electronic free energy        :        -323.47777021 Ha       -8802.27798252 eV

  Derived energy quantities:
  | Kinetic energy                :         323.17142778 Ha        8793.94198074 eV
  | Electrostatic energy          :        -604.02522919 Ha      -16436.36275920 eV
  | Energy correction for multipole
  | error in Hartree potential    :           0.03778844 Ha           1.02827582 eV
  | Sum of eigenvalues per atom                           :        -377.66806152 eV
  | Total energy (T->0) per atom                          :        -677.09830635 eV  <-- do not rely on this value for anything but (periodic) metals
  | Electronic free energy per atom                       :        -677.09830635 eV

  Self-consistency convergence accuracy:
  | Change of charge density      :  0.2077E+00
  | Change of sum of eigenvalues  :  0.3577E+02 eV
  | Change of total energy        :  0.3719E+00 eV

  End self-consistency iteration #     3       :  max(cpu_time)    wall_clock(cpu1)
  | Time for this iteration                    :        1.175 s           1.177 s
  | Charge density update                      :        0.381 s           0.381 s
  | Density mixing                             :        0.008 s           0.009 s
  | Hartree multipole update                   :        0.009 s           0.008 s
  | Hartree multipole summation                :        0.281 s           0.281 s
  | Integration                                :        0.493 s           0.494 s
  | Solution of K.-S. eqns.                    :        0.002 s           0.002 s
  | Total energy evaluation                    :        0.000 s           0.000 s

  Partial memory accounting:
  | Current value for overall tracked memory usage on task 0  :           0.166 MB
  | Peak value for overall tracked memory usage on task 0     :           0.695 MB after allocating gradient_basis_wave
  | Largest tracked array allocation on task 0 so far         :           0.397 MB  when allocating gradient_basis_wave
  Note:  These values currently only include a subset of arrays which are explicitly tracked.
  The "true" memory usage will be greater.
------------------------------------------------------------

------------------------------------------------------------
          Begin self-consistency iteration #    4

  Date     :  20200710, Time     :  145737.684
------------------------------------------------------------
  Evaluating new KS density.
  Integration grid: deviation in total charge (<rho> - N_e) =   1.421085E-14
  Pulay mixing of updated and previous charge densities.

  Evaluating partitioned Hartree potential by multipole expansion.
  | Analytical far-field extrapolation by fixed multipoles:
  | Hartree multipole sum: apparent total charge =  -0.394006E-03
  Summing up the Hartree potential.
  Time summed over all CPUs for potential: real work        0.280 s, elapsed        0.280 s
  | RMS charge density error from multipole expansion :   0.251996E-01

  Integrating Hamiltonian matrix: batch-based integration.
  Time summed over all CPUs for integration: real work        0.486 s, elapsed        0.486 s

  Updating Kohn-Sham eigenvalues and eigenvectors using ELSI and the ELPA eigensolver.
  Finished Cholesky decomposition
  | Time :     0.000 s
  Finished transformation to standard eigenproblem
  | Time :     0.000 s
  Starting LAPACK eigensolver
  Finished solving standard eigenproblem
  | Time :     0.002 s
  Finished back-transformation of eigenvectors
  | Time :     0.000 s

  Obtaining occupation numbers and chemical potential using ELSI.
  | Chemical potential (Fermi level):    -2.04099048eV
  Highest occupied state (VBM) at     -5.60285206 eV
  | Occupation number:      2.00000000

  Lowest unoccupied state (CBM) at    -1.45461732 eV
  | Occupation number:      0.00000000

  Overall HOMO-LUMO gap:      4.14823474 eV.

  Total energy components:
  | Sum of eigenvalues            :        -180.25963100 Ha       -4905.11412889 eV
  | XC energy correction          :         -42.66262723 Ha       -1160.90915337 eV
  | XC potential correction       :          54.84935788 Ha        1492.52696677 eV
  | Free-atom electrostatic energy:        -146.86728236 Ha       -3996.46209078 eV
  | Hartree energy correction     :          -8.53663354 Ha        -232.29361769 eV
  | vdW energy correction         :           0.00000000 Ha           0.00000000 eV
  | Entropy correction            :           0.00000000 Ha           0.00000000 eV
  | ---------------------------
  | Total energy                  :        -323.47681626 Ha       -8802.25202395 eV
  | Total energy, T -> 0          :        -323.47681626 Ha       -8802.25202395 eV  <-- do not rely on this value for anything but (periodic) metals
  | Electronic free energy        :        -323.47681626 Ha       -8802.25202395 eV

  Derived energy quantities:
  | Kinetic energy                :         322.80876539 Ha        8784.07343509 eV
  | Electrostatic energy          :        -603.62295442 Ha      -16425.41630568 eV
  | Energy correction for multipole
  | error in Hartree potential    :           0.04196814 Ha           1.14201129 eV
  | Sum of eigenvalues per atom                           :        -377.31647145 eV
  | Total energy (T->0) per atom                          :        -677.09630953 eV  <-- do not rely on this value for anything but (periodic) metals
  | Electronic free energy per atom                       :        -677.09630953 eV

  Self-consistency convergence accuracy:
  | Change of charge density      :  0.6478E-01
  | Change of sum of eigenvalues  :  0.4571E+01 eV
  | Change of total energy        :  0.2596E-01 eV

  End self-consistency iteration #     4       :  max(cpu_time)    wall_clock(cpu1)
  | Time for this iteration                    :        1.168 s           1.170 s
  | Charge density update                      :        0.381 s           0.382 s
  | Density mixing                             :        0.009 s           0.009 s
  | Hartree multipole update                   :        0.009 s           0.009 s
  | Hartree multipole summation                :        0.281 s           0.281 s
  | Integration                                :        0.486 s           0.486 s
  | Solution of K.-S. eqns.                    :        0.002 s           0.003 s
  | Total energy evaluation                    :        0.000 s           0.000 s

  Partial memory accounting:
  | Current value for overall tracked memory usage on task 0  :           0.166 MB
  | Peak value for overall tracked memory usage on task 0     :           0.696 MB after allocating gradient_basis_wave
  | Largest tracked array allocation on task 0 so far         :           0.397 MB  when allocating gradient_basis_wave
  Note:  These values currently only include a subset of arrays which are explicitly tracked.
  The "true" memory usage will be greater.
------------------------------------------------------------

------------------------------------------------------------
          Begin self-consistency iteration #    5

  Date     :  20200710, Time     :  145738.854
------------------------------------------------------------
  Evaluating new KS density.
  Integration grid: deviation in total charge (<rho> - N_e) =  -2.842171E-14
  Pulay mixing of updated and previous charge densities.

  Evaluating partitioned Hartree potential by multipole expansion.
  | Analytical far-field extrapolation by fixed multipoles:
  | Hartree multipole sum: apparent total charge =  -0.387614E-03
  Summing up the Hartree potential.
  Time summed over all CPUs for potential: real work        0.280 s, elapsed        0.280 s
  | RMS charge density error from multipole expansion :   0.249989E-01

  Integrating Hamiltonian matrix: batch-based integration.
  Time summed over all CPUs for integration: real work        0.486 s, elapsed        0.486 s

  Updating Kohn-Sham eigenvalues and eigenvectors using ELSI and the ELPA eigensolver.
  Finished Cholesky decomposition
  | Time :     0.000 s
  Finished transformation to standard eigenproblem
  | Time :     0.000 s
  Starting LAPACK eigensolver
  Finished solving standard eigenproblem
  | Time :     0.002 s
  Finished back-transformation of eigenvectors
  | Time :     0.000 s

  Obtaining occupation numbers and chemical potential using ELSI.
  | Chemical potential (Fermi level):    -2.12485892eV
  Highest occupied state (VBM) at     -5.69277111 eV
  | Occupation number:      2.00000000

  Lowest unoccupied state (CBM) at    -1.55599801 eV
  | Occupation number:      0.00000000

  Overall HOMO-LUMO gap:      4.13677310 eV.

  Total energy components:
  | Sum of eigenvalues            :        -180.49107640 Ha       -4911.41207860 eV
  | XC energy correction          :         -42.63520099 Ha       -1160.16284744 eV
  | XC potential correction       :          54.81374265 Ha        1491.55782717 eV
  | Free-atom electrostatic energy:        -146.86728236 Ha       -3996.46209078 eV
  | Hartree energy correction     :          -8.29669929 Ha        -225.76467448 eV
  | vdW energy correction         :           0.00000000 Ha           0.00000000 eV
  | Entropy correction            :           0.00000000 Ha           0.00000000 eV
  | ---------------------------
  | Total energy                  :        -323.47651639 Ha       -8802.24386413 eV
  | Total energy, T -> 0          :        -323.47651639 Ha       -8802.24386413 eV  <-- do not rely on this value for anything but (periodic) metals
  | Electronic free energy        :        -323.47651639 Ha       -8802.24386413 eV

  Derived energy quantities:
  | Kinetic energy                :         322.66769071 Ha        8780.23459772 eV
  | Electrostatic energy          :        -603.50900611 Ha      -16422.31561441 eV
  | Energy correction for multipole
  | error in Hartree potential    :           0.04135242 Ha           1.12525670 eV
  | Sum of eigenvalues per atom                           :        -377.80092912 eV
  | Total energy (T->0) per atom                          :        -677.09568186 eV  <-- do not rely on this value for anything but (periodic) metals
  | Electronic free energy per atom                       :        -677.09568186 eV

  Self-consistency convergence accuracy:
  | Change of charge density      :  0.2053E-01
  | Change of sum of eigenvalues  : -0.6298E+01 eV
  | Change of total energy        :  0.8160E-02 eV

  End self-consistency iteration #     5       :  max(cpu_time)    wall_clock(cpu1)
  | Time for this iteration                    :        1.167 s           1.168 s
  | Charge density update                      :        0.380 s           0.380 s
  | Density mixing                             :        0.011 s           0.010 s
  | Hartree multipole update                   :        0.009 s           0.009 s
  | Hartree multipole summation                :        0.280 s           0.281 s
  | Integration                                :        0.486 s           0.486 s
  | Solution of K.-S. eqns.                    :        0.002 s           0.002 s
  | Total energy evaluation                    :        0.000 s           0.000 s

  Partial memory accounting:
  | Current value for overall tracked memory usage on task 0  :           0.166 MB
  | Peak value for overall tracked memory usage on task 0     :           0.696 MB after allocating gradient_basis_wave
  | Largest tracked array allocation on task 0 so far         :           0.397 MB  when allocating gradient_basis_wave
  Note:  These values currently only include a subset of arrays which are explicitly tracked.
  The "true" memory usage will be greater.
------------------------------------------------------------

------------------------------------------------------------
          Begin self-consistency iteration #    6

  Date     :  20200710, Time     :  145740.024
------------------------------------------------------------
  Evaluating new KS density.
  Integration grid: deviation in total charge (<rho> - N_e) =  -7.105427E-15
  Pulay mixing of updated and previous charge densities.

  Evaluating partitioned Hartree potential by multipole expansion.
  | Analytical far-field extrapolation by fixed multipoles:
  | Hartree multipole sum: apparent total charge =  -0.392591E-03
  Summing up the Hartree potential.
  Time summed over all CPUs for potential: real work        0.280 s, elapsed        0.280 s
  | RMS charge density error from multipole expansion :   0.254789E-01

  Integrating Hamiltonian matrix: batch-based integration.
  Time summed over all CPUs for integration: real work        0.493 s, elapsed        0.493 s

  Updating Kohn-Sham eigenvalues and eigenvectors using ELSI and the ELPA eigensolver.
  Finished Cholesky decomposition
  | Time :     0.000 s
  Finished transformation to standard eigenproblem
  | Time :     0.000 s
  Starting LAPACK eigensolver
  Finished solving standard eigenproblem
  | Time :     0.001 s
  Finished back-transformation of eigenvectors
  | Time :     0.000 s

  Obtaining occupation numbers and chemical potential using ELSI.
  | Chemical potential (Fermi level):    -2.11139304eV
  Highest occupied state (VBM) at     -5.64490813 eV
  | Occupation number:      2.00000000

  Lowest unoccupied state (CBM) at    -1.55130576 eV
  | Occupation number:      0.00000000

  Overall HOMO-LUMO gap:      4.09360237 eV.

  Total energy components:
  | Sum of eigenvalues            :        -180.45213320 Ha       -4910.35238031 eV
  | XC energy correction          :         -42.63871661 Ha       -1160.25851225 eV
  | XC potential correction       :          54.81828279 Ha        1491.68137070 eV
  | Free-atom electrostatic energy:        -146.86728236 Ha       -3996.46209078 eV
  | Hartree energy correction     :          -8.33662823 Ha        -226.85119610 eV
  | vdW energy correction         :           0.00000000 Ha           0.00000000 eV
  | Entropy correction            :           0.00000000 Ha           0.00000000 eV
  | ---------------------------
  | Total energy                  :        -323.47647760 Ha       -8802.24280874 eV
  | Total energy, T -> 0          :        -323.47647760 Ha       -8802.24280874 eV  <-- do not rely on this value for anything but (periodic) metals
  | Electronic free energy        :        -323.47647760 Ha       -8802.24280874 eV

  Derived energy quantities:
  | Kinetic energy                :         322.60745491 Ha        8778.59549825 eV
  | Electrostatic energy          :        -603.44521591 Ha      -16420.57979474 eV
  | Energy correction for multipole
  | error in Hartree potential    :           0.04187815 Ha           1.13956234 eV
  | Sum of eigenvalues per atom                           :        -377.71941387 eV
  | Total energy (T->0) per atom                          :        -677.09560067 eV  <-- do not rely on this value for anything but (periodic) metals
  | Electronic free energy per atom                       :        -677.09560067 eV

  Self-consistency convergence accuracy:
  | Change of charge density      :  0.1051E-01
  | Change of sum of eigenvalues  :  0.1060E+01 eV
  | Change of total energy        :  0.1055E-02 eV

  End self-consistency iteration #     6       :  max(cpu_time)    wall_clock(cpu1)
  | Time for this iteration                    :        1.176 s           1.177 s
  | Charge density update                      :        0.380 s           0.380 s
  | Density mixing                             :        0.012 s           0.012 s
  | Hartree multipole update                   :        0.009 s           0.009 s
  | Hartree multipole summation                :        0.280 s           0.281 s
  | Integration                                :        0.493 s           0.493 s
  | Solution of K.-S. eqns.                    :        0.002 s           0.002 s
  | Total energy evaluation                    :        0.000 s           0.000 s

  Partial memory accounting:
  | Current value for overall tracked memory usage on task 0  :           0.166 MB
  | Peak value for overall tracked memory usage on task 0     :           0.696 MB after allocating gradient_basis_wave
  | Largest tracked array allocation on task 0 so far         :           0.397 MB  when allocating gradient_basis_wave
  Note:  These values currently only include a subset of arrays which are explicitly tracked.
  The "true" memory usage will be greater.
------------------------------------------------------------

------------------------------------------------------------
          Begin self-consistency iteration #    7

  Date     :  20200710, Time     :  145741.202
------------------------------------------------------------
  Evaluating new KS density.
  Integration grid: deviation in total charge (<rho> - N_e) =   3.552714E-14
  Pulay mixing of updated and previous charge densities.

  Evaluating partitioned Hartree potential by multipole expansion.
  | Analytical far-field extrapolation by fixed multipoles:
  | Hartree multipole sum: apparent total charge =  -0.393159E-03
  Summing up the Hartree potential.
  Time summed over all CPUs for potential: real work        0.286 s, elapsed        0.286 s
  | RMS charge density error from multipole expansion :   0.255690E-01

  Integrating Hamiltonian matrix: batch-based integration.
  Time summed over all CPUs for integration: real work        0.486 s, elapsed        0.486 s

  Updating Kohn-Sham eigenvalues and eigenvectors using ELSI and the ELPA eigensolver.
  Finished Cholesky decomposition
  | Time :     0.000 s
  Finished transformation to standard eigenproblem
  | Time :     0.000 s
  Starting LAPACK eigensolver
  Finished solving standard eigenproblem
  | Time :     0.001 s
  Finished back-transformation of eigenvectors
  | Time :     0.000 s

[...]
  |   Hirshfeld dipole moment :      0.05924949
  |   Hirshfeld second moments:      0.00890155      -0.03172370      -0.02049850
  |                                 -0.03172370      -0.01756813       0.01065028
  |                                 -0.02049850       0.01065028      -0.01568033
  ----------------------------------------------------------------------
  | Atom    12: O
  |   Hirshfeld charge        :     -0.16539911
  |   Free atom volume        :     23.61338643
  |   Hirshfeld volume        :     21.04642227
  |   Hirshfeld dipole vector :      0.03667383       0.01265396       0.01607286
  |   Hirshfeld dipole moment :      0.04199321
  |   Hirshfeld second moments:      0.05127624      -0.02263069      -0.01901245
  |                                 -0.02263069       0.08147372       0.03479635
  |                                 -0.01901245       0.03479635       0.02700990
  ----------------------------------------------------------------------
  | Atom    13: H
  |   Hirshfeld charge        :      0.18480860
  |   Free atom volume        :      9.95071624
  |   Hirshfeld volume        :      6.02194916
  |   Hirshfeld dipole vector :      0.08766219      -0.08812945      -0.03940299
  |   Hirshfeld dipole moment :      0.13039960
  |   Hirshfeld second moments:      0.11914878       0.00194535      -0.00375405
  |                                  0.00194535       0.12611764       0.00475840
  |                                 -0.00375405       0.00475840       0.11059329
  ----------------------------------------------------------------------


  Total energy components:
  | Sum of eigenvalues            :        -180.45564759 Ha       -4910.44801189 eV
  | XC energy correction          :         -42.63501285 Ha       -1160.15772773 eV
  | XC potential correction       :          54.81357147 Ha        1491.55316912 eV
  | Free-atom electrostatic energy:        -146.86728236 Ha       -3996.46209078 eV
  | Hartree energy correction     :          -8.33208240 Ha        -226.72749777 eV
  | vdW energy correction         :          -0.00323407 Ha          -0.08800351 eV
  | Entropy correction            :           0.00000000 Ha           0.00000000 eV
  | ---------------------------
  | Total energy                  :        -323.47968780 Ha       -8802.33016255 eV
  | Total energy, T -> 0          :        -323.47968780 Ha       -8802.33016255 eV  <-- do not rely on this value for anything but (periodic) metals
  | Electronic free energy        :        -323.47968780 Ha       -8802.33016255 eV

  Derived energy quantities:
  | Kinetic energy                :         322.56994880 Ha        8777.57490505 eV
  | Electrostatic energy          :        -603.41138968 Ha      -16419.65933637 eV
  | Energy correction for multipole
  | error in Hartree potential    :           0.04191957 Ha           1.14068963 eV
  | Sum of eigenvalues per atom                           :        -377.72677015 eV
  | Total energy (T->0) per atom                          :        -677.10232020 eV  <-- do not rely on this value for anything but (periodic) metals
  | Electronic free energy per atom                       :        -677.10232020 eV

  atomic forces [eV/Ang]:
  -----------------------
  atom #    1
   Hellmann-Feynman              :  0.746323E+00  0.297918E+00  0.903427E+00
   Ionic forces                  :  0.000000E+00  0.000000E+00  0.000000E+00
   Multipole                     :  0.199574E+00  0.301128E+00 -0.335680E+00
   Pulay + GGA                   : -0.131144E+01 -0.157253E+00 -0.113322E+01
   Van der Waals                 :  0.259177E-02  0.788882E-02 -0.984036E-03
   ----------------------------------------------------------------
   Total forces(   1)            : -0.362948E+00  0.449683E+00 -0.566452E+00
  atom #    2
   Hellmann-Feynman              :  0.475862E+00 -0.294981E-01  0.421642E+00
   Ionic forces                  :  0.000000E+00  0.000000E+00  0.000000E+00
   Multipole                     :  0.144932E+00  0.369205E-01 -0.427975E-01
   Pulay + GGA                   : -0.116148E+00  0.285462E-01  0.144969E-01
   Van der Waals                 :  0.838206E-02 -0.688867E-02 -0.147225E-02
   ----------------------------------------------------------------
   Total forces(   2)            :  0.513028E+00  0.290800E-01  0.391869E+00
  atom #    3
   Hellmann-Feynman              : -0.121903E+02 -0.272889E+01  0.999550E+00
   Ionic forces                  :  0.000000E+00  0.000000E+00  0.000000E+00
   Multipole                     : -0.899765E-01  0.101828E+00 -0.852484E+00
   Pulay + GGA                   :  0.119818E+02  0.259297E+01  0.766947E+00
   Van der Waals                 :  0.349386E-02 -0.669695E-02 -0.756984E-02
   ----------------------------------------------------------------
   Total forces(   3)            : -0.295033E+00 -0.407915E-01  0.906443E+00
  atom #    4
   Hellmann-Feynman              :  0.282043E+00  0.339546E-01 -0.108530E+00
   Ionic forces                  :  0.000000E+00  0.000000E+00  0.000000E+00
   Multipole                     :  0.230064E-01  0.492204E-01 -0.984320E-01
   Pulay + GGA                   : -0.113037E+00 -0.182123E+00  0.688045E-01
   Van der Waals                 : -0.439547E-02 -0.550891E-02 -0.405801E-02
   ----------------------------------------------------------------
   Total forces(   4)            :  0.187617E+00 -0.104457E+00 -0.142216E+00
  atom #    5
   Hellmann-Feynman              :  0.157523E+00  0.331019E-01 -0.292282E+00
   Ionic forces                  :  0.000000E+00  0.000000E+00  0.000000E+00
   Multipole                     :  0.473099E-01 -0.234946E-01 -0.110848E+00
   Pulay + GGA                   : -0.189891E+00  0.107129E+00  0.938958E-01
   Van der Waals                 :  0.102744E-02  0.643281E-02 -0.687756E-02
   ----------------------------------------------------------------
   Total forces(   5)            :  0.159699E-01  0.123169E+00 -0.316112E+00
  atom #    6
   Hellmann-Feynman              : -0.311628E+00 -0.527705E+00  0.327108E+00
   Ionic forces                  :  0.000000E+00  0.000000E+00  0.000000E+00
   Multipole                     : -0.600876E-01  0.664880E+00  0.244549E+00
   Pulay + GGA                   :  0.477232E+00 -0.562511E+00 -0.566512E+00
   Van der Waals                 : -0.240860E-02  0.424810E-02 -0.232183E-02
   ----------------------------------------------------------------
   Total forces(   6)            :  0.103108E+00 -0.421087E+00  0.282246E-02
  atom #    7
   Hellmann-Feynman              : -0.207787E+00 -0.404262E-01 -0.514407E-01
   Ionic forces                  :  0.000000E+00  0.000000E+00  0.000000E+00
   Multipole                     : -0.121736E+00  0.473732E-01  0.320890E-01
   Pulay + GGA                   :  0.118062E+00 -0.158500E-01 -0.220810E-01
   Van der Waals                 : -0.116889E-02  0.248190E-02  0.310406E-02
   ----------------------------------------------------------------
   Total forces(   7)            : -0.212631E+00 -0.642105E-02 -0.383286E-01
  atom #    8
   Hellmann-Feynman              :  0.895390E-01 -0.515095E-01  0.108587E+00
   Ionic forces                  :  0.000000E+00  0.000000E+00  0.000000E+00
   Multipole                     :  0.150455E-01  0.666645E-01  0.127249E+00
   Pulay + GGA                   : -0.466485E-01 -0.422095E-01 -0.104247E+00
   Van der Waals                 : -0.250938E-02  0.116081E-01  0.104040E-02
   ----------------------------------------------------------------
   Total forces(   8)            :  0.554267E-01 -0.154464E-01  0.132629E+00
  atom #    9
   Hellmann-Feynman              :  0.118146E+00  0.881953E-01 -0.185762E+00
   Ionic forces                  :  0.000000E+00  0.000000E+00  0.000000E+00
   Multipole                     :  0.223853E-01  0.129229E+00 -0.169332E-02
   Pulay + GGA                   : -0.396142E-01 -0.676910E-01  0.756247E-01
   Van der Waals                 : -0.145643E-02  0.652658E-02  0.839670E-02
   ----------------------------------------------------------------
   Total forces(   9)            :  0.994609E-01  0.156260E+00 -0.103434E+00
  atom #   10
   Hellmann-Feynman              :  0.298011E+01  0.535898E+01  0.147162E+01
   Ionic forces                  :  0.000000E+00  0.000000E+00  0.000000E+00
   Multipole                     : -0.486157E-02 -0.156698E+00  0.374610E+00
   Pulay + GGA                   : -0.211217E+01 -0.261299E+01  0.314301E-01
   Van der Waals                 :  0.148417E-02 -0.111212E-01  0.252268E-02
   ----------------------------------------------------------------
   Total forces(  10)            :  0.864564E+00  0.257817E+01  0.188019E+01
  atom #   11
   Hellmann-Feynman              :  0.407618E+01 -0.219126E+01  0.137139E+02
   Ionic forces                  :  0.000000E+00  0.000000E+00  0.000000E+00
   Multipole                     :  0.387715E-01 -0.697040E+00  0.811736E+00
   Pulay + GGA                   : -0.310602E+01  0.361547E+01 -0.134520E+02
   Van der Waals                 : -0.290795E-02 -0.110909E-01  0.367281E-02
   ----------------------------------------------------------------
   Total forces(  11)            :  0.100602E+01  0.716075E+00  0.107723E+01
  atom #   12
   Hellmann-Feynman              : -0.143319E+02 -0.127333E+01 -0.689881E+01
   Ionic forces                  :  0.000000E+00  0.000000E+00  0.000000E+00
   Multipole                     : -0.104265E+01 -0.111772E+01 -0.333332E+00
   Pulay + GGA                   :  0.140133E+02  0.507033E-01  0.425989E+01
   Van der Waals                 : -0.214768E-02  0.375450E-02  0.809388E-02
   ----------------------------------------------------------------
   Total forces(  12)            : -0.136336E+01 -0.233659E+01 -0.296416E+01
  atom #   13
   Hellmann-Feynman              : -0.318886E+00 -0.133238E+01 -0.341842E+00
   Ionic forces                  :  0.000000E+00  0.000000E+00  0.000000E+00
   Multipole                     :  0.395996E-01 -0.393408E-01 -0.212148E-01
   Pulay + GGA                   : -0.329424E+00  0.241883E+00  0.101467E+00
   Van der Waals                 :  0.151009E-04 -0.163417E-02 -0.354699E-02
   ----------------------------------------------------------------
   Total forces(  13)            : -0.608695E+00 -0.113147E+01 -0.265137E+00

  Timings for VdW correction (Tkatchenko-Scheffler 2009 or later):
  | CPU time:        0.088 s, Wall clock time:        0.089 s.
  Removing unitary transformations (pure translations, rotations) from forces on atoms.
  Atomic forces before filtering:
  | Net force on center of mass :   0.252678E-02 -0.382806E-02 -0.465935E-02 eV/A
  | Net torque on center of mass:  -0.219628E-02  0.209417E-02  0.849420E-02 eV
  Atomic forces after filtering:
  | Net force on center of mass :   0.892031E-16  0.000000E+00  0.490617E-15 eV/A
  | Net torque on center of mass:  -0.165215E-14 -0.280275E-15 -0.132172E-14 eV

  Energy and forces in a compact form:
  | Total energy uncorrected      :         -0.880233016255396E+04 eV
  | Total energy corrected        :         -0.880233016255396E+04 eV  <-- do not rely on this value for anything but (periodic) metals
  | Electronic free energy        :         -0.880233016255396E+04 eV
  Total atomic forces (unitary forces cleaned) [eV/Ang]:
  |   1         -0.363103086013832E+00          0.449896834488985E+00         -0.566055216416311E+00
  |   2          0.512872621180666E+00          0.289981088772041E-01          0.392378239055369E+00
  |   3         -0.295042881988809E+00         -0.403706189617228E-01          0.906790421992006E+00
  |   4          0.187899839708750E+00         -0.104052115366430E+00         -0.141803531355562E+00
  |   5          0.158285580566726E-01          0.123472877170810E+00         -0.315746501845810E+00
  |   6          0.103219363231576E+00         -0.420778153127255E+00          0.323666153395127E-02
  |   7         -0.212514003282035E+00         -0.581705443944253E-02         -0.380254458417327E-01
  |   8          0.554353078124005E-01         -0.152914090199302E-01          0.133081111256168E+00
  |   9          0.998678721865701E-01          0.156498552011551E+00         -0.102933426982541E+00
  |  10          0.863982676370358E+00          0.257845263023496E+01          0.188047214559976E+01
  |  11          0.100524830604812E+01          0.716214291665849E+00          0.107753537071737E+01
  |  12         -0.136410250437226E+01         -0.233608576649313E+01         -0.296399703069792E+01
  |  13         -0.609592068938171E+00         -0.113113817704145E+01         -0.264932797014739E+00

  ------------------------------------ 
  Start decomposition of the XC Energy 
  ------------------------------------ 
  X and C from original XC functional choice 
  Hartree-Fock Energy :          0.000000000 Ha              0.000000000 eV
  X Energy            :        -41.035388584 Ha          -1116.629736867 eV
  C Energy            :         -1.599624262 Ha            -43.527990860 eV
  Total XC Energy     :        -42.635012846 Ha          -1160.157727727 eV
  ------------------------------------ 
  LDA X and C from self-consistent density 
  X Energy LDA        :        -37.252593895 Ha          -1013.694656101 eV
  C Energy LDA        :         -3.138280987 Ha            -85.396970605 eV
  ------------------------------------ 
  End decomposition of the XC Energy 
  ------------------------------------ 

------------------------------------------------------------

------------------------------------------------------------------------------
  Final output of selected total energy values:

  The following output summarizes some interesting total energy values
  at the end of a run (AFTER all relaxation, molecular dynamics, etc.).

  | Total energy of the DFT / Hartree-Fock s.c.f. calculation      :          -8802.330162554 eV
  | Final zero-broadening corrected energy (caution - metals only) :          -8802.330162554 eV
  | For reference only, the value of 1 Hartree used in FHI-aims is :             27.211384500 eV

  Before relying on these values, please be sure to understand exactly which
  total energy value is referred to by a given number. Different objects may
  all carry the same name 'total energy'. Definitions:

  Total energy of the DFT / Hartree-Fock s.c.f. calculation:
  | Note that this energy does not include ANY quantities calculated after the
  | s.c.f. cycle, in particular not ANY RPA, MP2, etc. many-body perturbation terms.

  Final zero-broadening corrected energy:
  | For metallic systems only, a broadening of the occupation numbers at the Fermi
  | level can be extrapolated back to zero broadening by an electron-gas inspired
  | formula. For all systems that are not real metals, this value can be
  | meaningless and should be avoided.

------------------------------------------------------------------------------
  Methods described in the following list of references were used in this FHI-aims run.
  If you publish the results, please make sure to cite these reference if they apply.
  FHI-aims is an academic code, and for our developers (often, Ph.D. students
  and postdocs), scientific credit in the community is essential.
  Thank you for helping us!

  For any use of FHI-aims, please cite:

    Volker Blum, Ralf Gehrke, Felix Hanke, Paula Havu, Ville Havu,
    Xinguo Ren, Karsten Reuter, and Matthias Scheffler
    'Ab initio molecular simulations with numeric atom-centered orbitals'
    Computer Physics Communications 180, 2175-2196 (2009)
    http://dx.doi.org/10.1016/j.cpc.2009.06.022


  The scalable eigensolver library ELPA was used in your run.
  ELPA is essential especially for large systems on hundreds or thousands of CPUs.
  For ELPA, please cite:

    Andreas Marek, Volker Blum, Rainer Johanni, Ville Havu, Bruno Lang,
    Thomas Auckenthaler, Alexander Heinecke, Hans-Joachim Bungartz, and Hermann Lederer,
    'The ELPA Library - Scalable Parallel Eigenvalue Solutions
    for Electronic Structure Theory and Computational Science'
    The Journal of Physics: Condensed Matter 26, 213201 (2014).
    http://dx.doi.org/10.1088/0953-8984/26/21/213201


  The ELSI infrastructure was used in your run to solve the Kohn-Sham electronic structure.
  Please check out http://elsi-interchange.org to learn more.
  If scalability is important for your project, please acknowledge ELSI by citing:

    V. W-z. Yu, F. Corsetti, A. Garcia, W. P. Huhn, M. Jacquelin, W. Jia,
    B. Lange, L. Lin, J. Lu, W. Mi, A. Seifitokaldani, A. Vazquez-Mayagoitia,
    C. Yang, H. Yang, and V. Blum
    'ELSI: A unified software interface for Kohn-Sham electronic structure solvers'
    Computer Physics Communications 222, 267-285 (2018).
    http://dx.doi.org/10.1016/j.cpc.2017.09.007


  For the real-space grid partitioning and parallelization used in this calculation, please cite:

    Ville Havu, Volker Blum, Paula Havu, and Matthias Scheffler,
    'Efficient O(N) integration for all-electron electronic structure calculation'
    'using numerically tabulated basis functions'
    Journal of Computational Physics 228, 8367-8379 (2009).
    http://dx.doi.org/10.1016/j.jcp.2009.08.008

  Of course, there are many other important community references, e.g., those cited in the
  above references. Our list is limited to references that describe implementations in the
  FHI-aims code. The reason is purely practical (length of this list) - please credit others as well.

------------------------------------------------------------
          Leaving FHI-aims.
          Date     :  20200710, Time     :  145755.298

          Computational steps:
          | Number of self-consistency cycles          :           16
          | Number of SCF (re)initializations          :            1

          Detailed time accounting                     :  max(cpu_time)    wall_clock(cpu1)
          | Total time                                 :       22.405 s          22.469 s
          | Preparation time                           :        0.144 s           0.145 s
          | Boundary condition initalization           :        0.000 s           0.000 s
          | Grid partitioning                          :        0.109 s           0.110 s
          | Preloading free-atom quantities on grid    :        0.002 s           0.002 s
          | Free-atom superposition energy             :        0.084 s           0.085 s
          | Total time for integrations                :        8.517 s           8.524 s
          | Total time for solution of K.-S. equations :        0.037 s           0.040 s
          | Total time for density & force components  :        7.036 s           7.058 s
          | Total time for mixing                      :        0.210 s           0.213 s
          | Total time for Hartree multipole update    :        0.140 s           0.143 s
          | Total time for Hartree multipole sum       :        5.726 s           5.741 s
          | Total time for total energy evaluation     :        0.003 s           0.003 s
          | Total time for vdW correction              :        0.088 s           0.089 s

          Partial memory accounting:
          | Residual value for overall tracked memory usage across tasks :           0.000 MB (should be 0.000 MB)
          | Peak values for overall tracked memory usage (after allocating hessian_basis_wave):
          |   Minimum:        1.622 MB (on task 1)
          |   Maximum:        1.622 MB (on task 1)
          |   Average:        1.622 MB
          | Largest tracked array allocation (hessian_basis_wave):
          |   Minimum:        0.794 MB (on task 1)
          |   Maximum:        0.794 MB (on task 1)
          |   Average:        0.794 MB
          Note:  These values currently only include a subset of arrays which are explicitly tracked.
          The "true" memory usage will be greater.

          Have a nice day.
------------------------------------------------------------
