  MPI-parallelism will be employed.
------------------------------------------------------------
          Invoking FHI-aims ...
          Version 171221_1
          Compiled on 2019/09/09 at 14:39:39 on host puhti-login2.bullx.

          When using FHI-aims, please cite the following reference:

          Volker Blum, Ralf Gehrke, Felix Hanke, Paula Havu,
          Ville Havu, Xinguo Ren, Karsten Reuter, and Matthias Scheffler,
          'Ab Initio Molecular Simulations with Numeric Atom-Centered Orbitals',
          Computer Physics Communications 180, 2175-2196 (2009)

          For any questions about FHI-aims, please visit the aimsclub website
          with its forums and wiki. Contributions to both the forums and the
          wiki are warmly encouraged - they are for you, and everyone is welcome there.

------------------------------------------------------------



  Date     :  20200805, Time     :  184315.226
  Time zero on CPU 1             :   0.109720000000000E-01  s.
  Internal wall clock time zero  :           365884995.226  s.

  FHI-aims created a unique identifier for this run for later identification
  aims_uuid : 52FB42C6-4794-4B24-AB4D-1F546C2AC700

  Using        1 parallel tasks.
  Task        0 on host r18c26.bullx reporting.

  Performing system and environment tests:
  | Environment variable OMP_NUM_THREADS correctly set to 1.
  | Stacksize not measured: no C compiler
  | Checking for scalapack...
  | Testing pdtran()...
  | All pdtran() tests passed.

  Obtaining array dimensions for all initial allocations:
  
  -----------------------------------------------------------------------
  Parsing control.in (first pass over file, find array dimensions only).
  The contents of control.in will be repeated verbatim below
  unless switched off by setting 'verbatim_writeout .false.' .
  in the first line of control.in .
  -----------------------------------------------------------------------
  
  #########################################################################################
  #
  #  Volker Blum, FHI 2009 : Test run input file control.in for simple H2O
  #
  #########################################################################################
  #
  #  Physical model
  #
    xc                 pbe
    vdw_correction_hirshfeld
    spin               none
    relativistic       none
    charge             0.
  #
  #  SCF convergence
  #
    occupation_type    gaussian 0.01
    mixer              pulay
      n_max_pulay        10
      charge_mix_param   0.2
    sc_accuracy_rho    1E-5
    sc_accuracy_eev    1E-3
    sc_accuracy_etot   1E-6
    sc_accuracy_forces 1E-4
    sc_iter_limit      100
  #
  #  Relaxation
  #
  #  relax_geometry   bfgs 1.e-3
  #
  ################################################################################
  #
  #  FHI-aims code project
  #  VB, Fritz-Haber Institut, 2009
  #
  #  Suggested "light" defaults for H atom (to be pasted into control.in file)
  #  Be sure to double-check any results obtained with these settings for post-processing,
  #  e.g., with the "tight" defaults and larger basis sets.
  #
  ################################################################################
    species        H
  #     global species definitions
      nucleus             1
      mass                1.00794
  #
      l_hartree           4
  #
      cut_pot             3.5  1.5  1.0
      basis_dep_cutoff    1e-4
  #
      radial_base         24 5.0
      radial_multiplier   1
      angular_grids       specified
        division   0.2421   50
        division   0.3822  110
        division   0.4799  194
        division   0.5341  302
  #      division   0.5626  434
  #      division   0.5922  590
  #      division   0.6542  770
  #      division   0.6868 1202
  #      outer_grid  770
        outer_grid  302
  ################################################################################
  #
  #  Definition of "minimal" basis
  #
  ################################################################################
  #     valence basis states
      valence      1  s   1.
  #     ion occupancy
      ion_occ      1  s   0.5
  ################################################################################
  #
  #  Suggested additional basis functions. For production calculations,
  #  uncomment them one after another (the most important basis functions are
  #  listed first).
  #
  #  Basis constructed for dimers: 0.5 A, 0.7 A, 1.0 A, 1.5 A, 2.5 A
  #
  ################################################################################
  #  "First tier" - improvements: -1014.90 meV to -62.69 meV
       hydro 2 s 2.1
       hydro 2 p 3.5
  #  "Second tier" - improvements: -12.89 meV to -1.83 meV
  #     hydro 1 s 0.85
  #     hydro 2 p 3.7
  #     hydro 2 s 1.2
  #     hydro 3 d 7
  #  "Third tier" - improvements: -0.25 meV to -0.12 meV
  #     hydro 4 f 11.2
  #     hydro 3 p 4.8
  #     hydro 4 d 9
  #     hydro 3 s 3.2
  ################################################################################
  #
  #  FHI-aims code project
  #  VB, Fritz-Haber Institut, 2009
  #
  #  Suggested "light" defaults for C atom (to be pasted into control.in file)
  #  Be sure to double-check any results obtained with these settings for post-processing,
  #  e.g., with the "tight" defaults and larger basis sets.
  #
  ################################################################################
    species        C
  #     global species definitions
      nucleus             6
      mass                12.0107
  #
      l_hartree           4
  #
      cut_pot             3.5  1.5  1.0
      basis_dep_cutoff    1e-4
  #
      radial_base         34 5.0
      radial_multiplier   1
      angular_grids specified
        division   0.3326   50
        division   0.5710  110
        division   0.7727  194
        division   0.8772  302
  #      division   0.9334  434
  #      division   0.9625  590
  #      division   0.9924  770
  #      division   1.0230  974
  #      division   1.4589 1202
  #     outer_grid  974
       outer_grid 302
  ################################################################################
  #
  #  Definition of "minimal" basis
  #
  ################################################################################
  #     valence basis states
      valence      2  s   2.
      valence      2  p   2.
  #     ion occupancy
      ion_occ      2  s   1.
      ion_occ      2  p   1.
  ################################################################################
  #
  #  Suggested additional basis functions. For production calculations,
  #  uncomment them one after another (the most important basis functions are
  #  listed first).
  #
  #  Constructed for dimers: 1.0 A, 1.25 A, 1.5 A, 2.0 A, 3.0 A
  #
  ################################################################################
  #  "First tier" - improvements: -1214.57 meV to -155.61 meV
       hydro 2 p 1.7
       hydro 3 d 6
       hydro 2 s 4.9
  #  "Second tier" - improvements: -67.75 meV to -5.23 meV
  #     hydro 4 f 9.8
  #     hydro 3 p 5.2
  #     hydro 3 s 4.3
  #     hydro 5 g 14.4
  #     hydro 3 d 6.2
  #  "Third tier" - improvements: -2.43 meV to -0.60 meV
  #     hydro 2 p 5.6
  #     hydro 2 s 1.4
  #     hydro 3 d 4.9
  #     hydro 4 f 11.2
  #  "Fourth tier" - improvements: -0.39 meV to -0.18 meV
  #     hydro 2 p 2.1
  #     hydro 5 g 16.4
  #     hydro 4 d 13.2
  #     hydro 3 s 13.6
  #     hydro 4 f 17.6
  #  Further basis functions - improvements: -0.08 meV and below
  #     hydro 3 s 2
  #     hydro 3 p 6
  #     hydro 4 d 20
  ################################################################################
  #
  #  FHI-aims code project
  #  VB, Fritz-Haber Institut, 2009
  #
  #  Suggested "light" defaults for N atom (to be pasted into control.in file)
  #  Be sure to double-check any results obtained with these settings for post-processing,
  #  e.g., with the "tight" defaults and larger basis sets.
  #
  ################################################################################
    species        N
  #     global species definitions
      nucleus             7
      mass                14.0067
  #
      l_hartree           4
  #
      cut_pot             3.5  1.5  1.0
      basis_dep_cutoff    1e-4
  #
      radial_base         35 5.0
      radial_multiplier   1
      angular_grids       specified
        division   0.2599   50
        division   0.4601  110
        division   0.5885  194
        division   0.6503  302
  #      division   0.6939  434
  #      division   0.7396  590
  #      division   0.7632  770
  #      division   0.8122  974
  #      division   1.1604 1202
  #      outer_grid  974
        outer_grid  302
  ################################################################################
  #
  #  Definition of "minimal" basis
  #
  ################################################################################
  #     valence basis states
      valence      2  s   2.
      valence      2  p   3.
  #     ion occupancy
      ion_occ      2  s   1.
      ion_occ      2  p   2.
  ################################################################################
  #
  #  Suggested additional basis functions. For production calculations,
  #  uncomment them one after another (the most important basis functions are
  #  listed first).
  #
  #  Constructed for dimers: 1.0 A, 1.1 A, 1.5 A, 2.0 A, 3.0 A
  #
  ################################################################################
  #  "First tier" - improvements: -1193.42 meV to -220.60 meV
       hydro 2 p 1.8
       hydro 3 d 6.8
       hydro 3 s 5.8
  #  "Second tier" - improvements: -80.21 meV to -6.86 meV
  #     hydro 4 f 10.8
  #     hydro 3 p 5.8
  #     hydro 1 s 0.8
  #     hydro 5 g 16
  #     hydro 3 d 4.9
  #  "Third tier" - improvements: -4.29 meV to -0.53 meV
  #     hydro 3 s 16
  #     ionic 2 p auto
  #     hydro 3 d 6.6
  #     hydro 4 f 11.6
  #  "Fourth tier" - improvements: -0.75 meV to -0.25 meV
  #     hydro 2 p 4.5
  #     hydro 2 s 2.4
  #     hydro 5 g 14.4
  #     hydro 4 d 14.4
  #     hydro 4 f 16.8
  # Further basis functions - -0.21 meV and below
  #     hydro 3 p 14.8
  #     hydro 3 s 4.4
  #     hydro 3 d 19.6
  #     hydro 5 g 12.8
  ################################################################################
  #
  #  FHI-aims code project
  #  VB, Fritz-Haber Institut, 2009
  #
  #  Suggested "light" defaults for O atom (to be pasted into control.in file)
  #  Be sure to double-check any results obtained with these settings for post-processing,
  #  e.g., with the "tight" defaults and larger basis sets.
  #
  ################################################################################
    species        O
  #     global species definitions
      nucleus             8
      mass                15.9994
  #
      l_hartree           4
  #
      cut_pot             3.5  1.5  1.0
      basis_dep_cutoff    1e-4
  #
      radial_base         36 5.0
      radial_multiplier   1
       angular_grids specified
        division   0.2659   50
        division   0.4451  110
        division   0.6052  194
        division   0.7543  302
  #      division   0.8014  434
  #      division   0.8507  590
  #      division   0.8762  770
  #      division   0.9023  974
  #      division   1.2339 1202
  #      outer_grid 974
        outer_grid 302
  ################################################################################
  #
  #  Definition of "minimal" basis
  #
  ################################################################################
  #     valence basis states
      valence      2  s   2.
      valence      2  p   4.
  #     ion occupancy
      ion_occ      2  s   1.
      ion_occ      2  p   3.
  ################################################################################
  #
  #  Suggested additional basis functions. For production calculations,
  #  uncomment them one after another (the most important basis functions are
  #  listed first).
  #
  #  Constructed for dimers: 1.0 A, 1.208 A, 1.5 A, 2.0 A, 3.0 A
  #
  ################################################################################
  #  "First tier" - improvements: -699.05 meV to -159.38 meV
       hydro 2 p 1.8
       hydro 3 d 7.6
       hydro 3 s 6.4
  #  "Second tier" - improvements: -49.91 meV to -5.39 meV
  #     hydro 4 f 11.6
  #     hydro 3 p 6.2
  #     hydro 3 d 5.6
  #     hydro 5 g 17.6
  #     hydro 1 s 0.75
  #  "Third tier" - improvements: -2.83 meV to -0.50 meV
  #     ionic 2 p auto
  #     hydro 4 f 10.8
  #     hydro 4 d 4.7
  #     hydro 2 s 6.8
  #  "Fourth tier" - improvements: -0.40 meV to -0.12 meV
  #     hydro 3 p 5
  #     hydro 3 s 3.3
  #     hydro 5 g 15.6
  #     hydro 4 f 17.6
  #     hydro 4 d 14
  # Further basis functions - -0.08 meV and below
  #     hydro 3 s 2.1
  #     hydro 4 d 11.6
  #     hydro 3 p 16
  #     hydro 2 s 17.2
  
  -----------------------------------------------------------------------
  Completed first pass over input file control.in .
  -----------------------------------------------------------------------
  
  
  -----------------------------------------------------------------------
  Parsing geometry.in (first pass over file, find array dimensions only).
  The contents of geometry.in will be repeated verbatim below
  unless switched off by setting 'verbatim_writeout .false.' .
  in the first line of geometry.in .
  -----------------------------------------------------------------------
  
  atom  0.00000 0.00000 0.00000 C
  atom  1.09300 0.00000 0.00000 H
  atom  -0.47961 0.00000 -1.41207 N
  atom  -0.43231 -0.95337 -1.77357 H
  atom  -1.44019 0.33621 -1.43101 H
  atom  -0.49584 1.26211 0.72868 C
  atom  -1.58789 1.28919 0.74431 H
  atom  -0.13407 1.27425 1.75947 H
  atom  -0.13407 2.16087 0.22380 H
  atom  -0.39425 -1.28861 0.74398 C
  atom  -0.10189 -1.56493 1.88303 O
  atom  -1.10210 -2.13717 0.06896 O
  atom  -1.31781 -2.74934 0.79263 H
  
  -----------------------------------------------------------------------
  Completed first pass over input file geometry.in .
  -----------------------------------------------------------------------
  

  Basic array size parameters:
  | Number of species                 :        4
  | Number of atoms                   :       13
  | Max. basis fn. angular momentum   :        2
  | Max. atomic/ionic basis occupied n:        2
  | Max. number of basis fn. types    :        2
  | Max. radial fns per species/type  :        3
  | Max. logarithmic grid size        :     1301
  | Max. radial integration grid size :       36
  | Max. angular integration grid size:      302
  | Max. angular grid division number :        8
  | Radial grid for Hartree potential :     1301
  | Number of spin channels           :        1

------------------------------------------------------------
          Reading file control.in.
------------------------------------------------------------
  XC: Using PBE gradient-corrected functionals.
  Spin treatment: No spin polarisation.
  Non-relativistic treatment of kinetic energy.
  Charge =   0.000000E+00: Neutral system requested explicitly.
  Occupation type: Gaussian broadening, width =   0.100000E-01 eV.
  Using pulay charge density mixing.
  Pulay mixing - number of memorized iterations:   10
  Charge density mixing - mixing parameter:     0.2000
  Convergence accuracy of self-consistent charge density:  0.1000E-04
  Convergence accuracy of sum of eigenvalues:  0.1000E-02
  Convergence accuracy of total energy:  0.1000E-05
  Convergence accuracy of forces:  0.1000E-03
  Maximum number of s.-c. iterations  :   100
 
  Reading configuration options for species H                   .
  | Found nuclear charge :   1.0000
  | Found atomic mass :    1.00794000000000      amu
  | Found l_max for Hartree potential  :   4
  | Found cutoff potl. onset [A], width [A], scale factor :    3.50000    1.50000    1.00000
  | Threshold for basis-dependent cutoff potential is   0.100000E-03
  | Found data for basic radial integration grid :    24 points, outermost radius =    5.000 A
  | Found multiplier for basic radial grid :   1
  | Found angular grid specification: user-specified.
  | Specified grid contains     5 separate shells.
  | Check grid settings after all constraints further below.
  | Found free-atom valence shell :  1 s   1.000
  | No ionic wave fns used. Skipping ion_occ.
  | Found hydrogenic basis function :  2 s   2.100
  | Found hydrogenic basis function :  2 p   3.500
  Species H                   : Missing cutoff potential type.
  Defaulting to exp(1/x)/(1-x)^2 type cutoff potential.
  Species H : No 'logarithmic' tag. Using default grid for free atom:
  | Default logarithmic grid data [bohr] : 0.1000E-03 0.1000E+03 0.1012E+01
  Species H : On-site basis accuracy parameter (for Gram-Schmidt orthonormalisation) not specified.
  Using default value basis_acc =  0.1000000E-03.
  Species H                   : Using default innermost maximum threshold i_radial=  2 for radial functions.
  Species H                   : Default cutoff onset for free atom density etc. : 0.35000000E+01 AA.
  Species H                   : Basic radial grid will be enhanced according to radial_multiplier =   1, to contain    24 grid points.
 
  Reading configuration options for species C                   .
  | Found nuclear charge :   6.0000
  | Found atomic mass :    12.0107000000000      amu
  | Found l_max for Hartree potential  :   4
  | Found cutoff potl. onset [A], width [A], scale factor :    3.50000    1.50000    1.00000
  | Threshold for basis-dependent cutoff potential is   0.100000E-03
  | Found data for basic radial integration grid :    34 points, outermost radius =    5.000 A
  | Found multiplier for basic radial grid :   1
  | Found angular grid specification: user-specified.
  | Specified grid contains     5 separate shells.
  | Check grid settings after all constraints further below.
  | Found free-atom valence shell :  2 s   2.000
  | Found free-atom valence shell :  2 p   2.000
  | No ionic wave fns used. Skipping ion_occ.
  | No ionic wave fns used. Skipping ion_occ.
  | Found hydrogenic basis function :  2 p   1.700
  | Found hydrogenic basis function :  3 d   6.000
  | Found hydrogenic basis function :  2 s   4.900
  Species C                   : Missing cutoff potential type.
  Defaulting to exp(1/x)/(1-x)^2 type cutoff potential.
  Species C : No 'logarithmic' tag. Using default grid for free atom:
  | Default logarithmic grid data [bohr] : 0.1000E-03 0.1000E+03 0.1012E+01
  Species C : On-site basis accuracy parameter (for Gram-Schmidt orthonormalisation) not specified.
  Using default value basis_acc =  0.1000000E-03.
  Species C                   : Using default innermost maximum threshold i_radial=  2 for radial functions.
  Species C                   : Default cutoff onset for free atom density etc. : 0.35000000E+01 AA.
  Species C                   : Basic radial grid will be enhanced according to radial_multiplier =   1, to contain    34 grid points.
 
  Reading configuration options for species N                   .
  | Found nuclear charge :   7.0000
  | Found atomic mass :    14.0067000000000      amu
  | Found l_max for Hartree potential  :   4
  | Found cutoff potl. onset [A], width [A], scale factor :    3.50000    1.50000    1.00000
  | Threshold for basis-dependent cutoff potential is   0.100000E-03
  | Found data for basic radial integration grid :    35 points, outermost radius =    5.000 A
  | Found multiplier for basic radial grid :   1
  | Found angular grid specification: user-specified.
  | Specified grid contains     5 separate shells.
  | Check grid settings after all constraints further below.
  | Found free-atom valence shell :  2 s   2.000
  | Found free-atom valence shell :  2 p   3.000
  | No ionic wave fns used. Skipping ion_occ.
  | No ionic wave fns used. Skipping ion_occ.
  | Found hydrogenic basis function :  2 p   1.800
  | Found hydrogenic basis function :  3 d   6.800
  | Found hydrogenic basis function :  3 s   5.800
  Species N                   : Missing cutoff potential type.
  Defaulting to exp(1/x)/(1-x)^2 type cutoff potential.
  Species N : No 'logarithmic' tag. Using default grid for free atom:
  | Default logarithmic grid data [bohr] : 0.1000E-03 0.1000E+03 0.1012E+01
  Species N : On-site basis accuracy parameter (for Gram-Schmidt orthonormalisation) not specified.
  Using default value basis_acc =  0.1000000E-03.
  Species N                   : Using default innermost maximum threshold i_radial=  2 for radial functions.
  Species N                   : Default cutoff onset for free atom density etc. : 0.35000000E+01 AA.
  Species N                   : Basic radial grid will be enhanced according to radial_multiplier =   1, to contain    35 grid points.
 
  Reading configuration options for species O                   .
  | Found nuclear charge :   8.0000
  | Found atomic mass :    15.9994000000000      amu
  | Found l_max for Hartree potential  :   4
  | Found cutoff potl. onset [A], width [A], scale factor :    3.50000    1.50000    1.00000
  | Threshold for basis-dependent cutoff potential is   0.100000E-03
  | Found data for basic radial integration grid :    36 points, outermost radius =    5.000 A
  | Found multiplier for basic radial grid :   1
  | Found angular grid specification: user-specified.
  | Specified grid contains     5 separate shells.
  | Check grid settings after all constraints further below.
  | Found free-atom valence shell :  2 s   2.000
  | Found free-atom valence shell :  2 p   4.000
  | No ionic wave fns used. Skipping ion_occ.
  | No ionic wave fns used. Skipping ion_occ.
  | Found hydrogenic basis function :  2 p   1.800
  | Found hydrogenic basis function :  3 d   7.600
  | Found hydrogenic basis function :  3 s   6.400
  Species O                   : Missing cutoff potential type.
  Defaulting to exp(1/x)/(1-x)^2 type cutoff potential.
  Species O : No 'logarithmic' tag. Using default grid for free atom:
  | Default logarithmic grid data [bohr] : 0.1000E-03 0.1000E+03 0.1012E+01
  Species O : On-site basis accuracy parameter (for Gram-Schmidt orthonormalisation) not specified.
  Using default value basis_acc =  0.1000000E-03.
  Species O                   : Using default innermost maximum threshold i_radial=  2 for radial functions.
  Species O                   : Default cutoff onset for free atom density etc. : 0.35000000E+01 AA.
  Species O                   : Basic radial grid will be enhanced according to radial_multiplier =   1, to contain    36 grid points.
 
  Finished reading input file 'control.in'. Consistency checks are next.
 
  MPI_IN_PLACE appears to work with this MPI implementation.
  | Keeping use_mpi_in_place .true. (see manual).
  Target number of points in a grid batch is not set. Defaulting to  100
  Method for grid partitioning is not set. Defaulting to parallel hash+maxmin partitioning.
  Batch size limit is not set. Defaulting to    200
  By default, will store active basis functions for each batch.
  If in need of memory, prune_basis_once .false. can be used to disable this option.
  communication_type for Hartree potential was not specified.
  Defaulting to calc_hartree .
  Pulay mixer: Number of initial linear mixing iterations not set.
  Defaulting to    0 iterations.
  Work space size for distributed Hartree potential not set.
  Defaulting to   0.200000E+03 MB.
  Algorithm-dependent basis array size parameters:
  | n_max_pulay                         :       10
  Presetting      1001 iterations before the initial mixing cycle
  is restarted anyway using the sc_init_iter criterion / keyword.
  Presetting a factor      1.000 between actual scf density residual
  and density convergence criterion sc_accuracy_rho below which sc_init_iter
  takes no effect.
  Geometry relaxation not requested: no relaxation will be performed.
  Handling of forces: Unphysical translation and rotation will be removed from forces.
  No accuracy limit for integral partition fn. given. Defaulting to  0.1000E-14.
  No threshold value for u(r) in integrations given. Defaulting to  0.1000E-05.
  No accuracy for occupation numbers given. Defaulting to  0.1000E-12.
  No threshold value for occupation numbers given. Defaulting to  0.0000E+00.
  No accuracy for fermi level given. Defaulting to  0.1000E-19.
  Maximum # of iterations to find E_F not set. Defaulting to  200.
  Preferred method for the eigenvalue solver ('KS_method') not specified in 'control.in'.
  Defaulting to serial version, 'lapack_fast'.
  Will not use alltoall communication since running on < 1024 CPUs.
  Threshold for basis singularities not set.
  Default threshold for basis singularities:  0.1000E-04
  partition_type (choice of integration weights) for integrals was not specified.
  | Using a version of the partition function of Stratmann and coworkers ('stratmann_smoother').
  | At each grid point, the set of atoms used to build the partition table is smoothly restricted to
  | only those atoms whose free-atom density would be non-zero at that grid point.
  Partitioning for Hartree potential was not defined. Using partition_type for integrals.
  | Adjusted default value of keyword multip_moments_threshold to:       0.10000000E-11
  | This value may affect high angular momentum components of the Hartree potential in periodic systems.
  No q(lm)/r^(l+1) cutoff set for long-range Hartree potential.
  | Using default value of  0.100000E-09 .
  | Verify using the multipole_threshold keyword.
  Defaulting to new monopole extrapolation.
  Density update method: automatic selection selected.
------------------------------------------------------------


------------------------------------------------------------
          Reading geometry description geometry.in.
------------------------------------------------------------
  Input structure read successfully.
  The structure contains       13 atoms,  and a total of         48.000 electrons.

  Input geometry:
  | No unit cell requested.
  | Atomic structure:
  |       Atom                x [A]            y [A]            z [A]
  |    1: Species C             0.00000000        0.00000000        0.00000000
  |    2: Species H             1.09300000        0.00000000        0.00000000
  |    3: Species N            -0.47961000        0.00000000       -1.41207000
  |    4: Species H            -0.43231000       -0.95337000       -1.77357000
  |    5: Species H            -1.44019000        0.33621000       -1.43101000
  |    6: Species C            -0.49584000        1.26211000        0.72868000
  |    7: Species H            -1.58789000        1.28919000        0.74431000
  |    8: Species H            -0.13407000        1.27425000        1.75947000
  |    9: Species H            -0.13407000        2.16087000        0.22380000
  |   10: Species C            -0.39425000       -1.28861000        0.74398000
  |   11: Species O            -0.10189000       -1.56493000        1.88303000
  |   12: Species O            -1.10210000       -2.13717000        0.06896000
  |   13: Species H            -1.31781000       -2.74934000        0.79263000
  |

  | The smallest distance between any two atoms is         0.97210143 AA.
  |
  | The first atom of this pair is atom number                     12 .
  | The second atom of this pair is atom number                    13 .

  Number of empty states per atom not set in control.in - providing a guess from actual geometry.
  | Total number of empty states used during s.c.f. cycle:       29
  If you use a very high smearing, use empty_states (per atom!) in control.in to increase this value.

  Structure-dependent array size parameters: 
  | Maximum number of distinct radial functions  :       21
  | Maximum number of basis functions            :      119
  | Number of Kohn-Sham states (occupied + empty):       53
------------------------------------------------------------

------------------------------------------------------------
          Preparing all fixed parts of the calculation.
------------------------------------------------------------
  Determining machine precision:
    2.225073858507201E-308
  Setting up grids for atomic and cluster calculations.

  Creating wave function, potential, and density for free atoms.

  Species: H

  List of occupied orbitals and eigenvalues:
    n    l              occ      energy [Ha]    energy [eV]
    1    0           1.0000        -0.237589        -6.4651


  Species: C

  List of occupied orbitals and eigenvalues:
    n    l              occ      energy [Ha]    energy [eV]
    1    0           2.0000       -10.038835      -273.1706
    2    0           2.0000        -0.502696       -13.6791
    2    1           2.0000        -0.191971        -5.2238


  Species: N

  List of occupied orbitals and eigenvalues:
    n    l              occ      energy [Ha]    energy [eV]
    1    0           2.0000       -14.128000      -384.4424
    2    0           2.0000        -0.681077       -18.5330
    2    1           3.0000        -0.259788        -7.0692


  Species: O

  List of occupied orbitals and eigenvalues:
    n    l              occ      energy [Ha]    energy [eV]
    1    0           2.0000       -18.898188      -514.2459
    2    0           2.0000        -0.878505       -23.9053
    2    1           4.0000        -0.331779        -9.0282

  Creating fixed part of basis set: Ionic, confined, hydrogenic.
 
  H                    hydrogenic:
 
  List of hydrogenic basis orbitals: 
    n    l      effective z      eigenvalue [eV]  inner max. [A]     outer max. [A]     outer radius [A]   
    2    0         2.100000       -14.9728           0.193243           1.317208           4.583499
    2    1         3.500000       -41.6669           0.602369           0.602369           3.723403
 
 
  C                    hydrogenic:
 
  List of hydrogenic basis orbitals: 
    n    l      effective z      eigenvalue [eV]  inner max. [A]     outer max. [A]     outer radius [A]   
    2    1         1.700000        -9.7616           1.230570           1.230570           4.607917
    3    2         6.000000       -54.4224           0.792453           0.792453           3.883070
    2    0         4.900000       -81.6679           0.082559           0.562749           3.078220
 
 
  N                    hydrogenic:
 
  List of hydrogenic basis orbitals: 
    n    l      effective z      eigenvalue [eV]  inner max. [A]     outer max. [A]     outer radius [A]   
    2    1         1.800000       -10.9749           1.177451           1.177451           4.573712
    3    2         6.800000       -69.9026           0.704619           0.704619           3.538137
    3    0         5.800000       -50.8545           0.067388           1.191934           4.250239
 
 
  O                    hydrogenic:
 
  List of hydrogenic basis orbitals: 
    n    l      effective z      eigenvalue [eV]  inner max. [A]     outer max. [A]     outer radius [A]   
    2    1         1.800000       -10.9749           1.164242           1.164242           4.578029
    3    2         7.600000       -87.3180           0.624125           0.624125           3.251020
    3    0         6.400000       -61.9207           0.061167           1.081902           4.001998
 

  Adding cutoff potential to free-atom effective potential.
  Creating atomic-like basis functions for current effective potential.

  Species H                   :

  List of atomic basis orbitals and eigenvalues:
    n    l      energy [Ha]    energy [eV]    outer radius [A]
    1    0        -0.237589        -6.4651       4.527807


  Species C                   :

  List of atomic basis orbitals and eigenvalues:
    n    l      energy [Ha]    energy [eV]    outer radius [A]
    1    0       -10.038835      -273.1706       1.934409
    2    0        -0.502696       -13.6791       4.496620
    2    1        -0.191971        -5.2238       4.551928


  Species N                   :

  List of atomic basis orbitals and eigenvalues:
    n    l      energy [Ha]    energy [eV]    outer radius [A]
    1    0       -14.128000      -384.4424       1.637919
    2    0        -0.681077       -18.5330       4.463241
    2    1        -0.259788        -7.0692       4.518138


  Species O                   :

  List of atomic basis orbitals and eigenvalues:
    n    l      energy [Ha]    energy [eV]    outer radius [A]
    1    0       -18.898188      -514.2459       1.415765
    2    0        -0.878505       -23.9053       4.413171
    2    1        -0.331779        -9.0282       4.522403

  Assembling full basis from fixed parts.
  | Species H :   atomic orbital   1 s accepted.
  | Species H :    hydro orbital   2 s accepted.
  | Species H :    hydro orbital   2 p accepted.
  | Species C :   atomic orbital   1 s accepted.
  | Species C :    hydro orbital   2 s accepted.
  | Species C :   atomic orbital   2 s accepted.
  | Species C :   atomic orbital   2 p accepted.
  | Species C :    hydro orbital   2 p accepted.
  | Species C :    hydro orbital   3 d accepted.
  | Species N :   atomic orbital   1 s accepted.
  | Species N :    hydro orbital   3 s accepted.
  | Species N :   atomic orbital   2 s accepted.
  | Species N :   atomic orbital   2 p accepted.
  | Species N :    hydro orbital   2 p accepted.
  | Species N :    hydro orbital   3 d accepted.
  | Species O :   atomic orbital   1 s accepted.
  | Species O :    hydro orbital   3 s accepted.
  | Species O :   atomic orbital   2 s accepted.
  | Species O :   atomic orbital   2 p accepted.
  | Species O :    hydro orbital   2 p accepted.
  | Species O :    hydro orbital   3 d accepted.
 
  Basis size parameters after reduction:
  | Total number of radial functions:       21
  | Total number of basis functions :      119
 
  Per-task memory consumption for arrays in subroutine allocate_ext:
  |           5.250512MB.
  Testing on-site integration grid accuracy.
  |  Species  Function  <phi|h_atom|phi> (log., in eV)  <phi|h_atom|phi> (rad., in eV)
           1        1                 -6.4663192853                 -6.4651273558
           1        2                 13.7111246313                 13.7170609718
           1        3                 25.2673269279                 25.2674696378
           2        4               -273.1705927641               -273.1705631568
           2        5                -10.7109323383                -10.7107120029
           2        6                 17.4381822266                 17.4352413244
           2        7                 -5.2255326521                 -5.2270484734
           2        8                  8.6835629259                  8.6603288385
           2        9                 27.4952418996                 27.4953360207
           3       10               -384.4424306495               -384.4423701208
           3       11                 12.5842251816                 12.5842222903
           3       12                -15.7264628251                -15.7264433455
           3       13                 -7.0696854293                 -7.0701769954
           3       14                  8.8090390882                  8.7901077751
           3       15                 35.9586762123                 35.9588528632
           4       16               -514.2458688638               -514.2457643834
           4       17                 15.1795651126                 15.1795290741
           4       18                -21.5359799773                -21.5360846186
           4       19                 -9.0283069236                 -9.0284644067
           4       20                  8.3027758564                  8.2834874195
           4       21                 45.8339351984                 45.8338762259

  Preparing densities etc. for the partition functions (integrals / Hartree potential).

  Preparations completed.
  max(cpu_time)          :      0.145 s.
  Wall clock time (cpu1) :      0.146 s.
------------------------------------------------------------

------------------------------------------------------------
          Begin self-consistency loop: Initialization.

          Date     :  20200805, Time     :  184315.385
------------------------------------------------------------

  Initializing index lists of integration centers etc. from given atomic structure:
  | Number of centers in hartree potential         :        13
  | Number of centers in hartree multipole         :        13
  | Number of centers in electron density summation:        13
  | Number of centers in basis integrals           :        13
  | Number of centers in integrals                 :        13
  | Number of centers in hamiltonian               :        13
  Partitioning the integration grid into batches with parallel hashing+maxmin method.
  | Number of batches:      959
  | Maximal batch size:     138
  | Minimal batch size:      66
  | Average batch size:      72.624
  | Standard deviation of batch sizes:      17.073

  Integration load balanced across     1 MPI tasks.
  Work distribution over tasks is as follows:
  Task     0 has      69646 integration points.
  Initializing partition tables, free-atom densities, potentials, etc. across the integration grid (initialize_grid_storage).
  | initialize_grid_storage: Actual outermost partition radius vs. multipole_radius_free
  | (-- VB: in principle, multipole_radius_free should be larger, hence this output)
  | Species        1: Confinement radius =              4.999999999999999 AA, multipole_radius_free =              5.054417573612229 AA.
  | Species        1: outer_partition_radius set to              5.054417573612229 AA .
  | Species        2: Confinement radius =              4.999999999999999 AA, multipole_radius_free =              5.019602836301480 AA.
  | Species        2: outer_partition_radius set to              5.019602836301480 AA .
  | Species        3: Confinement radius =              4.999999999999999 AA, multipole_radius_free =              5.043624274424571 AA.
  | Species        3: outer_partition_radius set to              5.043624274424571 AA .
  | Species        4: Confinement radius =              4.999999999999999 AA, multipole_radius_free =              5.048384829883283 AA.
  | Species        4: outer_partition_radius set to              5.048384829883283 AA .
  | Original list of interatomic distances with          13 x         13 entries is created.
  | Net number of integration points:    69646
  | of which are non-zero points    :    59545
  Renormalizing the initial density to the exact electron count on the 3D integration grid.
  | Initial density: Formal number of electrons (from input files) :      48.0000000000
  | Integrated number of electrons on 3D grid     :      48.0000015122
  | Charge integration error                      :       0.0000015122
  | Normalization factor for density and gradient :       0.9999999685
  Obtaining max. number of non-zero basis functions in each batch (get_n_compute_maxes).
  | Maximal number of non-zero basis functions:      119 in task     0
  Selecting the method for density update.
  Loop over occupied states selected for charge density update.
  Allocating        0.050 MB for KS_eigenvector
  Integrating Hamiltonian matrix: batch-based integration.
  Time summed over all CPUs for integration: real work        0.494 s, elapsed        0.494 s
  Integrating overlap matrix.
  Time summed over all CPUs for integration: real work        0.213 s, elapsed        0.213 s

  Updating Kohn-Sham eigenvalues and eigenvectors using ELSI and the ELPA eigensolver.
  Overlap matrix is nonsingular
  | Lowest eigenvalue of overlap  :  0.57E-02
  | Highest eigenvalue of overlap :  0.61E+01
  Finished singularity check of overlap matrix
  | Time :     0.001 s
  Finished Cholesky decomposition
  | Time :     0.000 s
  Finished transformation to standard eigenproblem
  | Time :     0.000 s
  Starting LAPACK eigensolver
  Finished solving standard eigenproblem
  | Time :     0.002 s
  Finished back-transformation of eigenvectors
  | Time :     0.000 s

  Obtaining occupation numbers and chemical potential using ELSI.
  | Chemical potential (Fermi level):    -8.43372782eV
  Writing Kohn-Sham eigenvalues.

  State    Occupation    Eigenvalue [Ha]    Eigenvalue [eV]
      1       2.00000         -19.007999         -517.23397
      2       2.00000         -18.978345         -516.42704
      3       2.00000         -14.245788         -387.64761
      4       2.00000         -10.166761         -276.65164
      5       2.00000         -10.141235         -275.95704
      6       2.00000         -10.132098         -275.70840
      7       2.00000          -1.188659          -32.34506
      8       2.00000          -1.093262          -29.74918
      9       2.00000          -0.991738          -26.98657
     10       2.00000          -0.860408          -23.41289
     11       2.00000          -0.761329          -20.71682
     12       2.00000          -0.681919          -18.55597
     13       2.00000          -0.620056          -16.87259
     14       2.00000          -0.606743          -16.51032
     15       2.00000          -0.595160          -16.19512
     16       2.00000          -0.564922          -15.37232
     17       2.00000          -0.545216          -14.83609
     18       2.00000          -0.525363          -14.29585
     19       2.00000          -0.512332          -13.94127
     20       2.00000          -0.500627          -13.62275
     21       2.00000          -0.480639          -13.07885
     22       2.00000          -0.428382          -11.65688
     23       2.00000          -0.422838          -11.50599
     24       2.00000          -0.377619          -10.27554
     25       0.00000          -0.148898           -4.05173
     26       0.00000          -0.057641           -1.56849
     27       0.00000          -0.027393           -0.74541
     28       0.00000          -0.015950           -0.43401
     29       0.00000          -0.003199           -0.08706
     30       0.00000           0.008437            0.22957
     31       0.00000           0.017292            0.47053
     32       0.00000           0.030760            0.83702
     33       0.00000           0.042465            1.15552
     34       0.00000           0.060817            1.65491
     35       0.00000           0.094068            2.55972
     36       0.00000           0.133352            3.62870
     37       0.00000           0.149186            4.05955
     38       0.00000           0.200710            5.46158
     39       0.00000           0.205537            5.59295
     40       0.00000           0.239726            6.52328
     41       0.00000           0.251706            6.84926
     42       0.00000           0.273010            7.42897
     43       0.00000           0.284658            7.74595
     44       0.00000           0.310804            8.45740
     45       0.00000           0.333628            9.07848
     46       0.00000           0.365142            9.93601
     47       0.00000           0.368351           10.02335
     48       0.00000           0.397226           10.80906
     49       0.00000           0.438974           11.94508
     50       0.00000           0.470448           12.80154
     51       0.00000           0.481609           13.10526
     52       0.00000           0.526514           14.32718
     53       0.00000           0.609643           16.58923

  Highest occupied state (VBM) at    -10.27553730 eV
  | Occupation number:      2.00000000

  Lowest unoccupied state (CBM) at    -4.05172607 eV
  | Occupation number:      0.00000000

  Overall HOMO-LUMO gap:      6.22381123 eV.
  Calculating total energy contributions from superposition of free atom densities.

  Total energy components:
  | Sum of eigenvalues            :        -188.85887808 Ha       -5139.11154756 eV
  | XC energy correction          :         -41.79030662 Ha       -1137.17210174 eV
  | XC potential correction       :          53.72221742 Ha        1461.85591430 eV
  | Free-atom electrostatic energy:        -146.84644301 Ha       -3995.89502323 eV
  | Hartree energy correction     :           0.00000000 Ha           0.00000000 eV
  | vdW energy correction         :           0.00000000 Ha           0.00000000 eV
  | Entropy correction            :           0.00000000 Ha           0.00000000 eV
  | ---------------------------
  | Total energy                  :        -323.77341029 Ha       -8810.32275822 eV
  | Total energy, T -> 0          :        -323.77341029 Ha       -8810.32275822 eV  <-- do not rely on this value for anything but (periodic) metals
  | Electronic free energy        :        -323.77341029 Ha       -8810.32275822 eV

  Derived energy quantities:
  | Kinetic energy                :         320.48728145 Ha        8720.90264303 eV
  | Electrostatic energy          :        -602.47038513 Ha      -16394.05329952 eV
  | Energy correction for multipole
  | error in Hartree potential    :           0.00000000 Ha           0.00000000 eV
  | Sum of eigenvalues per atom                           :        -395.31627289 eV
  | Total energy (T->0) per atom                          :        -677.71713525 eV  <-- do not rely on this value for anything but (periodic) metals
  | Electronic free energy per atom                       :        -677.71713525 eV
  Initialize hartree_potential_storage
  Max. number of atoms included in rho_multipole:           13

  End scf initialization - timings             :  max(cpu_time)    wall_clock(cpu1)
  | Time for scf. initialization               :        1.151 s           1.152 s
  | Boundary condition initialization          :        0.000 s           0.000 s
  | Integration                                :        0.708 s           0.708 s
  | Solution of K.-S. eqns.                    :        0.004 s           0.004 s
  | Grid partitioning                          :        0.110 s           0.111 s
  | Preloading free-atom quantities on grid    :        0.002 s           0.003 s
  | Free-atom superposition energy             :        0.087 s           0.086 s
  | Total energy evaluation                    :        0.000 s           0.000 s

  Partial memory accounting:
  | Current value for overall tracked memory usage on task 0  :           0.165 MB
  | Peak value for overall tracked memory usage on task 0     :           0.676 MB after allocating wave
  | Largest tracked array allocation on task 0 so far         :           0.131 MB  when allocating H_times_psi
  Note:  These values currently only include a subset of arrays which are explicitly tracked.
  The "true" memory usage will be greater.
------------------------------------------------------------

------------------------------------------------------------
          Begin self-consistency iteration #    1

  Date     :  20200805, Time     :  184316.538
------------------------------------------------------------
  Evaluating new KS density.
  Integration grid: deviation in total charge (<rho> - N_e) =  -1.421085E-14
  Pulay mixing of updated and previous charge densities.

  Evaluating partitioned Hartree potential by multipole expansion.
  | Analytical far-field extrapolation by fixed multipoles:
  | Hartree multipole sum: apparent total charge =  -0.108478E-03
  Summing up the Hartree potential.
  Time summed over all CPUs for potential: real work        0.281 s, elapsed        0.281 s
  | RMS charge density error from multipole expansion :   0.596194E-02

  Integrating Hamiltonian matrix: batch-based integration.
  Time summed over all CPUs for integration: real work        0.492 s, elapsed        0.492 s

  Updating Kohn-Sham eigenvalues and eigenvectors using ELSI and the ELPA eigensolver.
  Finished Cholesky decomposition
  | Time :     0.000 s
  Finished transformation to standard eigenproblem
  | Time :     0.000 s
  Starting LAPACK eigensolver
  Finished solving standard eigenproblem
  | Time :     0.002 s
  Finished back-transformation of eigenvectors
  | Time :     0.000 s

  Obtaining occupation numbers and chemical potential using ELSI.
  | Chemical potential (Fermi level):    -7.24768516eV
  Writing Kohn-Sham eigenvalues.

  State    Occupation    Eigenvalue [Ha]    Eigenvalue [eV]
      1       2.00000         -18.910850         -514.59042
      2       2.00000         -18.838719         -512.62763
      3       2.00000         -14.094212         -383.52303
      4       2.00000         -10.115502         -275.25682
      5       2.00000         -10.061760         -273.79442
      6       2.00000         -10.031926         -272.98260
      7       2.00000          -1.142066          -31.07721
      8       2.00000          -1.032393          -28.09283
      9       2.00000          -0.920767          -25.05534
     10       2.00000          -0.793604          -21.59506
     11       2.00000          -0.711678          -19.36575
     12       2.00000          -0.635686          -17.29790
     13       2.00000          -0.559019          -15.21168
     14       2.00000          -0.551906          -15.01813
     15       2.00000          -0.534208          -14.53653
     16       2.00000          -0.505364          -13.75165
     17       2.00000          -0.491343          -13.37011
     18       2.00000          -0.469649          -12.77980
     19       2.00000          -0.445191          -12.11425
     20       2.00000          -0.443154          -12.05884
     21       2.00000          -0.427084          -11.62155
     22       2.00000          -0.368849          -10.03688
     23       2.00000          -0.350880           -9.54793
     24       2.00000          -0.305058           -8.30105
     25       0.00000          -0.112626           -3.06470
     26       0.00000          -0.031968           -0.86989
     27       0.00000           0.004315            0.11742
     28       0.00000           0.015647            0.42579
     29       0.00000           0.027677            0.75314
     30       0.00000           0.048274            1.31361
     31       0.00000           0.058690            1.59703
     32       0.00000           0.069846            1.90059
     33       0.00000           0.079309            2.15810
     34       0.00000           0.103776            2.82390
     35       0.00000           0.137961            3.75411
     36       0.00000           0.161608            4.39758
     37       0.00000           0.172289            4.68822
     38       0.00000           0.226010            6.15004
     39       0.00000           0.233705            6.35945
     40       0.00000           0.277495            7.55101
     41       0.00000           0.289170            7.86871
     42       0.00000           0.309739            8.42844
     43       0.00000           0.319939            8.70599
     44       0.00000           0.349721            9.51640
     45       0.00000           0.369649           10.05867
     46       0.00000           0.401721           10.93139
     47       0.00000           0.409403           11.14042
     48       0.00000           0.428405           11.65750
     49       0.00000           0.479317           13.04287
     50       0.00000           0.509486           13.86383
     51       0.00000           0.512500           13.94582
     52       0.00000           0.561503           15.27928
     53       0.00000           0.650595           17.70360

  Highest occupied state (VBM) at     -8.30105301 eV
  | Occupation number:      2.00000000

  Lowest unoccupied state (CBM) at    -3.06470062 eV
  | Occupation number:      0.00000000

  Overall HOMO-LUMO gap:      5.23635239 eV.

  Total energy components:
  | Sum of eigenvalues            :        -185.48173642 Ha       -5047.21484750 eV
  | XC energy correction          :         -42.11784456 Ha       -1146.08486256 eV
  | XC potential correction       :          54.14819708 Ha        1473.44741080 eV
  | Free-atom electrostatic energy:        -146.84644301 Ha       -3995.89502323 eV
  | Hartree energy correction     :          -3.29748248 Ha         -89.72906378 eV
  | vdW energy correction         :           0.00000000 Ha           0.00000000 eV
  | Entropy correction            :           0.00000000 Ha           0.00000000 eV
  | ---------------------------
  | Total energy                  :        -323.59530939 Ha       -8805.47638627 eV
  | Total energy, T -> 0          :        -323.59530939 Ha       -8805.47638627 eV  <-- do not rely on this value for anything but (periodic) metals
  | Electronic free energy        :        -323.59530939 Ha       -8805.47638627 eV

  Derived energy quantities:
  | Kinetic energy                :         322.26863479 Ha        8769.37573366 eV
  | Electrostatic energy          :        -603.74609963 Ha      -16428.76725736 eV
  | Energy correction for multipole
  | error in Hartree potential    :           0.01200447 Ha           0.32665823 eV
  | Sum of eigenvalues per atom                           :        -388.24729596 eV
  | Total energy (T->0) per atom                          :        -677.34433741 eV  <-- do not rely on this value for anything but (periodic) metals
  | Electronic free energy per atom                       :        -677.34433741 eV

  Self-consistency convergence accuracy:
  | Change of charge density      :  0.5796E+00
  | Change of sum of eigenvalues  :  0.9190E+02 eV
  | Change of total energy        :  0.4846E+01 eV

  End self-consistency iteration #     1       :  max(cpu_time)    wall_clock(cpu1)
  | Time for this iteration                    :        1.181 s           1.182 s
  | Charge density update                      :        0.391 s           0.391 s
  | Density mixing                             :        0.005 s           0.005 s
  | Hartree multipole update                   :        0.009 s           0.009 s
  | Hartree multipole summation                :        0.282 s           0.282 s
  | Integration                                :        0.492 s           0.492 s
  | Solution of K.-S. eqns.                    :        0.002 s           0.002 s
  | Total energy evaluation                    :        0.000 s           0.000 s

  Partial memory accounting:
  | Current value for overall tracked memory usage on task 0  :           0.165 MB
  | Peak value for overall tracked memory usage on task 0     :           0.691 MB after allocating gradient_basis_wave
  | Largest tracked array allocation on task 0 so far         :           0.394 MB  when allocating gradient_basis_wave
  Note:  These values currently only include a subset of arrays which are explicitly tracked.
  The "true" memory usage will be greater.
------------------------------------------------------------

------------------------------------------------------------
          Begin self-consistency iteration #    2

  Date     :  20200805, Time     :  184317.720
------------------------------------------------------------
  Evaluating new KS density.
  Integration grid: deviation in total charge (<rho> - N_e) =   5.684342E-14
  Pulay mixing of updated and previous charge densities.

  Evaluating partitioned Hartree potential by multipole expansion.
  | Analytical far-field extrapolation by fixed multipoles:
  | Hartree multipole sum: apparent total charge =  -0.250109E-03
  Summing up the Hartree potential.
  Time summed over all CPUs for potential: real work        0.281 s, elapsed        0.281 s
  | RMS charge density error from multipole expansion :   0.142921E-01

  Integrating Hamiltonian matrix: batch-based integration.
  Time summed over all CPUs for integration: real work        0.491 s, elapsed        0.491 s

  Updating Kohn-Sham eigenvalues and eigenvectors using ELSI and the ELPA eigensolver.
  Finished Cholesky decomposition
  | Time :     0.000 s
  Finished transformation to standard eigenproblem
  | Time :     0.000 s
  Starting LAPACK eigensolver
  Finished solving standard eigenproblem
  | Time :     0.002 s
  Finished back-transformation of eigenvectors
  | Time :     0.000 s

  Obtaining occupation numbers and chemical potential using ELSI.
  | Chemical potential (Fermi level):    -5.83809730eV
  Highest occupied state (VBM) at     -6.27452653 eV
  | Occupation number:      2.00000000

  Lowest unoccupied state (CBM) at    -1.77513342 eV
  | Occupation number:      0.00000000

  Overall HOMO-LUMO gap:      4.49939311 eV.

  Checking to see if s.c.f. parameters should be adjusted.

  Total energy components:
  | Sum of eigenvalues            :        -181.87402344 Ha       -4949.04398242 eV
  | XC energy correction          :         -42.48244564 Ha       -1156.00616290 eV
  | XC potential correction       :          54.62085071 Ha        1486.30897027 eV
  | Free-atom electrostatic energy:        -146.84644301 Ha       -3995.89502323 eV
  | Hartree energy correction     :          -6.93642369 Ha        -188.74969207 eV
  | vdW energy correction         :           0.00000000 Ha           0.00000000 eV
  | Entropy correction            :           0.00000000 Ha           0.00000000 eV
  | ---------------------------
  | Total energy                  :        -323.51848508 Ha       -8803.38589035 eV
  | Total energy, T -> 0          :        -323.51848508 Ha       -8803.38589035 eV  <-- do not rely on this value for anything but (periodic) metals
  | Electronic free energy        :        -323.51848508 Ha       -8803.38589035 eV

  Derived energy quantities:
  | Kinetic energy                :         323.61037344 Ha        8805.88629997 eV
  | Electrostatic energy          :        -604.64641288 Ha      -16453.26602742 eV
  | Energy correction for multipole
  | error in Hartree potential    :           0.02682457 Ha           0.72993355 eV
  | Sum of eigenvalues per atom                           :        -380.69569096 eV
  | Total energy (T->0) per atom                          :        -677.18353003 eV  <-- do not rely on this value for anything but (periodic) metals
  | Electronic free energy per atom                       :        -677.18353003 eV

  Self-consistency convergence accuracy:
  | Change of charge density      :  0.3624E+00
  | Change of sum of eigenvalues  :  0.9817E+02 eV
  | Change of total energy        :  0.2090E+01 eV

  End self-consistency iteration #     2       :  max(cpu_time)    wall_clock(cpu1)
  | Time for this iteration                    :        1.174 s           1.181 s
  | Charge density update                      :        0.384 s           0.391 s
  | Density mixing                             :        0.007 s           0.006 s
  | Hartree multipole update                   :        0.009 s           0.009 s
  | Hartree multipole summation                :        0.281 s           0.282 s
  | Integration                                :        0.491 s           0.491 s
  | Solution of K.-S. eqns.                    :        0.002 s           0.002 s
  | Total energy evaluation                    :        0.000 s           0.000 s

  Partial memory accounting:
  | Current value for overall tracked memory usage on task 0  :           0.166 MB
  | Peak value for overall tracked memory usage on task 0     :           0.691 MB after allocating gradient_basis_wave
  | Largest tracked array allocation on task 0 so far         :           0.394 MB  when allocating gradient_basis_wave
  Note:  These values currently only include a subset of arrays which are explicitly tracked.
  The "true" memory usage will be greater.
------------------------------------------------------------

------------------------------------------------------------
          Begin self-consistency iteration #    3

  Date     :  20200805, Time     :  184318.902
------------------------------------------------------------
  Evaluating new KS density.
  Integration grid: deviation in total charge (<rho> - N_e) =   7.815970E-14
  Pulay mixing of updated and previous charge densities.

  Evaluating partitioned Hartree potential by multipole expansion.
  | Analytical far-field extrapolation by fixed multipoles:
  | Hartree multipole sum: apparent total charge =  -0.347867E-03
  Summing up the Hartree potential.
  Time summed over all CPUs for potential: real work        0.281 s, elapsed        0.281 s
  | RMS charge density error from multipole expansion :   0.226787E-01

  Integrating Hamiltonian matrix: batch-based integration.
  Time summed over all CPUs for integration: real work        0.492 s, elapsed        0.492 s

  Updating Kohn-Sham eigenvalues and eigenvectors using ELSI and the ELPA eigensolver.
  Finished Cholesky decomposition
  | Time :     0.000 s
  Finished transformation to standard eigenproblem
  | Time :     0.000 s
  Starting LAPACK eigensolver
  Finished solving standard eigenproblem
  | Time :     0.001 s
  Finished back-transformation of eigenvectors
  | Time :     0.000 s

  Obtaining occupation numbers and chemical potential using ELSI.
  | Chemical potential (Fermi level):    -5.11334931eV
  Highest occupied state (VBM) at     -5.62159838 eV
  | Occupation number:      2.00000000

  Lowest unoccupied state (CBM) at    -1.04845203 eV
  | Occupation number:      0.00000000

  Overall HOMO-LUMO gap:      4.57314635 eV.

  Total energy components:
  | Sum of eigenvalues            :        -180.59191447 Ha       -4914.15602211 eV
  | XC energy correction          :         -42.63208159 Ha       -1160.07796423 eV
  | XC potential correction       :          54.81155186 Ha        1491.49821258 eV
  | Free-atom electrostatic energy:        -146.84644301 Ha       -3995.89502323 eV
  | Hartree energy correction     :          -8.24787837 Ha        -224.43618965 eV
  | vdW energy correction         :           0.00000000 Ha           0.00000000 eV
  | Entropy correction            :           0.00000000 Ha           0.00000000 eV
  | ---------------------------
  | Total energy                  :        -323.50676558 Ha       -8803.06698663 eV
  | Total energy, T -> 0          :        -323.50676558 Ha       -8803.06698663 eV  <-- do not rely on this value for anything but (periodic) metals
  | Electronic free energy        :        -323.50676558 Ha       -8803.06698663 eV

  Derived energy quantities:
  | Kinetic energy                :         323.15958972 Ha        8793.61985060 eV
  | Electrostatic energy          :        -604.03427371 Ha      -16436.60887300 eV
  | Energy correction for multipole
  | error in Hartree potential    :           0.03837184 Ha           1.04415083 eV
  | Sum of eigenvalues per atom                           :        -378.01200170 eV
  | Total energy (T->0) per atom                          :        -677.15899897 eV  <-- do not rely on this value for anything but (periodic) metals
  | Electronic free energy per atom                       :        -677.15899897 eV

  Self-consistency convergence accuracy:
  | Change of charge density      :  0.2006E+00
  | Change of sum of eigenvalues  :  0.3489E+02 eV
  | Change of total energy        :  0.3189E+00 eV

  End self-consistency iteration #     3       :  max(cpu_time)    wall_clock(cpu1)
  | Time for this iteration                    :        1.175 s           1.176 s
  | Charge density update                      :        0.383 s           0.383 s
  | Density mixing                             :        0.008 s           0.008 s
  | Hartree multipole update                   :        0.009 s           0.009 s
  | Hartree multipole summation                :        0.281 s           0.281 s
  | Integration                                :        0.492 s           0.492 s
  | Solution of K.-S. eqns.                    :        0.002 s           0.002 s
  | Total energy evaluation                    :        0.000 s           0.000 s

  Partial memory accounting:
  | Current value for overall tracked memory usage on task 0  :           0.166 MB
  | Peak value for overall tracked memory usage on task 0     :           0.692 MB after allocating gradient_basis_wave
  | Largest tracked array allocation on task 0 so far         :           0.394 MB  when allocating gradient_basis_wave
  Note:  These values currently only include a subset of arrays which are explicitly tracked.
  The "true" memory usage will be greater.
------------------------------------------------------------

------------------------------------------------------------
          Begin self-consistency iteration #    4

  Date     :  20200805, Time     :  184320.078
------------------------------------------------------------
  Evaluating new KS density.
  Integration grid: deviation in total charge (<rho> - N_e) =   3.552714E-14
  Pulay mixing of updated and previous charge densities.

  Evaluating partitioned Hartree potential by multipole expansion.
  | Analytical far-field extrapolation by fixed multipoles:
  | Hartree multipole sum: apparent total charge =  -0.378212E-03
  Summing up the Hartree potential.
  Time summed over all CPUs for potential: real work        0.281 s, elapsed        0.281 s
  | RMS charge density error from multipole expansion :   0.260276E-01

  Integrating Hamiltonian matrix: batch-based integration.
  Time summed over all CPUs for integration: real work        0.491 s, elapsed        0.491 s

  Updating Kohn-Sham eigenvalues and eigenvectors using ELSI and the ELPA eigensolver.
  Finished Cholesky decomposition
  | Time :     0.000 s
  Finished transformation to standard eigenproblem
  | Time :     0.000 s
  Starting LAPACK eigensolver
  Finished solving standard eigenproblem
  | Time :     0.001 s
  Finished back-transformation of eigenvectors
  | Time :     0.000 s

  Obtaining occupation numbers and chemical potential using ELSI.
  | Chemical potential (Fermi level):    -5.02497980eV
  Highest occupied state (VBM) at     -5.43212399 eV
  | Occupation number:      2.00000000

  Lowest unoccupied state (CBM) at    -0.98353737 eV
  | Occupation number:      0.00000000

  Overall HOMO-LUMO gap:      4.44858662 eV.

  Total energy components:
  | Sum of eigenvalues            :        -180.45995232 Ha       -4910.56514939 eV
  | XC energy correction          :         -42.66786190 Ha       -1161.05159594 eV
  | XC potential correction       :          54.85659637 Ha        1492.72393624 eV
  | Free-atom electrostatic energy:        -146.84644301 Ha       -3995.89502323 eV
  | Hartree energy correction     :          -8.38833161 Ha        -228.25811668 eV
  | vdW energy correction         :           0.00000000 Ha           0.00000000 eV
  | Entropy correction            :           0.00000000 Ha           0.00000000 eV
  | ---------------------------
  | Total energy                  :        -323.50599246 Ha       -8803.04594900 eV
  | Total energy, T -> 0          :        -323.50599246 Ha       -8803.04594900 eV  <-- do not rely on this value for anything but (periodic) metals
  | Electronic free energy        :        -323.50599246 Ha       -8803.04594900 eV

  Derived energy quantities:
  | Kinetic energy                :         322.79177248 Ha        8783.61103439 eV
  | Electrostatic energy          :        -603.62990304 Ha      -16425.60538744 eV
  | Energy correction for multipole
  | error in Hartree potential    :           0.04251449 Ha           1.15687820 eV
  | Sum of eigenvalues per atom                           :        -377.73578072 eV
  | Total energy (T->0) per atom                          :        -677.15738069 eV  <-- do not rely on this value for anything but (periodic) metals
  | Electronic free energy per atom                       :        -677.15738069 eV

  Self-consistency convergence accuracy:
  | Change of charge density      :  0.6070E-01
  | Change of sum of eigenvalues  :  0.3591E+01 eV
  | Change of total energy        :  0.2104E-01 eV

  End self-consistency iteration #     4       :  max(cpu_time)    wall_clock(cpu1)
  | Time for this iteration                    :        1.175 s           1.176 s
  | Charge density update                      :        0.383 s           0.383 s
  | Density mixing                             :        0.009 s           0.010 s
  | Hartree multipole update                   :        0.009 s           0.009 s
  | Hartree multipole summation                :        0.281 s           0.281 s
  | Integration                                :        0.491 s           0.491 s
  | Solution of K.-S. eqns.                    :        0.002 s           0.002 s
  | Total energy evaluation                    :        0.000 s           0.000 s

  Partial memory accounting:
  | Current value for overall tracked memory usage on task 0  :           0.166 MB
  | Peak value for overall tracked memory usage on task 0     :           0.692 MB after allocating gradient_basis_wave
  | Largest tracked array allocation on task 0 so far         :           0.394 MB  when allocating gradient_basis_wave
  Note:  These values currently only include a subset of arrays which are explicitly tracked.
  The "true" memory usage will be greater.
------------------------------------------------------------

------------------------------------------------------------
          Begin self-consistency iteration #    5

  Date     :  20200805, Time     :  184321.255
------------------------------------------------------------
  Evaluating new KS density.
  Integration grid: deviation in total charge (<rho> - N_e) =   2.842171E-14
  Pulay mixing of updated and previous charge densities.

  Evaluating partitioned Hartree potential by multipole expansion.
  | Analytical far-field extrapolation by fixed multipoles:
  | Hartree multipole sum: apparent total charge =  -0.372399E-03
  Summing up the Hartree potential.
  Time summed over all CPUs for potential: real work        0.281 s, elapsed        0.281 s
  | RMS charge density error from multipole expansion :   0.257617E-01

  Integrating Hamiltonian matrix: batch-based integration.
  Time summed over all CPUs for integration: real work        0.491 s, elapsed        0.491 s

  Updating Kohn-Sham eigenvalues and eigenvectors using ELSI and the ELPA eigensolver.
  Finished Cholesky decomposition
  | Time :     0.000 s
  Finished transformation to standard eigenproblem
  | Time :     0.000 s
  Starting LAPACK eigensolver
  Finished solving standard eigenproblem
  | Time :     0.001 s
  Finished back-transformation of eigenvectors
  | Time :     0.000 s

  Obtaining occupation numbers and chemical potential using ELSI.
  | Chemical potential (Fermi level):    -5.08316380eV
  Highest occupied state (VBM) at     -5.51306443 eV
  | Occupation number:      2.00000000

  Lowest unoccupied state (CBM) at    -1.05652307 eV
  | Occupation number:      0.00000000

  Overall HOMO-LUMO gap:      4.45654136 eV.

  Total energy components:
  | Sum of eigenvalues            :        -180.62097838 Ha       -4914.94689147 eV
  | XC energy correction          :         -42.64763129 Ha       -1160.50109301 eV
  | XC potential correction       :          54.83037395 Ha        1492.01038785 eV
  | Free-atom electrostatic energy:        -146.84644301 Ha       -3995.89502323 eV
  | Hartree energy correction     :          -8.22101946 Ha        -223.70532160 eV
  | vdW energy correction         :           0.00000000 Ha           0.00000000 eV
  | Entropy correction            :           0.00000000 Ha           0.00000000 eV
  | ---------------------------
  | Total energy                  :        -323.50569819 Ha       -8803.03794146 eV
  | Total energy, T -> 0          :        -323.50569819 Ha       -8803.03794146 eV  <-- do not rely on this value for anything but (periodic) metals
  | Electronic free energy        :        -323.50569819 Ha       -8803.03794146 eV

  Derived energy quantities:
  | Kinetic energy                :         322.70806373 Ha        8781.33320350 eV
  | Electrostatic energy          :        -603.56613064 Ha      -16423.87005196 eV
  | Energy correction for multipole
  | error in Hartree potential    :           0.04192658 Ha           1.14088042 eV
  | Sum of eigenvalues per atom                           :        -378.07283781 eV
  | Total energy (T->0) per atom                          :        -677.15676473 eV  <-- do not rely on this value for anything but (periodic) metals
  | Electronic free energy per atom                       :        -677.15676473 eV

  Self-consistency convergence accuracy:
  | Change of charge density      :  0.2104E-01
  | Change of sum of eigenvalues  : -0.4382E+01 eV
  | Change of total energy        :  0.8008E-02 eV

  End self-consistency iteration #     5       :  max(cpu_time)    wall_clock(cpu1)
  | Time for this iteration                    :        1.176 s           1.177 s
  | Charge density update                      :        0.382 s           0.382 s
  | Density mixing                             :        0.011 s           0.011 s
  | Hartree multipole update                   :        0.009 s           0.009 s
  | Hartree multipole summation                :        0.281 s           0.281 s
  | Integration                                :        0.491 s           0.491 s
  | Solution of K.-S. eqns.                    :        0.002 s           0.003 s
  | Total energy evaluation                    :        0.000 s           0.000 s

  Partial memory accounting:
  | Current value for overall tracked memory usage on task 0  :           0.166 MB
  | Peak value for overall tracked memory usage on task 0     :           0.692 MB after allocating gradient_basis_wave
  | Largest tracked array allocation on task 0 so far         :           0.394 MB  when allocating gradient_basis_wave
  Note:  These values currently only include a subset of arrays which are explicitly tracked.
  The "true" memory usage will be greater.
------------------------------------------------------------

------------------------------------------------------------
          Begin self-consistency iteration #    6

  Date     :  20200805, Time     :  184322.433
------------------------------------------------------------
  Evaluating new KS density.
  Integration grid: deviation in total charge (<rho> - N_e) =   3.552714E-14
  Pulay mixing of updated and previous charge densities.

  Evaluating partitioned Hartree potential by multipole expansion.
  | Analytical far-field extrapolation by fixed multipoles:
  | Hartree multipole sum: apparent total charge =  -0.373654E-03
  Summing up the Hartree potential.
  Time summed over all CPUs for potential: real work        0.281 s, elapsed        0.281 s
  | RMS charge density error from multipole expansion :   0.260869E-01

  Integrating Hamiltonian matrix: batch-based integration.
  Time summed over all CPUs for integration: real work        0.491 s, elapsed        0.491 s

  Updating Kohn-Sham eigenvalues and eigenvectors using ELSI and the ELPA eigensolver.
  Finished Cholesky decomposition
  | Time :     0.000 s
  Finished transformation to standard eigenproblem
  | Time :     0.000 s
  Starting LAPACK eigensolver
  Finished solving standard eigenproblem
  | Time :     0.002 s
  Finished back-transformation of eigenvectors
  | Time :     0.000 s

  Obtaining occupation numbers and chemical potential using ELSI.
  | Chemical potential (Fermi level):    -5.10201447eV
  Highest occupied state (VBM) at     -5.50832996 eV
  | Occupation number:      2.00000000

  Lowest unoccupied state (CBM) at    -1.09288548 eV
  | Occupation number:      0.00000000

  Overall HOMO-LUMO gap:      4.41544448 eV.

  Total energy components:
  | Sum of eigenvalues            :        -180.67007502 Ha       -4916.28287895 eV
  | XC energy correction          :         -42.64070584 Ha       -1160.31264192 eV
  | XC potential correction       :          54.82137924 Ha        1491.76562944 eV
  | Free-atom electrostatic energy:        -146.84644301 Ha       -3995.89502323 eV
  | Hartree energy correction     :          -8.16978487 Ha        -222.31115738 eV
  | vdW energy correction         :           0.00000000 Ha           0.00000000 eV
  | Entropy correction            :           0.00000000 Ha           0.00000000 eV
  | ---------------------------
  | Total energy                  :        -323.50562949 Ha       -8803.03607203 eV
  | Total energy, T -> 0          :        -323.50562949 Ha       -8803.03607203 eV  <-- do not rely on this value for anything but (periodic) metals
  | Electronic free energy        :        -323.50562949 Ha       -8803.03607203 eV

  Derived energy quantities:
  | Kinetic energy                :         322.61056039 Ha        8778.68000263 eV
  | Electrostatic energy          :        -603.47548405 Ha      -16421.40343274 eV
  | Energy correction for multipole
  | error in Hartree potential    :           0.04210631 Ha           1.14577107 eV
  | Sum of eigenvalues per atom                           :        -378.17560607 eV
  | Total energy (T->0) per atom                          :        -677.15662093 eV  <-- do not rely on this value for anything but (periodic) metals
  | Electronic free energy per atom                       :        -677.15662093 eV

  Self-consistency convergence accuracy:
  | Change of charge density      :  0.1065E-01
  | Change of sum of eigenvalues  : -0.1336E+01 eV
  | Change of total energy        :  0.1869E-02 eV

  End self-consistency iteration #     6       :  max(cpu_time)    wall_clock(cpu1)
  | Time for this iteration                    :        1.178 s           1.178 s
  | Charge density update                      :        0.383 s           0.382 s
  | Density mixing                             :        0.012 s           0.012 s
  | Hartree multipole update                   :        0.009 s           0.010 s
  | Hartree multipole summation                :        0.281 s           0.281 s
  | Integration                                :        0.491 s           0.491 s
  | Solution of K.-S. eqns.                    :        0.002 s           0.002 s
  | Total energy evaluation                    :        0.000 s           0.000 s

  Partial memory accounting:
  | Current value for overall tracked memory usage on task 0  :           0.166 MB
  | Peak value for overall tracked memory usage on task 0     :           0.692 MB after allocating gradient_basis_wave
  | Largest tracked array allocation on task 0 so far         :           0.394 MB  when allocating gradient_basis_wave
  Note:  These values currently only include a subset of arrays which are explicitly tracked.
  The "true" memory usage will be greater.
------------------------------------------------------------

------------------------------------------------------------
          Begin self-consistency iteration #    7

  Date     :  20200805, Time     :  184323.612
------------------------------------------------------------
  Evaluating new KS density.
  Integration grid: deviation in total charge (<rho> - N_e) =  -1.421085E-14
  Pulay mixing of updated and previous charge densities.

  Evaluating partitioned Hartree potential by multipole expansion.
  | Analytical far-field extrapolation by fixed multipoles:
  | Hartree multipole sum: apparent total charge =  -0.374956E-03
  Summing up the Hartree potential.
  Time summed over all CPUs for potential: real work        0.281 s, elapsed        0.281 s
  | RMS charge density error from multipole expansion :   0.262535E-01

  Integrating Hamiltonian matrix: batch-based integration.
  Time summed over all CPUs for integration: real work        0.492 s, elapsed        0.492 s

  Updating Kohn-Sham eigenvalues and eigenvectors using ELSI and the ELPA eigensolver.
  Finished Cholesky decomposition
  | Time :     0.000 s
  Finished transformation to standard eigenproblem
  | Time :     0.000 s
  Starting LAPACK eigensolver
  Finished solving standard eigenproblem
  | Time :     0.002 s
  Finished back-transformation of eigenvectors
  | Time :     0.000 s

[...]
  |   Hirshfeld dipole moment :      0.06540870
  |   Hirshfeld second moments:      0.00850740      -0.01470283      -0.01439770
  |                                 -0.01470283      -0.01086778       0.00740080
  |                                 -0.01439770       0.00740080      -0.02252414
  ----------------------------------------------------------------------
  | Atom    12: O
  |   Hirshfeld charge        :     -0.13874519
  |   Free atom volume        :     23.61338643
  |   Hirshfeld volume        :     20.60452631
  |   Hirshfeld dipole vector :      0.01537442       0.00233482       0.03458320
  |   Hirshfeld dipole moment :      0.03791862
  |   Hirshfeld second moments:      0.06559355       0.01538644      -0.02244194
  |                                  0.01538644       0.08608369      -0.01515695
  |                                 -0.02244194      -0.01515695       0.04609959
  ----------------------------------------------------------------------
  | Atom    13: H
  |   Hirshfeld charge        :      0.17074499
  |   Free atom volume        :      9.95071624
  |   Hirshfeld volume        :      6.40119332
  |   Hirshfeld dipole vector :     -0.04623487      -0.08428388       0.05829816
  |   Hirshfeld dipole moment :      0.11242825
  |   Hirshfeld second moments:      0.11501444       0.00116074      -0.01533326
  |                                  0.00116074       0.12214963      -0.00042070
  |                                 -0.01533326      -0.00042070       0.08256236
  ----------------------------------------------------------------------


  Total energy components:
  | Sum of eigenvalues            :        -180.65777941 Ha       -4915.94829853 eV
  | XC energy correction          :         -42.63875916 Ha       -1160.25967022 eV
  | XC potential correction       :          54.81893677 Ha        1491.69916637 eV
  | Free-atom electrostatic energy:        -146.84644301 Ha       -3995.89502323 eV
  | Hartree energy correction     :          -8.18156465 Ha        -222.63170161 eV
  | vdW energy correction         :          -0.00318562 Ha          -0.08668503 eV
  | Entropy correction            :           0.00000000 Ha           0.00000000 eV
  | ---------------------------
  | Total energy                  :        -323.50879509 Ha       -8803.12221224 eV
  | Total energy, T -> 0          :        -323.50879509 Ha       -8803.12221224 eV  <-- do not rely on this value for anything but (periodic) metals
  | Electronic free energy        :        -323.50879509 Ha       -8803.12221224 eV

  Derived energy quantities:
  | Kinetic energy                :         322.57176071 Ha        8777.62420945 eV
  | Electrostatic energy          :        -603.43861101 Ha      -16420.40006644 eV
  | Energy correction for multipole
  | error in Hartree potential    :           0.04222315 Ha           1.14895028 eV
  | Sum of eigenvalues per atom                           :        -378.14986912 eV
  | Total energy (T->0) per atom                          :        -677.16324710 eV  <-- do not rely on this value for anything but (periodic) metals
  | Electronic free energy per atom                       :        -677.16324710 eV

  atomic forces [eV/Ang]:
  -----------------------
  atom #    1
   Hellmann-Feynman              :  0.217265E+00 -0.535954E+00  0.576900E+00
   Ionic forces                  :  0.000000E+00  0.000000E+00  0.000000E+00
   Multipole                     : -0.122378E-01  0.369981E+00 -0.284589E+00
   Pulay + GGA                   : -0.978632E+00 -0.372851E-01 -0.110727E+01
   Van der Waals                 :  0.192454E-02  0.753794E-03 -0.152075E-02
   ----------------------------------------------------------------
   Total forces(   1)            : -0.771681E+00 -0.202504E+00 -0.816476E+00
  atom #    2
   Hellmann-Feynman              :  0.322876E+00 -0.349209E-01  0.200269E-01
   Ionic forces                  :  0.000000E+00  0.000000E+00  0.000000E+00
   Multipole                     :  0.175649E+00  0.425961E-01 -0.371445E-01
   Pulay + GGA                   : -0.151510E+00  0.336505E-01 -0.390837E-02
   Van der Waals                 :  0.554627E-02 -0.226295E-02 -0.500504E-02
   ----------------------------------------------------------------
   Total forces(   2)            :  0.352561E+00  0.390627E-01 -0.260311E-01
  atom #    3
   Hellmann-Feynman              :  0.721552E+01  0.716853E+01 -0.496470E+01
   Ionic forces                  :  0.000000E+00  0.000000E+00  0.000000E+00
   Multipole                     : -0.141281E+00  0.152746E+00 -0.106417E+01
   Pulay + GGA                   : -0.621256E+01 -0.693366E+01  0.665546E+01
   Van der Waals                 :  0.283685E-02 -0.760963E-02 -0.636108E-02
   ----------------------------------------------------------------
   Total forces(   3)            :  0.864512E+00  0.379997E+00  0.620234E+00
  atom #    4
   Hellmann-Feynman              : -0.213698E+00 -0.261740E-01 -0.140840E+00
   Ionic forces                  :  0.000000E+00  0.000000E+00  0.000000E+00
   Multipole                     : -0.431711E-01 -0.760940E-01 -0.709798E-01
   Pulay + GGA                   :  0.515935E-02  0.233658E+00  0.595254E-01
   Van der Waals                 : -0.345012E-02  0.210472E-02  0.583461E-03
   ----------------------------------------------------------------
   Total forces(   4)            : -0.255160E+00  0.133494E+00 -0.151711E+00
  atom #    5
   Hellmann-Feynman              : -0.355563E+00 -0.218758E+00 -0.156853E-01
   Ionic forces                  :  0.000000E+00  0.000000E+00  0.000000E+00
   Multipole                     : -0.976932E-01  0.863682E-02 -0.481228E-01
   Pulay + GGA                   :  0.240190E+00 -0.181624E-01 -0.470179E-01
   Van der Waals                 : -0.138877E-02  0.249521E-02 -0.985193E-02
   ----------------------------------------------------------------
   Total forces(   5)            : -0.214455E+00 -0.225789E+00 -0.120678E+00
  atom #    6
   Hellmann-Feynman              :  0.143389E+00 -0.363088E+00  0.214563E+00
   Ionic forces                  :  0.000000E+00  0.000000E+00  0.000000E+00
   Multipole                     : -0.147953E+00  0.639202E+00  0.273750E+00
   Pulay + GGA                   :  0.247030E+00 -0.723754E+00 -0.458913E+00
   Van der Waals                 : -0.181339E-02  0.448239E-02 -0.278744E-02
   ----------------------------------------------------------------
   Total forces(   6)            :  0.240653E+00 -0.443158E+00  0.266130E-01
  atom #    7
   Hellmann-Feynman              : -0.249750E+00 -0.546011E-01 -0.417820E-01
   Ionic forces                  :  0.000000E+00  0.000000E+00  0.000000E+00
   Multipole                     : -0.119687E+00  0.483582E-01  0.382366E-01
   Pulay + GGA                   :  0.108534E+00  0.149090E-01  0.265651E-01
   Van der Waals                 : -0.234139E-02  0.387485E-02  0.825293E-02
   ----------------------------------------------------------------
   Total forces(   7)            : -0.263246E+00  0.125409E-01  0.312726E-01
  atom #    8
   Hellmann-Feynman              :  0.499695E-01 -0.538440E-01  0.128053E+00
   Ionic forces                  :  0.000000E+00  0.000000E+00  0.000000E+00
   Multipole                     :  0.140943E-01  0.663205E-01  0.128674E+00
   Pulay + GGA                   : -0.443400E-01 -0.399953E-01 -0.105232E+00
   Van der Waals                 : -0.303885E-02  0.112771E-01  0.115601E-02
   ----------------------------------------------------------------
   Total forces(   8)            :  0.166849E-01 -0.162417E-01  0.152651E+00
  atom #    9
   Hellmann-Feynman              :  0.104833E+00  0.326794E-01 -0.189625E+00
   Ionic forces                  :  0.000000E+00  0.000000E+00  0.000000E+00
   Multipole                     :  0.197131E-01  0.130110E+00 -0.730276E-02
   Pulay + GGA                   : -0.394881E-01 -0.110170E+00  0.275107E-01
   Van der Waals                 : -0.211458E-02  0.414666E-02  0.473564E-02
   ----------------------------------------------------------------
   Total forces(   9)            :  0.829433E-01  0.567658E-01 -0.164681E+00
  atom #   10
   Hellmann-Feynman              :  0.280026E+01  0.577442E+01  0.729920E+00
   Ionic forces                  :  0.000000E+00  0.000000E+00  0.000000E+00
   Multipole                     :  0.798377E-02 -0.159983E+00  0.176345E+00
   Pulay + GGA                   : -0.156558E+01 -0.338074E+01 -0.241516E+00
   Van der Waals                 :  0.534504E-02 -0.170152E-01  0.745800E-02
   ----------------------------------------------------------------
   Total forces(  10)            :  0.124801E+01  0.221668E+01  0.672208E+00
  atom #   11
   Hellmann-Feynman              :  0.409037E+01 -0.249357E+01  0.143600E+02
   Ionic forces                  :  0.000000E+00  0.000000E+00  0.000000E+00
   Multipole                     :  0.139169E+00 -0.485048E+00  0.806919E+00
   Pulay + GGA                   : -0.346105E+01  0.331472E+01 -0.134185E+02
   Van der Waals                 : -0.354160E-02 -0.117084E-01  0.709133E-03
   ----------------------------------------------------------------
   Total forces(  11)            :  0.764940E+00  0.324397E+00  0.174911E+01
  atom #   12
   Hellmann-Feynman              : -0.465681E+01  0.186962E+00 -0.155835E+02
   Ionic forces                  :  0.000000E+00  0.000000E+00  0.000000E+00
   Multipole                     : -0.836915E+00 -0.104476E+01 -0.846312E+00
   Pulay + GGA                   :  0.370972E+01 -0.474272E+00  0.144526E+02
   Van der Waals                 :  0.718423E-04  0.237465E-02  0.723879E-02
   ----------------------------------------------------------------
   Total forces(  12)            : -0.178393E+01 -0.132969E+01 -0.196996E+01
  atom #   13
   Hellmann-Feynman              : -0.396400E+00 -0.115932E+01  0.151659E+00
   Ionic forces                  :  0.000000E+00  0.000000E+00  0.000000E+00
   Multipole                     :  0.452966E-02 -0.377377E-01  0.857246E-01
   Pulay + GGA                   :  0.105265E+00  0.240341E+00 -0.234668E+00
   Van der Waals                 :  0.196415E-02  0.708682E-02 -0.460773E-02
   ----------------------------------------------------------------
   Total forces(  13)            : -0.284641E+00 -0.949628E+00 -0.189251E-02

  Timings for VdW correction (Tkatchenko-Scheffler 2009 or later):
  | CPU time:        0.088 s, Wall clock time:        0.089 s.
  Removing unitary transformations (pure translations, rotations) from forces on atoms.
  Atomic forces before filtering:
  | Net force on center of mass :  -0.281315E-02 -0.407070E-02  0.666799E-03 eV/A
  | Net torque on center of mass:  -0.802102E-02  0.388321E-02  0.479978E-02 eV
  Atomic forces after filtering:
  | Net force on center of mass :   0.669023E-15  0.535218E-15  0.243218E-15 eV/A
  | Net torque on center of mass:   0.169935E-14 -0.220901E-15  0.660859E-15 eV

  Energy and forces in a compact form:
  | Total energy uncorrected      :         -0.880312221223809E+04 eV
  | Total energy corrected        :         -0.880312221223809E+04 eV  <-- do not rely on this value for anything but (periodic) metals
  | Electronic free energy        :         -0.880312221223809E+04 eV
  Total atomic forces (unitary forces cleaned) [eV/Ang]:
  |   1         -0.771410821969832E+00         -0.202229116821057E+00         -0.816415854490736E+00
  |   2          0.352831295190233E+00          0.391844846535813E-01         -0.257980269884176E-01
  |   3          0.865005304826196E+00          0.380590356082495E+00          0.620218776725733E+00
  |   4         -0.254743175139595E+00          0.134144951665784E+00         -0.151888509564288E+00
  |   5         -0.213912010453758E+00         -0.225058075247097E+00         -0.120785088060987E+00
  |   6          0.240984384261050E+00         -0.442943391140126E+00          0.268196040633894E-01
  |   7         -0.262912432234806E+00          0.129055098574216E-01          0.313116061638798E-01
  |   8          0.168555740446710E-01         -0.162611692117317E-01          0.152917119750659E+00
  |   9          0.834806180997088E-01          0.570194597945474E-01         -0.164257725167639E+00
  |  10          0.124797779121719E+01          0.221688156348821E+01          0.671976583690883E+00
  |  11          0.764693969356626E+00          0.324350588512915E+00          0.174887948507774E+01
  |  12         -0.178396932508998E+01         -0.132927561600901E+01         -0.197044876761419E+01
  |  13         -0.284881172107700E+00         -0.949309545625936E+00         -0.252920358602838E-02

  ------------------------------------ 
  Start decomposition of the XC Energy 
  ------------------------------------ 
  X and C from original XC functional choice 
  Hartree-Fock Energy :          0.000000000 Ha              0.000000000 eV
  X Energy            :        -41.038183261 Ha          -1116.705783890 eV
  C Energy            :         -1.600575903 Ha            -43.553886328 eV
  Total XC Energy     :        -42.638759164 Ha          -1160.259670219 eV
  ------------------------------------ 
  LDA X and C from self-consistent density 
  X Energy LDA        :        -37.257486000 Ha          -1013.827777038 eV
  C Energy LDA        :         -3.138615420 Ha            -85.406070985 eV
  ------------------------------------ 
  End decomposition of the XC Energy 
  ------------------------------------ 

------------------------------------------------------------

------------------------------------------------------------------------------
  Final output of selected total energy values:

  The following output summarizes some interesting total energy values
  at the end of a run (AFTER all relaxation, molecular dynamics, etc.).

  | Total energy of the DFT / Hartree-Fock s.c.f. calculation      :          -8803.122212238 eV
  | Final zero-broadening corrected energy (caution - metals only) :          -8803.122212238 eV
  | For reference only, the value of 1 Hartree used in FHI-aims is :             27.211384500 eV

  Before relying on these values, please be sure to understand exactly which
  total energy value is referred to by a given number. Different objects may
  all carry the same name 'total energy'. Definitions:

  Total energy of the DFT / Hartree-Fock s.c.f. calculation:
  | Note that this energy does not include ANY quantities calculated after the
  | s.c.f. cycle, in particular not ANY RPA, MP2, etc. many-body perturbation terms.

  Final zero-broadening corrected energy:
  | For metallic systems only, a broadening of the occupation numbers at the Fermi
  | level can be extrapolated back to zero broadening by an electron-gas inspired
  | formula. For all systems that are not real metals, this value can be
  | meaningless and should be avoided.

------------------------------------------------------------------------------
  Methods described in the following list of references were used in this FHI-aims run.
  If you publish the results, please make sure to cite these reference if they apply.
  FHI-aims is an academic code, and for our developers (often, Ph.D. students
  and postdocs), scientific credit in the community is essential.
  Thank you for helping us!

  For any use of FHI-aims, please cite:

    Volker Blum, Ralf Gehrke, Felix Hanke, Paula Havu, Ville Havu,
    Xinguo Ren, Karsten Reuter, and Matthias Scheffler
    'Ab initio molecular simulations with numeric atom-centered orbitals'
    Computer Physics Communications 180, 2175-2196 (2009)
    http://dx.doi.org/10.1016/j.cpc.2009.06.022


  The scalable eigensolver library ELPA was used in your run.
  ELPA is essential especially for large systems on hundreds or thousands of CPUs.
  For ELPA, please cite:

    Andreas Marek, Volker Blum, Rainer Johanni, Ville Havu, Bruno Lang,
    Thomas Auckenthaler, Alexander Heinecke, Hans-Joachim Bungartz, and Hermann Lederer,
    'The ELPA Library - Scalable Parallel Eigenvalue Solutions
    for Electronic Structure Theory and Computational Science'
    The Journal of Physics: Condensed Matter 26, 213201 (2014).
    http://dx.doi.org/10.1088/0953-8984/26/21/213201


  The ELSI infrastructure was used in your run to solve the Kohn-Sham electronic structure.
  Please check out http://elsi-interchange.org to learn more.
  If scalability is important for your project, please acknowledge ELSI by citing:

    V. W-z. Yu, F. Corsetti, A. Garcia, W. P. Huhn, M. Jacquelin, W. Jia,
    B. Lange, L. Lin, J. Lu, W. Mi, A. Seifitokaldani, A. Vazquez-Mayagoitia,
    C. Yang, H. Yang, and V. Blum
    'ELSI: A unified software interface for Kohn-Sham electronic structure solvers'
    Computer Physics Communications 222, 267-285 (2018).
    http://dx.doi.org/10.1016/j.cpc.2017.09.007


  For the real-space grid partitioning and parallelization used in this calculation, please cite:

    Ville Havu, Volker Blum, Paula Havu, and Matthias Scheffler,
    'Efficient O(N) integration for all-electron electronic structure calculation'
    'using numerically tabulated basis functions'
    Journal of Computational Physics 228, 8367-8379 (2009).
    http://dx.doi.org/10.1016/j.jcp.2009.08.008

  Of course, there are many other important community references, e.g., those cited in the
  above references. Our list is limited to references that describe implementations in the
  FHI-aims code. The reason is purely practical (length of this list) - please credit others as well.

------------------------------------------------------------
          Leaving FHI-aims.
          Date     :  20200805, Time     :  184337.808

          Computational steps:
          | Number of self-consistency cycles          :           16
          | Number of SCF (re)initializations          :            1

          Detailed time accounting                     :  max(cpu_time)    wall_clock(cpu1)
          | Total time                                 :       22.532 s          22.582 s
          | Preparation time                           :        0.145 s           0.146 s
          | Boundary condition initalization           :        0.000 s           0.000 s
          | Grid partitioning                          :        0.110 s           0.111 s
          | Preloading free-atom quantities on grid    :        0.002 s           0.003 s
          | Free-atom superposition energy             :        0.087 s           0.086 s
          | Total time for integrations                :        8.567 s           8.578 s
          | Total time for solution of K.-S. equations :        0.036 s           0.037 s
          | Total time for density & force components  :        7.083 s           7.098 s
          | Total time for mixing                      :        0.216 s           0.215 s
          | Total time for Hartree multipole update    :        0.141 s           0.145 s
          | Total time for Hartree multipole sum       :        5.748 s           5.755 s
          | Total time for total energy evaluation     :        0.003 s           0.002 s
          | Total time for vdW correction              :        0.088 s           0.089 s

          Partial memory accounting:
          | Residual value for overall tracked memory usage across tasks :           0.000 MB (should be 0.000 MB)
          | Peak values for overall tracked memory usage (after allocating hessian_basis_wave):
          |   Minimum:        1.612 MB (on task 1)
          |   Maximum:        1.612 MB (on task 1)
          |   Average:        1.612 MB
          | Largest tracked array allocation (hessian_basis_wave):
          |   Minimum:        0.788 MB (on task 1)
          |   Maximum:        0.788 MB (on task 1)
          |   Average:        0.788 MB
          Note:  These values currently only include a subset of arrays which are explicitly tracked.
          The "true" memory usage will be greater.

          Have a nice day.
------------------------------------------------------------
