  MPI-parallelism will be employed.
------------------------------------------------------------
          Invoking FHI-aims ...
          Version 171221_1
          Compiled on 2019/09/09 at 14:39:39 on host puhti-login2.bullx.

          When using FHI-aims, please cite the following reference:

          Volker Blum, Ralf Gehrke, Felix Hanke, Paula Havu,
          Ville Havu, Xinguo Ren, Karsten Reuter, and Matthias Scheffler,
          'Ab Initio Molecular Simulations with Numeric Atom-Centered Orbitals',
          Computer Physics Communications 180, 2175-2196 (2009)

          For any questions about FHI-aims, please visit the aimsclub website
          with its forums and wiki. Contributions to both the forums and the
          wiki are warmly encouraged - they are for you, and everyone is welcome there.

------------------------------------------------------------



  Date     :  20200710, Time     :  145158.259
  Time zero on CPU 1             :   0.116770000000000E-01  s.
  Internal wall clock time zero  :           363624718.259  s.

  FHI-aims created a unique identifier for this run for later identification
  aims_uuid : 34F2CD3F-F490-4D8A-ABA4-47C717DC4C6E

  Using        1 parallel tasks.
  Task        0 on host r18c42.bullx reporting.

  Performing system and environment tests:
  | Environment variable OMP_NUM_THREADS correctly set to 1.
  | Stacksize not measured: no C compiler
  | Checking for scalapack...
  | Testing pdtran()...
  | All pdtran() tests passed.

  Obtaining array dimensions for all initial allocations:
  
  -----------------------------------------------------------------------
  Parsing control.in (first pass over file, find array dimensions only).
  The contents of control.in will be repeated verbatim below
  unless switched off by setting 'verbatim_writeout .false.' .
  in the first line of control.in .
  -----------------------------------------------------------------------
  
  #########################################################################################
  #
  #  Volker Blum, FHI 2009 : Test run input file control.in for simple H2O
  #
  #########################################################################################
  #
  #  Physical model
  #
    xc                 pbe
    vdw_correction_hirshfeld
    spin               none
    relativistic       none
    charge             0.
  #
  #  SCF convergence
  #
    occupation_type    gaussian 0.01
    mixer              pulay
      n_max_pulay        10
      charge_mix_param   0.2
    sc_accuracy_rho    1E-5
    sc_accuracy_eev    1E-3
    sc_accuracy_etot   1E-6
    sc_accuracy_forces 1E-4
    sc_iter_limit      100
  #
  #  Relaxation
  #
  #  relax_geometry   bfgs 1.e-3
  #
  ################################################################################
  #
  #  FHI-aims code project
  #  VB, Fritz-Haber Institut, 2009
  #
  #  Suggested "light" defaults for H atom (to be pasted into control.in file)
  #  Be sure to double-check any results obtained with these settings for post-processing,
  #  e.g., with the "tight" defaults and larger basis sets.
  #
  ################################################################################
    species        H
  #     global species definitions
      nucleus             1
      mass                1.00794
  #
      l_hartree           4
  #
      cut_pot             3.5  1.5  1.0
      basis_dep_cutoff    1e-4
  #
      radial_base         24 5.0
      radial_multiplier   1
      angular_grids       specified
        division   0.2421   50
        division   0.3822  110
        division   0.4799  194
        division   0.5341  302
  #      division   0.5626  434
  #      division   0.5922  590
  #      division   0.6542  770
  #      division   0.6868 1202
  #      outer_grid  770
        outer_grid  302
  ################################################################################
  #
  #  Definition of "minimal" basis
  #
  ################################################################################
  #     valence basis states
      valence      1  s   1.
  #     ion occupancy
      ion_occ      1  s   0.5
  ################################################################################
  #
  #  Suggested additional basis functions. For production calculations,
  #  uncomment them one after another (the most important basis functions are
  #  listed first).
  #
  #  Basis constructed for dimers: 0.5 A, 0.7 A, 1.0 A, 1.5 A, 2.5 A
  #
  ################################################################################
  #  "First tier" - improvements: -1014.90 meV to -62.69 meV
       hydro 2 s 2.1
       hydro 2 p 3.5
  #  "Second tier" - improvements: -12.89 meV to -1.83 meV
  #     hydro 1 s 0.85
  #     hydro 2 p 3.7
  #     hydro 2 s 1.2
  #     hydro 3 d 7
  #  "Third tier" - improvements: -0.25 meV to -0.12 meV
  #     hydro 4 f 11.2
  #     hydro 3 p 4.8
  #     hydro 4 d 9
  #     hydro 3 s 3.2
  ################################################################################
  #
  #  FHI-aims code project
  #  VB, Fritz-Haber Institut, 2009
  #
  #  Suggested "light" defaults for C atom (to be pasted into control.in file)
  #  Be sure to double-check any results obtained with these settings for post-processing,
  #  e.g., with the "tight" defaults and larger basis sets.
  #
  ################################################################################
    species        C
  #     global species definitions
      nucleus             6
      mass                12.0107
  #
      l_hartree           4
  #
      cut_pot             3.5  1.5  1.0
      basis_dep_cutoff    1e-4
  #
      radial_base         34 5.0
      radial_multiplier   1
      angular_grids specified
        division   0.3326   50
        division   0.5710  110
        division   0.7727  194
        division   0.8772  302
  #      division   0.9334  434
  #      division   0.9625  590
  #      division   0.9924  770
  #      division   1.0230  974
  #      division   1.4589 1202
  #     outer_grid  974
       outer_grid 302
  ################################################################################
  #
  #  Definition of "minimal" basis
  #
  ################################################################################
  #     valence basis states
      valence      2  s   2.
      valence      2  p   2.
  #     ion occupancy
      ion_occ      2  s   1.
      ion_occ      2  p   1.
  ################################################################################
  #
  #  Suggested additional basis functions. For production calculations,
  #  uncomment them one after another (the most important basis functions are
  #  listed first).
  #
  #  Constructed for dimers: 1.0 A, 1.25 A, 1.5 A, 2.0 A, 3.0 A
  #
  ################################################################################
  #  "First tier" - improvements: -1214.57 meV to -155.61 meV
       hydro 2 p 1.7
       hydro 3 d 6
       hydro 2 s 4.9
  #  "Second tier" - improvements: -67.75 meV to -5.23 meV
  #     hydro 4 f 9.8
  #     hydro 3 p 5.2
  #     hydro 3 s 4.3
  #     hydro 5 g 14.4
  #     hydro 3 d 6.2
  #  "Third tier" - improvements: -2.43 meV to -0.60 meV
  #     hydro 2 p 5.6
  #     hydro 2 s 1.4
  #     hydro 3 d 4.9
  #     hydro 4 f 11.2
  #  "Fourth tier" - improvements: -0.39 meV to -0.18 meV
  #     hydro 2 p 2.1
  #     hydro 5 g 16.4
  #     hydro 4 d 13.2
  #     hydro 3 s 13.6
  #     hydro 4 f 17.6
  #  Further basis functions - improvements: -0.08 meV and below
  #     hydro 3 s 2
  #     hydro 3 p 6
  #     hydro 4 d 20
  ################################################################################
  #
  #  FHI-aims code project
  #  VB, Fritz-Haber Institut, 2009
  #
  #  Suggested "light" defaults for N atom (to be pasted into control.in file)
  #  Be sure to double-check any results obtained with these settings for post-processing,
  #  e.g., with the "tight" defaults and larger basis sets.
  #
  ################################################################################
    species        N
  #     global species definitions
      nucleus             7
      mass                14.0067
  #
      l_hartree           4
  #
      cut_pot             3.5  1.5  1.0
      basis_dep_cutoff    1e-4
  #
      radial_base         35 5.0
      radial_multiplier   1
      angular_grids       specified
        division   0.2599   50
        division   0.4601  110
        division   0.5885  194
        division   0.6503  302
  #      division   0.6939  434
  #      division   0.7396  590
  #      division   0.7632  770
  #      division   0.8122  974
  #      division   1.1604 1202
  #      outer_grid  974
        outer_grid  302
  ################################################################################
  #
  #  Definition of "minimal" basis
  #
  ################################################################################
  #     valence basis states
      valence      2  s   2.
      valence      2  p   3.
  #     ion occupancy
      ion_occ      2  s   1.
      ion_occ      2  p   2.
  ################################################################################
  #
  #  Suggested additional basis functions. For production calculations,
  #  uncomment them one after another (the most important basis functions are
  #  listed first).
  #
  #  Constructed for dimers: 1.0 A, 1.1 A, 1.5 A, 2.0 A, 3.0 A
  #
  ################################################################################
  #  "First tier" - improvements: -1193.42 meV to -220.60 meV
       hydro 2 p 1.8
       hydro 3 d 6.8
       hydro 3 s 5.8
  #  "Second tier" - improvements: -80.21 meV to -6.86 meV
  #     hydro 4 f 10.8
  #     hydro 3 p 5.8
  #     hydro 1 s 0.8
  #     hydro 5 g 16
  #     hydro 3 d 4.9
  #  "Third tier" - improvements: -4.29 meV to -0.53 meV
  #     hydro 3 s 16
  #     ionic 2 p auto
  #     hydro 3 d 6.6
  #     hydro 4 f 11.6
  #  "Fourth tier" - improvements: -0.75 meV to -0.25 meV
  #     hydro 2 p 4.5
  #     hydro 2 s 2.4
  #     hydro 5 g 14.4
  #     hydro 4 d 14.4
  #     hydro 4 f 16.8
  # Further basis functions - -0.21 meV and below
  #     hydro 3 p 14.8
  #     hydro 3 s 4.4
  #     hydro 3 d 19.6
  #     hydro 5 g 12.8
  ################################################################################
  #
  #  FHI-aims code project
  #  VB, Fritz-Haber Institut, 2009
  #
  #  Suggested "light" defaults for O atom (to be pasted into control.in file)
  #  Be sure to double-check any results obtained with these settings for post-processing,
  #  e.g., with the "tight" defaults and larger basis sets.
  #
  ################################################################################
    species        O
  #     global species definitions
      nucleus             8
      mass                15.9994
  #
      l_hartree           4
  #
      cut_pot             3.5  1.5  1.0
      basis_dep_cutoff    1e-4
  #
      radial_base         36 5.0
      radial_multiplier   1
       angular_grids specified
        division   0.2659   50
        division   0.4451  110
        division   0.6052  194
        division   0.7543  302
  #      division   0.8014  434
  #      division   0.8507  590
  #      division   0.8762  770
  #      division   0.9023  974
  #      division   1.2339 1202
  #      outer_grid 974
        outer_grid 302
  ################################################################################
  #
  #  Definition of "minimal" basis
  #
  ################################################################################
  #     valence basis states
      valence      2  s   2.
      valence      2  p   4.
  #     ion occupancy
      ion_occ      2  s   1.
      ion_occ      2  p   3.
  ################################################################################
  #
  #  Suggested additional basis functions. For production calculations,
  #  uncomment them one after another (the most important basis functions are
  #  listed first).
  #
  #  Constructed for dimers: 1.0 A, 1.208 A, 1.5 A, 2.0 A, 3.0 A
  #
  ################################################################################
  #  "First tier" - improvements: -699.05 meV to -159.38 meV
       hydro 2 p 1.8
       hydro 3 d 7.6
       hydro 3 s 6.4
  #  "Second tier" - improvements: -49.91 meV to -5.39 meV
  #     hydro 4 f 11.6
  #     hydro 3 p 6.2
  #     hydro 3 d 5.6
  #     hydro 5 g 17.6
  #     hydro 1 s 0.75
  #  "Third tier" - improvements: -2.83 meV to -0.50 meV
  #     ionic 2 p auto
  #     hydro 4 f 10.8
  #     hydro 4 d 4.7
  #     hydro 2 s 6.8
  #  "Fourth tier" - improvements: -0.40 meV to -0.12 meV
  #     hydro 3 p 5
  #     hydro 3 s 3.3
  #     hydro 5 g 15.6
  #     hydro 4 f 17.6
  #     hydro 4 d 14
  # Further basis functions - -0.08 meV and below
  #     hydro 3 s 2.1
  #     hydro 4 d 11.6
  #     hydro 3 p 16
  #     hydro 2 s 17.2
  
  -----------------------------------------------------------------------
  Completed first pass over input file control.in .
  -----------------------------------------------------------------------
  
  
  -----------------------------------------------------------------------
  Parsing geometry.in (first pass over file, find array dimensions only).
  The contents of geometry.in will be repeated verbatim below
  unless switched off by setting 'verbatim_writeout .false.' .
  in the first line of geometry.in .
  -----------------------------------------------------------------------
  
  atom  0.00000 0.00000 0.00000 C
  atom  1.09300 0.00000 0.00000 H
  atom  -0.47961 0.00000 -1.41207 N
  atom  -0.70870 0.95798 -1.67970 H
  atom  0.26026 -0.36458 -2.00856 H
  atom  -0.49584 1.26211 0.72868 C
  atom  -1.58789 1.28919 0.74431 H
  atom  -0.13407 1.27425 1.75947 H
  atom  -0.13407 2.16087 0.22380 H
  atom  -0.39425 -1.28861 0.74398 C
  atom  -0.10189 -1.56493 1.88303 O
  atom  -1.10210 -2.13717 0.06896 O
  atom  -1.36031 -2.72125 0.80188 H
  
  -----------------------------------------------------------------------
  Completed first pass over input file geometry.in .
  -----------------------------------------------------------------------
  

  Basic array size parameters:
  | Number of species                 :        4
  | Number of atoms                   :       13
  | Max. basis fn. angular momentum   :        2
  | Max. atomic/ionic basis occupied n:        2
  | Max. number of basis fn. types    :        2
  | Max. radial fns per species/type  :        3
  | Max. logarithmic grid size        :     1301
  | Max. radial integration grid size :       36
  | Max. angular integration grid size:      302
  | Max. angular grid division number :        8
  | Radial grid for Hartree potential :     1301
  | Number of spin channels           :        1

------------------------------------------------------------
          Reading file control.in.
------------------------------------------------------------
  XC: Using PBE gradient-corrected functionals.
  Spin treatment: No spin polarisation.
  Non-relativistic treatment of kinetic energy.
  Charge =   0.000000E+00: Neutral system requested explicitly.
  Occupation type: Gaussian broadening, width =   0.100000E-01 eV.
  Using pulay charge density mixing.
  Pulay mixing - number of memorized iterations:   10
  Charge density mixing - mixing parameter:     0.2000
  Convergence accuracy of self-consistent charge density:  0.1000E-04
  Convergence accuracy of sum of eigenvalues:  0.1000E-02
  Convergence accuracy of total energy:  0.1000E-05
  Convergence accuracy of forces:  0.1000E-03
  Maximum number of s.-c. iterations  :   100
 
  Reading configuration options for species H                   .
  | Found nuclear charge :   1.0000
  | Found atomic mass :    1.00794000000000      amu
  | Found l_max for Hartree potential  :   4
  | Found cutoff potl. onset [A], width [A], scale factor :    3.50000    1.50000    1.00000
  | Threshold for basis-dependent cutoff potential is   0.100000E-03
  | Found data for basic radial integration grid :    24 points, outermost radius =    5.000 A
  | Found multiplier for basic radial grid :   1
  | Found angular grid specification: user-specified.
  | Specified grid contains     5 separate shells.
  | Check grid settings after all constraints further below.
  | Found free-atom valence shell :  1 s   1.000
  | No ionic wave fns used. Skipping ion_occ.
  | Found hydrogenic basis function :  2 s   2.100
  | Found hydrogenic basis function :  2 p   3.500
  Species H                   : Missing cutoff potential type.
  Defaulting to exp(1/x)/(1-x)^2 type cutoff potential.
  Species H : No 'logarithmic' tag. Using default grid for free atom:
  | Default logarithmic grid data [bohr] : 0.1000E-03 0.1000E+03 0.1012E+01
  Species H : On-site basis accuracy parameter (for Gram-Schmidt orthonormalisation) not specified.
  Using default value basis_acc =  0.1000000E-03.
  Species H                   : Using default innermost maximum threshold i_radial=  2 for radial functions.
  Species H                   : Default cutoff onset for free atom density etc. : 0.35000000E+01 AA.
  Species H                   : Basic radial grid will be enhanced according to radial_multiplier =   1, to contain    24 grid points.
 
  Reading configuration options for species C                   .
  | Found nuclear charge :   6.0000
  | Found atomic mass :    12.0107000000000      amu
  | Found l_max for Hartree potential  :   4
  | Found cutoff potl. onset [A], width [A], scale factor :    3.50000    1.50000    1.00000
  | Threshold for basis-dependent cutoff potential is   0.100000E-03
  | Found data for basic radial integration grid :    34 points, outermost radius =    5.000 A
  | Found multiplier for basic radial grid :   1
  | Found angular grid specification: user-specified.
  | Specified grid contains     5 separate shells.
  | Check grid settings after all constraints further below.
  | Found free-atom valence shell :  2 s   2.000
  | Found free-atom valence shell :  2 p   2.000
  | No ionic wave fns used. Skipping ion_occ.
  | No ionic wave fns used. Skipping ion_occ.
  | Found hydrogenic basis function :  2 p   1.700
  | Found hydrogenic basis function :  3 d   6.000
  | Found hydrogenic basis function :  2 s   4.900
  Species C                   : Missing cutoff potential type.
  Defaulting to exp(1/x)/(1-x)^2 type cutoff potential.
  Species C : No 'logarithmic' tag. Using default grid for free atom:
  | Default logarithmic grid data [bohr] : 0.1000E-03 0.1000E+03 0.1012E+01
  Species C : On-site basis accuracy parameter (for Gram-Schmidt orthonormalisation) not specified.
  Using default value basis_acc =  0.1000000E-03.
  Species C                   : Using default innermost maximum threshold i_radial=  2 for radial functions.
  Species C                   : Default cutoff onset for free atom density etc. : 0.35000000E+01 AA.
  Species C                   : Basic radial grid will be enhanced according to radial_multiplier =   1, to contain    34 grid points.
 
  Reading configuration options for species N                   .
  | Found nuclear charge :   7.0000
  | Found atomic mass :    14.0067000000000      amu
  | Found l_max for Hartree potential  :   4
  | Found cutoff potl. onset [A], width [A], scale factor :    3.50000    1.50000    1.00000
  | Threshold for basis-dependent cutoff potential is   0.100000E-03
  | Found data for basic radial integration grid :    35 points, outermost radius =    5.000 A
  | Found multiplier for basic radial grid :   1
  | Found angular grid specification: user-specified.
  | Specified grid contains     5 separate shells.
  | Check grid settings after all constraints further below.
  | Found free-atom valence shell :  2 s   2.000
  | Found free-atom valence shell :  2 p   3.000
  | No ionic wave fns used. Skipping ion_occ.
  | No ionic wave fns used. Skipping ion_occ.
  | Found hydrogenic basis function :  2 p   1.800
  | Found hydrogenic basis function :  3 d   6.800
  | Found hydrogenic basis function :  3 s   5.800
  Species N                   : Missing cutoff potential type.
  Defaulting to exp(1/x)/(1-x)^2 type cutoff potential.
  Species N : No 'logarithmic' tag. Using default grid for free atom:
  | Default logarithmic grid data [bohr] : 0.1000E-03 0.1000E+03 0.1012E+01
  Species N : On-site basis accuracy parameter (for Gram-Schmidt orthonormalisation) not specified.
  Using default value basis_acc =  0.1000000E-03.
  Species N                   : Using default innermost maximum threshold i_radial=  2 for radial functions.
  Species N                   : Default cutoff onset for free atom density etc. : 0.35000000E+01 AA.
  Species N                   : Basic radial grid will be enhanced according to radial_multiplier =   1, to contain    35 grid points.
 
  Reading configuration options for species O                   .
  | Found nuclear charge :   8.0000
  | Found atomic mass :    15.9994000000000      amu
  | Found l_max for Hartree potential  :   4
  | Found cutoff potl. onset [A], width [A], scale factor :    3.50000    1.50000    1.00000
  | Threshold for basis-dependent cutoff potential is   0.100000E-03
  | Found data for basic radial integration grid :    36 points, outermost radius =    5.000 A
  | Found multiplier for basic radial grid :   1
  | Found angular grid specification: user-specified.
  | Specified grid contains     5 separate shells.
  | Check grid settings after all constraints further below.
  | Found free-atom valence shell :  2 s   2.000
  | Found free-atom valence shell :  2 p   4.000
  | No ionic wave fns used. Skipping ion_occ.
  | No ionic wave fns used. Skipping ion_occ.
  | Found hydrogenic basis function :  2 p   1.800
  | Found hydrogenic basis function :  3 d   7.600
  | Found hydrogenic basis function :  3 s   6.400
  Species O                   : Missing cutoff potential type.
  Defaulting to exp(1/x)/(1-x)^2 type cutoff potential.
  Species O : No 'logarithmic' tag. Using default grid for free atom:
  | Default logarithmic grid data [bohr] : 0.1000E-03 0.1000E+03 0.1012E+01
  Species O : On-site basis accuracy parameter (for Gram-Schmidt orthonormalisation) not specified.
  Using default value basis_acc =  0.1000000E-03.
  Species O                   : Using default innermost maximum threshold i_radial=  2 for radial functions.
  Species O                   : Default cutoff onset for free atom density etc. : 0.35000000E+01 AA.
  Species O                   : Basic radial grid will be enhanced according to radial_multiplier =   1, to contain    36 grid points.
 
  Finished reading input file 'control.in'. Consistency checks are next.
 
  MPI_IN_PLACE appears to work with this MPI implementation.
  | Keeping use_mpi_in_place .true. (see manual).
  Target number of points in a grid batch is not set. Defaulting to  100
  Method for grid partitioning is not set. Defaulting to parallel hash+maxmin partitioning.
  Batch size limit is not set. Defaulting to    200
  By default, will store active basis functions for each batch.
  If in need of memory, prune_basis_once .false. can be used to disable this option.
  communication_type for Hartree potential was not specified.
  Defaulting to calc_hartree .
  Pulay mixer: Number of initial linear mixing iterations not set.
  Defaulting to    0 iterations.
  Work space size for distributed Hartree potential not set.
  Defaulting to   0.200000E+03 MB.
  Algorithm-dependent basis array size parameters:
  | n_max_pulay                         :       10
  Presetting      1001 iterations before the initial mixing cycle
  is restarted anyway using the sc_init_iter criterion / keyword.
  Presetting a factor      1.000 between actual scf density residual
  and density convergence criterion sc_accuracy_rho below which sc_init_iter
  takes no effect.
  Geometry relaxation not requested: no relaxation will be performed.
  Handling of forces: Unphysical translation and rotation will be removed from forces.
  No accuracy limit for integral partition fn. given. Defaulting to  0.1000E-14.
  No threshold value for u(r) in integrations given. Defaulting to  0.1000E-05.
  No accuracy for occupation numbers given. Defaulting to  0.1000E-12.
  No threshold value for occupation numbers given. Defaulting to  0.0000E+00.
  No accuracy for fermi level given. Defaulting to  0.1000E-19.
  Maximum # of iterations to find E_F not set. Defaulting to  200.
  Preferred method for the eigenvalue solver ('KS_method') not specified in 'control.in'.
  Defaulting to serial version, 'lapack_fast'.
  Will not use alltoall communication since running on < 1024 CPUs.
  Threshold for basis singularities not set.
  Default threshold for basis singularities:  0.1000E-04
  partition_type (choice of integration weights) for integrals was not specified.
  | Using a version of the partition function of Stratmann and coworkers ('stratmann_smoother').
  | At each grid point, the set of atoms used to build the partition table is smoothly restricted to
  | only those atoms whose free-atom density would be non-zero at that grid point.
  Partitioning for Hartree potential was not defined. Using partition_type for integrals.
  | Adjusted default value of keyword multip_moments_threshold to:       0.10000000E-11
  | This value may affect high angular momentum components of the Hartree potential in periodic systems.
  No q(lm)/r^(l+1) cutoff set for long-range Hartree potential.
  | Using default value of  0.100000E-09 .
  | Verify using the multipole_threshold keyword.
  Defaulting to new monopole extrapolation.
  Density update method: automatic selection selected.
------------------------------------------------------------


------------------------------------------------------------
          Reading geometry description geometry.in.
------------------------------------------------------------
  Input structure read successfully.
  The structure contains       13 atoms,  and a total of         48.000 electrons.

  Input geometry:
  | No unit cell requested.
  | Atomic structure:
  |       Atom                x [A]            y [A]            z [A]
  |    1: Species C             0.00000000        0.00000000        0.00000000
  |    2: Species H             1.09300000        0.00000000        0.00000000
  |    3: Species N            -0.47961000        0.00000000       -1.41207000
  |    4: Species H            -0.70870000        0.95798000       -1.67970000
  |    5: Species H             0.26026000       -0.36458000       -2.00856000
  |    6: Species C            -0.49584000        1.26211000        0.72868000
  |    7: Species H            -1.58789000        1.28919000        0.74431000
  |    8: Species H            -0.13407000        1.27425000        1.75947000
  |    9: Species H            -0.13407000        2.16087000        0.22380000
  |   10: Species C            -0.39425000       -1.28861000        0.74398000
  |   11: Species O            -0.10189000       -1.56493000        1.88303000
  |   12: Species O            -1.10210000       -2.13717000        0.06896000
  |   13: Species H            -1.36031000       -2.72125000        0.80188000
  |

  | The smallest distance between any two atoms is         0.97210780 AA.
  |
  | The first atom of this pair is atom number                     12 .
  | The second atom of this pair is atom number                    13 .

  Number of empty states per atom not set in control.in - providing a guess from actual geometry.
  | Total number of empty states used during s.c.f. cycle:       29
  If you use a very high smearing, use empty_states (per atom!) in control.in to increase this value.

  Structure-dependent array size parameters: 
  | Maximum number of distinct radial functions  :       21
  | Maximum number of basis functions            :      119
  | Number of Kohn-Sham states (occupied + empty):       53
------------------------------------------------------------

------------------------------------------------------------
          Preparing all fixed parts of the calculation.
------------------------------------------------------------
  Determining machine precision:
    2.225073858507201E-308
  Setting up grids for atomic and cluster calculations.

  Creating wave function, potential, and density for free atoms.

  Species: H

  List of occupied orbitals and eigenvalues:
    n    l              occ      energy [Ha]    energy [eV]
    1    0           1.0000        -0.237589        -6.4651


  Species: C

  List of occupied orbitals and eigenvalues:
    n    l              occ      energy [Ha]    energy [eV]
    1    0           2.0000       -10.038835      -273.1706
    2    0           2.0000        -0.502696       -13.6791
    2    1           2.0000        -0.191971        -5.2238


  Species: N

  List of occupied orbitals and eigenvalues:
    n    l              occ      energy [Ha]    energy [eV]
    1    0           2.0000       -14.128000      -384.4424
    2    0           2.0000        -0.681077       -18.5330
    2    1           3.0000        -0.259788        -7.0692


  Species: O

  List of occupied orbitals and eigenvalues:
    n    l              occ      energy [Ha]    energy [eV]
    1    0           2.0000       -18.898188      -514.2459
    2    0           2.0000        -0.878505       -23.9053
    2    1           4.0000        -0.331779        -9.0282

  Creating fixed part of basis set: Ionic, confined, hydrogenic.
 
  H                    hydrogenic:
 
  List of hydrogenic basis orbitals: 
    n    l      effective z      eigenvalue [eV]  inner max. [A]     outer max. [A]     outer radius [A]   
    2    0         2.100000       -14.9728           0.193243           1.317208           4.583499
    2    1         3.500000       -41.6669           0.602369           0.602369           3.723403
 
 
  C                    hydrogenic:
 
  List of hydrogenic basis orbitals: 
    n    l      effective z      eigenvalue [eV]  inner max. [A]     outer max. [A]     outer radius [A]   
    2    1         1.700000        -9.7616           1.230570           1.230570           4.607917
    3    2         6.000000       -54.4224           0.792453           0.792453           3.883070
    2    0         4.900000       -81.6679           0.082559           0.562749           3.078220
 
 
  N                    hydrogenic:
 
  List of hydrogenic basis orbitals: 
    n    l      effective z      eigenvalue [eV]  inner max. [A]     outer max. [A]     outer radius [A]   
    2    1         1.800000       -10.9749           1.177451           1.177451           4.573712
    3    2         6.800000       -69.9026           0.704619           0.704619           3.538137
    3    0         5.800000       -50.8545           0.067388           1.191934           4.250239
 
 
  O                    hydrogenic:
 
  List of hydrogenic basis orbitals: 
    n    l      effective z      eigenvalue [eV]  inner max. [A]     outer max. [A]     outer radius [A]   
    2    1         1.800000       -10.9749           1.164242           1.164242           4.578029
    3    2         7.600000       -87.3180           0.624125           0.624125           3.251020
    3    0         6.400000       -61.9207           0.061167           1.081902           4.001998
 

  Adding cutoff potential to free-atom effective potential.
  Creating atomic-like basis functions for current effective potential.

  Species H                   :

  List of atomic basis orbitals and eigenvalues:
    n    l      energy [Ha]    energy [eV]    outer radius [A]
    1    0        -0.237589        -6.4651       4.527807


  Species C                   :

  List of atomic basis orbitals and eigenvalues:
    n    l      energy [Ha]    energy [eV]    outer radius [A]
    1    0       -10.038835      -273.1706       1.934409
    2    0        -0.502696       -13.6791       4.496620
    2    1        -0.191971        -5.2238       4.551928


  Species N                   :

  List of atomic basis orbitals and eigenvalues:
    n    l      energy [Ha]    energy [eV]    outer radius [A]
    1    0       -14.128000      -384.4424       1.637919
    2    0        -0.681077       -18.5330       4.463241
    2    1        -0.259788        -7.0692       4.518138


  Species O                   :

  List of atomic basis orbitals and eigenvalues:
    n    l      energy [Ha]    energy [eV]    outer radius [A]
    1    0       -18.898188      -514.2459       1.415765
    2    0        -0.878505       -23.9053       4.413171
    2    1        -0.331779        -9.0282       4.522403

  Assembling full basis from fixed parts.
  | Species H :   atomic orbital   1 s accepted.
  | Species H :    hydro orbital   2 s accepted.
  | Species H :    hydro orbital   2 p accepted.
  | Species C :   atomic orbital   1 s accepted.
  | Species C :    hydro orbital   2 s accepted.
  | Species C :   atomic orbital   2 s accepted.
  | Species C :   atomic orbital   2 p accepted.
  | Species C :    hydro orbital   2 p accepted.
  | Species C :    hydro orbital   3 d accepted.
  | Species N :   atomic orbital   1 s accepted.
  | Species N :    hydro orbital   3 s accepted.
  | Species N :   atomic orbital   2 s accepted.
  | Species N :   atomic orbital   2 p accepted.
  | Species N :    hydro orbital   2 p accepted.
  | Species N :    hydro orbital   3 d accepted.
  | Species O :   atomic orbital   1 s accepted.
  | Species O :    hydro orbital   3 s accepted.
  | Species O :   atomic orbital   2 s accepted.
  | Species O :   atomic orbital   2 p accepted.
  | Species O :    hydro orbital   2 p accepted.
  | Species O :    hydro orbital   3 d accepted.
 
  Basis size parameters after reduction:
  | Total number of radial functions:       21
  | Total number of basis functions :      119
 
  Per-task memory consumption for arrays in subroutine allocate_ext:
  |           5.250512MB.
  Testing on-site integration grid accuracy.
  |  Species  Function  <phi|h_atom|phi> (log., in eV)  <phi|h_atom|phi> (rad., in eV)
           1        1                 -6.4663192853                 -6.4651273558
           1        2                 13.7111246313                 13.7170609718
           1        3                 25.2673269279                 25.2674696378
           2        4               -273.1705927641               -273.1705631568
           2        5                -10.7109323383                -10.7107120029
           2        6                 17.4381822266                 17.4352413244
           2        7                 -5.2255326521                 -5.2270484734
           2        8                  8.6835629259                  8.6603288385
           2        9                 27.4952418996                 27.4953360207
           3       10               -384.4424306495               -384.4423701208
           3       11                 12.5842251816                 12.5842222903
           3       12                -15.7264628251                -15.7264433455
           3       13                 -7.0696854293                 -7.0701769954
           3       14                  8.8090390882                  8.7901077751
           3       15                 35.9586762123                 35.9588528632
           4       16               -514.2458688638               -514.2457643834
           4       17                 15.1795651126                 15.1795290741
           4       18                -21.5359799773                -21.5360846186
           4       19                 -9.0283069236                 -9.0284644067
           4       20                  8.3027758564                  8.2834874195
           4       21                 45.8339351984                 45.8338762259

  Preparing densities etc. for the partition functions (integrals / Hartree potential).

  Preparations completed.
  max(cpu_time)          :      0.146 s.
  Wall clock time (cpu1) :      0.147 s.
------------------------------------------------------------

------------------------------------------------------------
          Begin self-consistency loop: Initialization.

          Date     :  20200710, Time     :  145158.419
------------------------------------------------------------

  Initializing index lists of integration centers etc. from given atomic structure:
  | Number of centers in hartree potential         :        13
  | Number of centers in hartree multipole         :        13
  | Number of centers in electron density summation:        13
  | Number of centers in basis integrals           :        13
  | Number of centers in integrals                 :        13
  | Number of centers in hamiltonian               :        13
  Partitioning the integration grid into batches with parallel hashing+maxmin method.
  | Number of batches:      952
  | Maximal batch size:     139
  | Minimal batch size:      66
  | Average batch size:      73.158
  | Standard deviation of batch sizes:      18.036

  Integration load balanced across     1 MPI tasks.
  Work distribution over tasks is as follows:
  Task     0 has      69646 integration points.
  Initializing partition tables, free-atom densities, potentials, etc. across the integration grid (initialize_grid_storage).
  | initialize_grid_storage: Actual outermost partition radius vs. multipole_radius_free
  | (-- VB: in principle, multipole_radius_free should be larger, hence this output)
  | Species        1: Confinement radius =              4.999999999999999 AA, multipole_radius_free =              5.054417573612229 AA.
  | Species        1: outer_partition_radius set to              5.054417573612229 AA .
  | Species        2: Confinement radius =              4.999999999999999 AA, multipole_radius_free =              5.019602836301480 AA.
  | Species        2: outer_partition_radius set to              5.019602836301480 AA .
  | Species        3: Confinement radius =              4.999999999999999 AA, multipole_radius_free =              5.043624274424571 AA.
  | Species        3: outer_partition_radius set to              5.043624274424571 AA .
  | Species        4: Confinement radius =              4.999999999999999 AA, multipole_radius_free =              5.048384829883283 AA.
  | Species        4: outer_partition_radius set to              5.048384829883283 AA .
  | Original list of interatomic distances with          13 x         13 entries is created.
  | Net number of integration points:    69646
  | of which are non-zero points    :    59654
  Renormalizing the initial density to the exact electron count on the 3D integration grid.
  | Initial density: Formal number of electrons (from input files) :      48.0000000000
  | Integrated number of electrons on 3D grid     :      47.9999156002
  | Charge integration error                      :      -0.0000843998
  | Normalization factor for density and gradient :       1.0000017583
  Obtaining max. number of non-zero basis functions in each batch (get_n_compute_maxes).
  | Maximal number of non-zero basis functions:      119 in task     0
  Selecting the method for density update.
  Loop over occupied states selected for charge density update.
  Allocating        0.050 MB for KS_eigenvector
  Integrating Hamiltonian matrix: batch-based integration.
  Time summed over all CPUs for integration: real work        0.489 s, elapsed        0.489 s
  Integrating overlap matrix.
  Time summed over all CPUs for integration: real work        0.212 s, elapsed        0.212 s

  Updating Kohn-Sham eigenvalues and eigenvectors using ELSI and the ELPA eigensolver.
  Overlap matrix is nonsingular
  | Lowest eigenvalue of overlap  :  0.46E-02
  | Highest eigenvalue of overlap :  0.61E+01
  Finished singularity check of overlap matrix
  | Time :     0.002 s
  Finished Cholesky decomposition
  | Time :     0.000 s
  Finished transformation to standard eigenproblem
  | Time :     0.000 s
  Starting LAPACK eigensolver
  Finished solving standard eigenproblem
  | Time :     0.002 s
  Finished back-transformation of eigenvectors
  | Time :     0.000 s

  Obtaining occupation numbers and chemical potential using ELSI.
  | Chemical potential (Fermi level):    -9.88109721eV
  Writing Kohn-Sham eigenvalues.

  State    Occupation    Eigenvalue [Ha]    Eigenvalue [eV]
      1       2.00000         -19.007499         -517.22035
      2       2.00000         -18.978325         -516.42650
      3       2.00000         -14.245788         -387.64761
      4       2.00000         -10.166853         -276.65414
      5       2.00000         -10.141236         -275.95708
      6       2.00000         -10.131897         -275.70294
      7       2.00000          -1.187989          -32.32681
      8       2.00000          -1.092815          -29.73700
      9       2.00000          -0.991935          -26.99192
     10       2.00000          -0.860138          -23.40554
     11       2.00000          -0.764052          -20.79091
     12       2.00000          -0.675997          -18.39481
     13       2.00000          -0.620139          -16.87483
     14       2.00000          -0.601012          -16.35436
     15       2.00000          -0.593600          -16.15267
     16       2.00000          -0.574650          -15.63701
     17       2.00000          -0.547159          -14.88895
     18       2.00000          -0.523270          -14.23889
     19       2.00000          -0.515902          -14.03841
     20       2.00000          -0.500507          -13.61948
     21       2.00000          -0.480013          -13.06182
     22       2.00000          -0.428015          -11.64687
     23       2.00000          -0.414500          -11.27912
     24       2.00000          -0.380610          -10.35691
     25       0.00000          -0.149030           -4.05531
     26       0.00000          -0.060211           -1.63842
     27       0.00000          -0.028303           -0.77017
     28       0.00000          -0.020925           -0.56941
     29       0.00000          -0.004502           -0.12252
     30       0.00000           0.007268            0.19778
     31       0.00000           0.020965            0.57050
     32       0.00000           0.026866            0.73105
     33       0.00000           0.036793            1.00119
     34       0.00000           0.081397            2.21493
     35       0.00000           0.090219            2.45500
     36       0.00000           0.135077            3.67564
     37       0.00000           0.146502            3.98652
     38       0.00000           0.194581            5.29483
     39       0.00000           0.210467            5.72710
     40       0.00000           0.239800            6.52530
     41       0.00000           0.243198            6.61777
     42       0.00000           0.270125            7.35049
     43       0.00000           0.298430            8.12068
     44       0.00000           0.305630            8.31662
     45       0.00000           0.340773            9.27291
     46       0.00000           0.354214            9.63866
     47       0.00000           0.381062           10.36921
     48       0.00000           0.406423           11.05932
     49       0.00000           0.460803           12.53909
     50       0.00000           0.477859           13.00322
     51       0.00000           0.499006           13.57865
     52       0.00000           0.513597           13.97569
     53       0.00000           0.553813           15.07001

  Highest occupied state (VBM) at    -10.35691268 eV
  | Occupation number:      2.00000000

  Lowest unoccupied state (CBM) at    -4.05531361 eV
  | Occupation number:      0.00000000

  Overall HOMO-LUMO gap:      6.30159908 eV.
  Calculating total energy contributions from superposition of free atom densities.

  Total energy components:
  | Sum of eigenvalues            :        -188.84779147 Ha       -5138.80986563 eV
  | XC energy correction          :         -41.78597852 Ha       -1137.05432823 eV
  | XC potential correction       :          53.71607743 Ha        1461.68883683 eV
  | Free-atom electrostatic energy:        -146.85504279 Ha       -3996.12903503 eV
  | Hartree energy correction     :           0.00000000 Ha           0.00000000 eV
  | vdW energy correction         :           0.00000000 Ha           0.00000000 eV
  | Entropy correction            :           0.00000000 Ha           0.00000000 eV
  | ---------------------------
  | Total energy                  :        -323.77273534 Ha       -8810.30439207 eV
  | Total energy, T -> 0          :        -323.77273534 Ha       -8810.30439207 eV  <-- do not rely on this value for anything but (periodic) metals
  | Electronic free energy        :        -323.77273534 Ha       -8810.30439207 eV

  Derived energy quantities:
  | Kinetic energy                :         320.47902817 Ha        8720.67805959 eV
  | Electrostatic energy          :        -602.46578499 Ha      -16393.92812342 eV
  | Energy correction for multipole
  | error in Hartree potential    :           0.00000000 Ha           0.00000000 eV
  | Sum of eigenvalues per atom                           :        -395.29306659 eV
  | Total energy (T->0) per atom                          :        -677.71572247 eV  <-- do not rely on this value for anything but (periodic) metals
  | Electronic free energy per atom                       :        -677.71572247 eV
  Initialize hartree_potential_storage
  Max. number of atoms included in rho_multipole:           13

  End scf initialization - timings             :  max(cpu_time)    wall_clock(cpu1)
  | Time for scf. initialization               :        1.144 s           1.146 s
  | Boundary condition initialization          :        0.000 s           0.000 s
  | Integration                                :        0.701 s           0.701 s
  | Solution of K.-S. eqns.                    :        0.004 s           0.005 s
  | Grid partitioning                          :        0.111 s           0.112 s
  | Preloading free-atom quantities on grid    :        0.002 s           0.003 s
  | Free-atom superposition energy             :        0.084 s           0.084 s
  | Total energy evaluation                    :        0.000 s           0.000 s

  Partial memory accounting:
  | Current value for overall tracked memory usage on task 0  :           0.165 MB
  | Peak value for overall tracked memory usage on task 0     :           0.678 MB after allocating wave
  | Largest tracked array allocation on task 0 so far         :           0.132 MB  when allocating H_times_psi
  Note:  These values currently only include a subset of arrays which are explicitly tracked.
  The "true" memory usage will be greater.
------------------------------------------------------------

------------------------------------------------------------
          Begin self-consistency iteration #    1

  Date     :  20200710, Time     :  145159.565
------------------------------------------------------------
  Evaluating new KS density.
  Integration grid: deviation in total charge (<rho> - N_e) =   1.421085E-14
  Pulay mixing of updated and previous charge densities.

  Evaluating partitioned Hartree potential by multipole expansion.
  | Analytical far-field extrapolation by fixed multipoles:
  | Hartree multipole sum: apparent total charge =  -0.191955E-03
  Summing up the Hartree potential.
  Time summed over all CPUs for potential: real work        0.282 s, elapsed        0.282 s
  | RMS charge density error from multipole expansion :   0.587899E-02

  Integrating Hamiltonian matrix: batch-based integration.
  Time summed over all CPUs for integration: real work        0.489 s, elapsed        0.489 s

  Updating Kohn-Sham eigenvalues and eigenvectors using ELSI and the ELPA eigensolver.
  Finished Cholesky decomposition
  | Time :     0.000 s
  Finished transformation to standard eigenproblem
  | Time :     0.000 s
  Starting LAPACK eigensolver
  Finished solving standard eigenproblem
  | Time :     0.002 s
  Finished back-transformation of eigenvectors
  | Time :     0.000 s

  Obtaining occupation numbers and chemical potential using ELSI.
  | Chemical potential (Fermi level):    -4.55296720eV
  Writing Kohn-Sham eigenvalues.

  State    Occupation    Eigenvalue [Ha]    Eigenvalue [eV]
      1       2.00000         -18.901547         -514.33726
      2       2.00000         -18.837047         -512.58214
      3       2.00000         -14.094317         -383.52587
      4       2.00000         -10.111707         -275.15355
      5       2.00000         -10.061821         -273.79608
      6       2.00000         -10.032979         -273.01124
      7       2.00000          -1.135899          -30.90937
      8       2.00000          -1.028395          -27.98404
      9       2.00000          -0.920715          -25.05393
     10       2.00000          -0.793968          -21.60496
     11       2.00000          -0.712705          -19.39369
     12       2.00000          -0.627349          -17.07102
     13       2.00000          -0.557006          -15.15690
     14       2.00000          -0.541291          -14.72927
     15       2.00000          -0.534402          -14.54181
     16       2.00000          -0.512623          -13.94918
     17       2.00000          -0.490416          -13.34490
     18       2.00000          -0.466487          -12.69377
     19       2.00000          -0.450436          -12.25697
     20       2.00000          -0.440820          -11.99532
     21       2.00000          -0.423749          -11.53080
     22       2.00000          -0.364443           -9.91699
     23       2.00000          -0.340695           -9.27078
     24       2.00000          -0.307877           -8.37777
     25       0.00000          -0.109732           -2.98595
     26       0.00000          -0.032185           -0.87580
     27       0.00000          -0.002063           -0.05613
     28       0.00000           0.015091            0.41065
     29       0.00000           0.027345            0.74411
     30       0.00000           0.045743            1.24474
     31       0.00000           0.059525            1.61975
     32       0.00000           0.068103            1.85317
     33       0.00000           0.076606            2.08456
     34       0.00000           0.122632            3.33699
     35       0.00000           0.133038            3.62015
     36       0.00000           0.163619            4.45230
     37       0.00000           0.174724            4.75448
     38       0.00000           0.223639            6.08553
     39       0.00000           0.239051            6.50491
     40       0.00000           0.275292            7.49108
     41       0.00000           0.282893            7.69792
     42       0.00000           0.303577            8.26074
     43       0.00000           0.335196            9.12114
     44       0.00000           0.348546            9.48441
     45       0.00000           0.380916           10.36526
     46       0.00000           0.396276           10.78321
     47       0.00000           0.418495           11.38783
     48       0.00000           0.443701           12.07371
     49       0.00000           0.496672           13.51513
     50       0.00000           0.515499           14.02745
     51       0.00000           0.536501           14.59894
     52       0.00000           0.549268           14.94635
     53       0.00000           0.594236           16.16997

  Highest occupied state (VBM) at     -8.37777066 eV
  | Occupation number:      2.00000000

  Lowest unoccupied state (CBM) at    -2.98594664 eV
  | Occupation number:      0.00000000

  Overall HOMO-LUMO gap:      5.39182402 eV.

  Total energy components:
  | Sum of eigenvalues            :        -185.37738373 Ha       -5044.37526636 eV
  | XC energy correction          :         -42.11478424 Ha       -1146.00158699 eV
  | XC potential correction       :          54.14376783 Ha        1473.32688474 eV
  | Free-atom electrostatic energy:        -146.85504279 Ha       -3996.12903503 eV
  | Hartree energy correction     :          -3.38951728 Ha         -92.23345802 eV
  | vdW energy correction         :           0.00000000 Ha           0.00000000 eV
  | Entropy correction            :           0.00000000 Ha           0.00000000 eV
  | ---------------------------
  | Total energy                  :        -323.59296021 Ha       -8805.41246165 eV
  | Total energy, T -> 0          :        -323.59296021 Ha       -8805.41246165 eV  <-- do not rely on this value for anything but (periodic) metals
  | Electronic free energy        :        -323.59296021 Ha       -8805.41246165 eV

  Derived energy quantities:
  | Kinetic energy                :         322.26793296 Ha        8769.35663569 eV
  | Electrostatic energy          :        -603.74610893 Ha      -16428.76751035 eV
  | Energy correction for multipole
  | error in Hartree potential    :           0.01222898 Ha           0.33276735 eV
  | Sum of eigenvalues per atom                           :        -388.02886664 eV
  | Total energy (T->0) per atom                          :        -677.33942013 eV  <-- do not rely on this value for anything but (periodic) metals
  | Electronic free energy per atom                       :        -677.33942013 eV

  Self-consistency convergence accuracy:
  | Change of charge density      :  0.5807E+00
  | Change of sum of eigenvalues  :  0.9443E+02 eV
  | Change of total energy        :  0.4892E+01 eV

  End self-consistency iteration #     1       :  max(cpu_time)    wall_clock(cpu1)
  | Time for this iteration                    :        1.180 s           1.181 s
  | Charge density update                      :        0.391 s           0.391 s
  | Density mixing                             :        0.005 s           0.006 s
  | Hartree multipole update                   :        0.009 s           0.009 s
  | Hartree multipole summation                :        0.283 s           0.283 s
  | Integration                                :        0.489 s           0.489 s
  | Solution of K.-S. eqns.                    :        0.002 s           0.002 s
  | Total energy evaluation                    :        0.000 s           0.000 s

  Partial memory accounting:
  | Current value for overall tracked memory usage on task 0  :           0.165 MB
  | Peak value for overall tracked memory usage on task 0     :           0.695 MB after allocating gradient_basis_wave
  | Largest tracked array allocation on task 0 so far         :           0.397 MB  when allocating gradient_basis_wave
  Note:  These values currently only include a subset of arrays which are explicitly tracked.
  The "true" memory usage will be greater.
------------------------------------------------------------

------------------------------------------------------------
          Begin self-consistency iteration #    2

  Date     :  20200710, Time     :  145200.748
------------------------------------------------------------
  Evaluating new KS density.
  Integration grid: deviation in total charge (<rho> - N_e) =   4.973799E-14
  Pulay mixing of updated and previous charge densities.

  Evaluating partitioned Hartree potential by multipole expansion.
  | Analytical far-field extrapolation by fixed multipoles:
  | Hartree multipole sum: apparent total charge =  -0.331038E-03
  Summing up the Hartree potential.
  Time summed over all CPUs for potential: real work        0.283 s, elapsed        0.283 s
  | RMS charge density error from multipole expansion :   0.140879E-01

  Integrating Hamiltonian matrix: batch-based integration.
  Time summed over all CPUs for integration: real work        0.495 s, elapsed        0.495 s

  Updating Kohn-Sham eigenvalues and eigenvectors using ELSI and the ELPA eigensolver.
  Finished Cholesky decomposition
  | Time :     0.000 s
  Finished transformation to standard eigenproblem
  | Time :     0.000 s
  Starting LAPACK eigensolver
  Finished solving standard eigenproblem
  | Time :     0.001 s
  Finished back-transformation of eigenvectors
  | Time :     0.000 s

  Obtaining occupation numbers and chemical potential using ELSI.
  | Chemical potential (Fermi level):    -3.16371340eV
  Highest occupied state (VBM) at     -6.34297498 eV
  | Occupation number:      2.00000000

  Lowest unoccupied state (CBM) at    -1.62899554 eV
  | Occupation number:      0.00000000

  Overall HOMO-LUMO gap:      4.71397944 eV.

  Checking to see if s.c.f. parameters should be adjusted.

  Total energy components:
  | Sum of eigenvalues            :        -181.69564028 Ha       -4944.18992976 eV
  | XC energy correction          :         -42.47927073 Ha       -1155.91976904 eV
  | XC potential correction       :          54.61632637 Ha        1486.18585686 eV
  | Free-atom electrostatic energy:        -146.85504279 Ha       -3996.12903503 eV
  | Hartree energy correction     :          -7.10161748 Ha        -193.24484382 eV
  | vdW energy correction         :           0.00000000 Ha           0.00000000 eV
  | Entropy correction            :           0.00000000 Ha           0.00000000 eV
  | ---------------------------
  | Total energy                  :        -323.51524491 Ha       -8803.29772079 eV
  | Total energy, T -> 0          :        -323.51524491 Ha       -8803.29772079 eV  <-- do not rely on this value for anything but (periodic) metals
  | Electronic free energy        :        -323.51524491 Ha       -8803.29772079 eV

  Derived energy quantities:
  | Kinetic energy                :         323.60329598 Ha        8805.69371240 eV
  | Electrostatic energy          :        -604.63927016 Ha      -16453.07166415 eV
  | Energy correction for multipole
  | error in Hartree potential    :           0.02728252 Ha           0.74239527 eV
  | Sum of eigenvalues per atom                           :        -380.32230229 eV
  | Total energy (T->0) per atom                          :        -677.17674775 eV  <-- do not rely on this value for anything but (periodic) metals
  | Electronic free energy per atom                       :        -677.17674775 eV

  Self-consistency convergence accuracy:
  | Change of charge density      :  0.3623E+00
  | Change of sum of eigenvalues  :  0.1002E+03 eV
  | Change of total energy        :  0.2115E+01 eV

  End self-consistency iteration #     2       :  max(cpu_time)    wall_clock(cpu1)
  | Time for this iteration                    :        1.173 s           1.180 s
  | Charge density update                      :        0.384 s           0.384 s
  | Density mixing                             :        0.007 s           0.006 s
  | Hartree multipole update                   :        0.009 s           0.009 s
  | Hartree multipole summation                :        0.283 s           0.284 s
  | Integration                                :        0.489 s           0.494 s
  | Solution of K.-S. eqns.                    :        0.002 s           0.003 s
  | Total energy evaluation                    :        0.000 s           0.000 s

  Partial memory accounting:
  | Current value for overall tracked memory usage on task 0  :           0.166 MB
  | Peak value for overall tracked memory usage on task 0     :           0.695 MB after allocating gradient_basis_wave
  | Largest tracked array allocation on task 0 so far         :           0.397 MB  when allocating gradient_basis_wave
  Note:  These values currently only include a subset of arrays which are explicitly tracked.
  The "true" memory usage will be greater.
------------------------------------------------------------

------------------------------------------------------------
          Begin self-consistency iteration #    3

  Date     :  20200710, Time     :  145201.931
------------------------------------------------------------
  Evaluating new KS density.
  Integration grid: deviation in total charge (<rho> - N_e) =   3.552714E-14
  Pulay mixing of updated and previous charge densities.

  Evaluating partitioned Hartree potential by multipole expansion.
  | Analytical far-field extrapolation by fixed multipoles:
  | Hartree multipole sum: apparent total charge =  -0.431303E-03
  Summing up the Hartree potential.
  Time summed over all CPUs for potential: real work        0.282 s, elapsed        0.282 s
  | RMS charge density error from multipole expansion :   0.225652E-01

  Integrating Hamiltonian matrix: batch-based integration.
  Time summed over all CPUs for integration: real work        0.488 s, elapsed        0.488 s

  Updating Kohn-Sham eigenvalues and eigenvectors using ELSI and the ELPA eigensolver.
  Finished Cholesky decomposition
  | Time :     0.000 s
  Finished transformation to standard eigenproblem
  | Time :     0.000 s
  Starting LAPACK eigensolver
  Finished solving standard eigenproblem
  | Time :     0.001 s
  Finished back-transformation of eigenvectors
  | Time :     0.000 s

  Obtaining occupation numbers and chemical potential using ELSI.
  | Chemical potential (Fermi level):    -2.43595036eV
  Highest occupied state (VBM) at     -5.68475561 eV
  | Occupation number:      2.00000000

  Lowest unoccupied state (CBM) at    -0.89273511 eV
  | Occupation number:      0.00000000

  Overall HOMO-LUMO gap:      4.79202051 eV.

  Total energy components:
  | Sum of eigenvalues            :        -180.40953558 Ha       -4909.19324022 eV
  | XC energy correction          :         -42.62822043 Ha       -1159.97289676 eV
  | XC potential correction       :          54.80602351 Ha        1491.34777871 eV
  | Free-atom electrostatic energy:        -146.85504279 Ha       -3996.12903503 eV
  | Hartree energy correction     :          -8.41616701 Ha        -229.01555654 eV
  | vdW energy correction         :           0.00000000 Ha           0.00000000 eV
  | Entropy correction            :           0.00000000 Ha           0.00000000 eV
  | ---------------------------
  | Total energy                  :        -323.50294230 Ha       -8802.96294984 eV
  | Total energy, T -> 0          :        -323.50294230 Ha       -8802.96294984 eV  <-- do not rely on this value for anything but (periodic) metals
  | Electronic free energy        :        -323.50294230 Ha       -8802.96294984 eV

  Derived energy quantities:
  | Kinetic energy                :         323.10524849 Ha        8792.14115066 eV
  | Electrostatic energy          :        -603.97997036 Ha      -16435.13120374 eV
  | Energy correction for multipole
  | error in Hartree potential    :           0.03921475 Ha           1.06708754 eV
  | Sum of eigenvalues per atom                           :        -377.63024925 eV
  | Total energy (T->0) per atom                          :        -677.15099614 eV  <-- do not rely on this value for anything but (periodic) metals
  | Electronic free energy per atom                       :        -677.15099614 eV

  Self-consistency convergence accuracy:
  | Change of charge density      :  0.2009E+00
  | Change of sum of eigenvalues  :  0.3500E+02 eV
  | Change of total energy        :  0.3348E+00 eV

  End self-consistency iteration #     3       :  max(cpu_time)    wall_clock(cpu1)
  | Time for this iteration                    :        1.174 s           1.174 s
  | Charge density update                      :        0.383 s           0.383 s
  | Density mixing                             :        0.008 s           0.009 s
  | Hartree multipole update                   :        0.009 s           0.008 s
  | Hartree multipole summation                :        0.282 s           0.283 s
  | Integration                                :        0.489 s           0.489 s
  | Solution of K.-S. eqns.                    :        0.002 s           0.002 s
  | Total energy evaluation                    :        0.000 s           0.000 s

  Partial memory accounting:
  | Current value for overall tracked memory usage on task 0  :           0.166 MB
  | Peak value for overall tracked memory usage on task 0     :           0.695 MB after allocating gradient_basis_wave
  | Largest tracked array allocation on task 0 so far         :           0.397 MB  when allocating gradient_basis_wave
  Note:  These values currently only include a subset of arrays which are explicitly tracked.
  The "true" memory usage will be greater.
------------------------------------------------------------

------------------------------------------------------------
          Begin self-consistency iteration #    4

  Date     :  20200710, Time     :  145203.108
------------------------------------------------------------
  Evaluating new KS density.
  Integration grid: deviation in total charge (<rho> - N_e) =  -9.237056E-14
  Pulay mixing of updated and previous charge densities.

  Evaluating partitioned Hartree potential by multipole expansion.
  | Analytical far-field extrapolation by fixed multipoles:
  | Hartree multipole sum: apparent total charge =  -0.461027E-03
  Summing up the Hartree potential.
  Time summed over all CPUs for potential: real work        0.282 s, elapsed        0.282 s
  | RMS charge density error from multipole expansion :   0.256483E-01

  Integrating Hamiltonian matrix: batch-based integration.
  Time summed over all CPUs for integration: real work        0.489 s, elapsed        0.489 s

  Updating Kohn-Sham eigenvalues and eigenvectors using ELSI and the ELPA eigensolver.
  Finished Cholesky decomposition
  | Time :     0.000 s
  Finished transformation to standard eigenproblem
  | Time :     0.000 s
  Starting LAPACK eigensolver
  Finished solving standard eigenproblem
  | Time :     0.001 s
  Finished back-transformation of eigenvectors
  | Time :     0.000 s

  Obtaining occupation numbers and chemical potential using ELSI.
  | Chemical potential (Fermi level):    -2.34596453eV
  Highest occupied state (VBM) at     -5.49622765 eV
  | Occupation number:      2.00000000

  Lowest unoccupied state (CBM) at    -0.82158114 eV
  | Occupation number:      0.00000000

  Overall HOMO-LUMO gap:      4.67464650 eV.

  Total energy components:
  | Sum of eigenvalues            :        -180.25283906 Ha       -4904.92931098 eV
  | XC energy correction          :         -42.66379444 Ha       -1160.94091468 eV
  | XC potential correction       :          54.85095948 Ha        1492.57054855 eV
  | Free-atom electrostatic energy:        -146.85504279 Ha       -3996.12903503 eV
  | Hartree energy correction     :          -8.58151608 Ha        -233.51493368 eV
  | vdW energy correction         :           0.00000000 Ha           0.00000000 eV
  | Entropy correction            :           0.00000000 Ha           0.00000000 eV
  | ---------------------------
  | Total energy                  :        -323.50223289 Ha       -8802.94364581 eV
  | Total energy, T -> 0          :        -323.50223289 Ha       -8802.94364581 eV  <-- do not rely on this value for anything but (periodic) metals
  | Electronic free energy        :        -323.50223289 Ha       -8802.94364581 eV

  Derived energy quantities:
  | Kinetic energy                :         322.77868286 Ha        8783.25484775 eV
  | Electrostatic energy          :        -603.61712132 Ha      -16425.25757889 eV
  | Energy correction for multipole
  | error in Hartree potential    :           0.04317064 Ha           1.17473289 eV
  | Sum of eigenvalues per atom                           :        -377.30225469 eV
  | Total energy (T->0) per atom                          :        -677.14951122 eV  <-- do not rely on this value for anything but (periodic) metals
  | Electronic free energy per atom                       :        -677.14951122 eV

  Self-consistency convergence accuracy:
  | Change of charge density      :  0.5662E-01
  | Change of sum of eigenvalues  :  0.4264E+01 eV
  | Change of total energy        :  0.1930E-01 eV

  End self-consistency iteration #     4       :  max(cpu_time)    wall_clock(cpu1)
  | Time for this iteration                    :        1.176 s           1.176 s
  | Charge density update                      :        0.383 s           0.383 s
  | Density mixing                             :        0.009 s           0.010 s
  | Hartree multipole update                   :        0.008 s           0.009 s
  | Hartree multipole summation                :        0.282 s           0.282 s
  | Integration                                :        0.489 s           0.490 s
  | Solution of K.-S. eqns.                    :        0.002 s           0.002 s
  | Total energy evaluation                    :        0.000 s           0.000 s

  Partial memory accounting:
  | Current value for overall tracked memory usage on task 0  :           0.166 MB
  | Peak value for overall tracked memory usage on task 0     :           0.696 MB after allocating gradient_basis_wave
  | Largest tracked array allocation on task 0 so far         :           0.397 MB  when allocating gradient_basis_wave
  Note:  These values currently only include a subset of arrays which are explicitly tracked.
  The "true" memory usage will be greater.
------------------------------------------------------------

------------------------------------------------------------
          Begin self-consistency iteration #    5

  Date     :  20200710, Time     :  145204.287
------------------------------------------------------------
  Evaluating new KS density.
  Integration grid: deviation in total charge (<rho> - N_e) =  -7.105427E-15
  Pulay mixing of updated and previous charge densities.

  Evaluating partitioned Hartree potential by multipole expansion.
  | Analytical far-field extrapolation by fixed multipoles:
  | Hartree multipole sum: apparent total charge =  -0.455310E-03
  Summing up the Hartree potential.
  Time summed over all CPUs for potential: real work        0.282 s, elapsed        0.282 s
  | RMS charge density error from multipole expansion :   0.254012E-01

  Integrating Hamiltonian matrix: batch-based integration.
  Time summed over all CPUs for integration: real work        0.490 s, elapsed        0.490 s

  Updating Kohn-Sham eigenvalues and eigenvectors using ELSI and the ELPA eigensolver.
  Finished Cholesky decomposition
  | Time :     0.000 s
  Finished transformation to standard eigenproblem
  | Time :     0.000 s
  Starting LAPACK eigensolver
  Finished solving standard eigenproblem
  | Time :     0.002 s
  Finished back-transformation of eigenvectors
  | Time :     0.000 s

  Obtaining occupation numbers and chemical potential using ELSI.
  | Chemical potential (Fermi level):    -2.41315868eV
  Highest occupied state (VBM) at     -5.57724079 eV
  | Occupation number:      2.00000000

  Lowest unoccupied state (CBM) at    -0.90111957 eV
  | Occupation number:      0.00000000

  Overall HOMO-LUMO gap:      4.67612121 eV.

  Total energy components:
  | Sum of eigenvalues            :        -180.43198382 Ha       -4909.80408775 eV
  | XC energy correction          :         -42.64209576 Ha       -1160.35046373 eV
  | XC potential correction       :          54.82281655 Ha        1491.80474054 eV
  | Free-atom electrostatic energy:        -146.85504279 Ha       -3996.12903503 eV
  | Hartree energy correction     :          -8.39563329 Ha        -228.45680552 eV
  | vdW energy correction         :           0.00000000 Ha           0.00000000 eV
  | Entropy correction            :           0.00000000 Ha           0.00000000 eV
  | ---------------------------
  | Total energy                  :        -323.50193911 Ha       -8802.93565150 eV
  | Total energy, T -> 0          :        -323.50193911 Ha       -8802.93565150 eV  <-- do not rely on this value for anything but (periodic) metals
  | Electronic free energy        :        -323.50193911 Ha       -8802.93565150 eV

  Derived energy quantities:
  | Kinetic energy                :         322.68366829 Ha        8780.66936974 eV
  | Electrostatic energy          :        -603.54351163 Ha      -16423.25455750 eV
  | Energy correction for multipole
  | error in Hartree potential    :           0.04257675 Ha           1.15857239 eV
  | Sum of eigenvalues per atom                           :        -377.67723752 eV
  | Total energy (T->0) per atom                          :        -677.14889627 eV  <-- do not rely on this value for anything but (periodic) metals
  | Electronic free energy per atom                       :        -677.14889627 eV

  Self-consistency convergence accuracy:
  | Change of charge density      :  0.2031E-01
  | Change of sum of eigenvalues  : -0.4875E+01 eV
  | Change of total energy        :  0.7994E-02 eV

  End self-consistency iteration #     5       :  max(cpu_time)    wall_clock(cpu1)
  | Time for this iteration                    :        1.178 s           1.179 s
  | Charge density update                      :        0.384 s           0.384 s
  | Density mixing                             :        0.011 s           0.011 s
  | Hartree multipole update                   :        0.009 s           0.008 s
  | Hartree multipole summation                :        0.282 s           0.283 s
  | Integration                                :        0.490 s           0.490 s
  | Solution of K.-S. eqns.                    :        0.002 s           0.003 s
  | Total energy evaluation                    :        0.000 s           0.000 s

  Partial memory accounting:
  | Current value for overall tracked memory usage on task 0  :           0.166 MB
  | Peak value for overall tracked memory usage on task 0     :           0.696 MB after allocating gradient_basis_wave
  | Largest tracked array allocation on task 0 so far         :           0.397 MB  when allocating gradient_basis_wave
  Note:  These values currently only include a subset of arrays which are explicitly tracked.
  The "true" memory usage will be greater.
------------------------------------------------------------

------------------------------------------------------------
          Begin self-consistency iteration #    6

  Date     :  20200710, Time     :  145205.467
------------------------------------------------------------
  Evaluating new KS density.
  Integration grid: deviation in total charge (<rho> - N_e) =  -5.684342E-14
  Pulay mixing of updated and previous charge densities.

  Evaluating partitioned Hartree potential by multipole expansion.
  | Analytical far-field extrapolation by fixed multipoles:
  | Hartree multipole sum: apparent total charge =  -0.457288E-03
  Summing up the Hartree potential.
  Time summed over all CPUs for potential: real work        0.282 s, elapsed        0.282 s
  | RMS charge density error from multipole expansion :   0.257249E-01

  Integrating Hamiltonian matrix: batch-based integration.
  Time summed over all CPUs for integration: real work        0.489 s, elapsed        0.489 s

  Updating Kohn-Sham eigenvalues and eigenvectors using ELSI and the ELPA eigensolver.
  Finished Cholesky decomposition
  | Time :     0.000 s
  Finished transformation to standard eigenproblem
  | Time :     0.000 s
  Starting LAPACK eigensolver
  Finished solving standard eigenproblem
  | Time :     0.002 s
  Finished back-transformation of eigenvectors
  | Time :     0.000 s

  Obtaining occupation numbers and chemical potential using ELSI.
  | Chemical potential (Fermi level):    -2.42825380eV
  Highest occupied state (VBM) at     -5.56590048 eV
  | Occupation number:      2.00000000

  Lowest unoccupied state (CBM) at    -0.92571225 eV
  | Occupation number:      0.00000000

  Overall HOMO-LUMO gap:      4.64018823 eV.

  Total energy components:
  | Sum of eigenvalues            :        -180.46633264 Ha       -4910.73876671 eV
  | XC energy correction          :         -42.63641587 Ha       -1160.19590589 eV
  | XC potential correction       :          54.81544290 Ha        1491.60409328 eV
  | Free-atom electrostatic energy:        -146.85504279 Ha       -3996.12903503 eV
  | Hartree energy correction     :          -8.35952927 Ha        -227.47436515 eV
  | vdW energy correction         :           0.00000000 Ha           0.00000000 eV
  | Entropy correction            :           0.00000000 Ha           0.00000000 eV
  | ---------------------------
  | Total energy                  :        -323.50187766 Ha       -8802.93397951 eV
  | Total energy, T -> 0          :        -323.50187766 Ha       -8802.93397951 eV  <-- do not rely on this value for anything but (periodic) metals
  | Electronic free energy        :        -323.50187766 Ha       -8802.93397951 eV

  Derived energy quantities:
  | Kinetic energy                :         322.59483984 Ha        8778.25222452 eV
  | Electrostatic energy          :        -603.46030163 Ha      -16420.99029813 eV
  | Energy correction for multipole
  | error in Hartree potential    :           0.04279276 Ha           1.16445011 eV
  | Sum of eigenvalues per atom                           :        -377.74913590 eV
  | Total energy (T->0) per atom                          :        -677.14876765 eV  <-- do not rely on this value for anything but (periodic) metals
  | Electronic free energy per atom                       :        -677.14876765 eV

  Self-consistency convergence accuracy:
  | Change of charge density      :  0.1019E-01
  | Change of sum of eigenvalues  : -0.9347E+00 eV
  | Change of total energy        :  0.1672E-02 eV

  End self-consistency iteration #     6       :  max(cpu_time)    wall_clock(cpu1)
  | Time for this iteration                    :        1.177 s           1.178 s
  | Charge density update                      :        0.383 s           0.384 s
  | Density mixing                             :        0.012 s           0.012 s
  | Hartree multipole update                   :        0.009 s           0.009 s
  | Hartree multipole summation                :        0.282 s           0.282 s
  | Integration                                :        0.488 s           0.489 s
  | Solution of K.-S. eqns.                    :        0.002 s           0.002 s
  | Total energy evaluation                    :        0.000 s           0.000 s

  Partial memory accounting:
  | Current value for overall tracked memory usage on task 0  :           0.166 MB
  | Peak value for overall tracked memory usage on task 0     :           0.696 MB after allocating gradient_basis_wave
  | Largest tracked array allocation on task 0 so far         :           0.397 MB  when allocating gradient_basis_wave
  Note:  These values currently only include a subset of arrays which are explicitly tracked.
  The "true" memory usage will be greater.
------------------------------------------------------------

------------------------------------------------------------
          Begin self-consistency iteration #    7

  Date     :  20200710, Time     :  145206.648
------------------------------------------------------------
  Evaluating new KS density.
  Integration grid: deviation in total charge (<rho> - N_e) =  -1.421085E-14
  Pulay mixing of updated and previous charge densities.

  Evaluating partitioned Hartree potential by multipole expansion.
  | Analytical far-field extrapolation by fixed multipoles:
  | Hartree multipole sum: apparent total charge =  -0.458838E-03
  Summing up the Hartree potential.
  Time summed over all CPUs for potential: real work        0.282 s, elapsed        0.282 s
  | RMS charge density error from multipole expansion :   0.258910E-01

  Integrating Hamiltonian matrix: batch-based integration.
  Time summed over all CPUs for integration: real work        0.490 s, elapsed        0.490 s

  Updating Kohn-Sham eigenvalues and eigenvectors using ELSI and the ELPA eigensolver.
  Finished Cholesky decomposition
  | Time :     0.000 s
  Finished transformation to standard eigenproblem
  | Time :     0.000 s
  Starting LAPACK eigensolver
  Finished solving standard eigenproblem
  | Time :     0.002 s
  Finished back-transformation of eigenvectors
  | Time :     0.000 s

[...]
  |   Hirshfeld dipole moment :      0.06731509
  |   Hirshfeld second moments:      0.00616059      -0.01477294      -0.01435697
  |                                 -0.01477294      -0.01256045       0.00601843
  |                                 -0.01435697       0.00601843      -0.02469726
  ----------------------------------------------------------------------
  | Atom    12: O
  |   Hirshfeld charge        :     -0.14382131
  |   Free atom volume        :     23.61338643
  |   Hirshfeld volume        :     21.03770090
  |   Hirshfeld dipole vector :      0.01479566      -0.00132284       0.04705093
  |   Hirshfeld dipole moment :      0.04934016
  |   Hirshfeld second moments:      0.06340697       0.02008200      -0.02636315
  |                                  0.02008200       0.07871954      -0.00877402
  |                                 -0.02636315      -0.00877402       0.02396998
  ----------------------------------------------------------------------
  | Atom    13: H
  |   Hirshfeld charge        :      0.16819054
  |   Free atom volume        :      9.95071624
  |   Hirshfeld volume        :      6.45039341
  |   Hirshfeld dipole vector :     -0.05232528      -0.08073734       0.06040726
  |   Hirshfeld dipole moment :      0.11360233
  |   Hirshfeld second moments:      0.11509362       0.00137674      -0.01501563
  |                                  0.00137674       0.12172008       0.00070759
  |                                 -0.01501563       0.00070759       0.08059241
  ----------------------------------------------------------------------


  Total energy components:
  | Sum of eigenvalues            :        -180.45478718 Ha       -4910.42459878 eV
  | XC energy correction          :         -42.63439235 Ha       -1160.14084314 eV
  | XC potential correction       :          54.81289969 Ha        1491.53488912 eV
  | Free-atom electrostatic energy:        -146.85504279 Ha       -3996.12903503 eV
  | Hartree energy correction     :          -8.37053563 Ha        -227.77386342 eV
  | vdW energy correction         :          -0.00321308 Ha          -0.08743230 eV
  | Entropy correction            :           0.00000000 Ha           0.00000000 eV
  | ---------------------------
  | Total energy                  :        -323.50507133 Ha       -8803.02088355 eV
  | Total energy, T -> 0          :        -323.50507133 Ha       -8803.02088355 eV  <-- do not rely on this value for anything but (periodic) metals
  | Electronic free energy        :        -323.50507133 Ha       -8803.02088355 eV

  Derived energy quantities:
  | Kinetic energy                :         322.55610561 Ha        8777.19821270 eV
  | Electrostatic energy          :        -603.42357151 Ha      -16419.99082081 eV
  | Energy correction for multipole
  | error in Hartree potential    :           0.04292292 Ha           1.16799221 eV
  | Sum of eigenvalues per atom                           :        -377.72496914 eV
  | Total energy (T->0) per atom                          :        -677.15545258 eV  <-- do not rely on this value for anything but (periodic) metals
  | Electronic free energy per atom                       :        -677.15545258 eV

  atomic forces [eV/Ang]:
  -----------------------
  atom #    1
   Hellmann-Feynman              :  0.963022E+00 -0.481600E-01  0.438565E+00
   Ionic forces                  :  0.000000E+00  0.000000E+00  0.000000E+00
   Multipole                     :  0.174328E+00  0.530654E+00 -0.313401E+00
   Pulay + GGA                   : -0.138978E+01 -0.332180E+00 -0.914199E+00
   Van der Waals                 :  0.168956E-02  0.637081E-03 -0.140221E-02
   ----------------------------------------------------------------
   Total forces(   1)            : -0.250738E+00  0.150952E+00 -0.790436E+00
  atom #    2
   Hellmann-Feynman              :  0.370196E+00 -0.142953E-02  0.294837E+00
   Ionic forces                  :  0.000000E+00  0.000000E+00  0.000000E+00
   Multipole                     :  0.164559E+00  0.402443E-01 -0.188668E-01
   Pulay + GGA                   : -0.121260E+00  0.167223E-01  0.225178E-01
   Van der Waals                 :  0.819294E-02 -0.541665E-02 -0.299653E-02
   ----------------------------------------------------------------
   Total forces(   2)            :  0.421688E+00  0.501204E-01  0.295491E+00
  atom #    3
   Hellmann-Feynman              : -0.970273E+01 -0.667379E+01  0.262514E+00
   Ionic forces                  :  0.000000E+00  0.000000E+00  0.000000E+00
   Multipole                     : -0.140792E+00  0.100648E+00 -0.875378E+00
   Pulay + GGA                   :  0.976795E+01  0.648483E+01  0.140126E+01
   Van der Waals                 :  0.274739E-02 -0.777122E-02 -0.640360E-02
   ----------------------------------------------------------------
   Total forces(   3)            : -0.728235E-01 -0.960920E-01  0.781996E+00
  atom #    4
   Hellmann-Feynman              :  0.238162E+00  0.682024E-01 -0.149396E+00
   Ionic forces                  :  0.000000E+00  0.000000E+00  0.000000E+00
   Multipole                     : -0.943684E-02  0.674826E-01 -0.912488E-01
   Pulay + GGA                   : -0.409166E-01 -0.217148E+00  0.521904E-01
   Van der Waals                 : -0.214239E-02 -0.618697E-02 -0.641543E-02
   ----------------------------------------------------------------
   Total forces(   4)            :  0.185666E+00 -0.876500E-01 -0.194869E+00
  atom #    5
   Hellmann-Feynman              :  0.876355E-01  0.114239E+00 -0.266538E+00
   Ionic forces                  :  0.000000E+00  0.000000E+00  0.000000E+00
   Multipole                     :  0.430565E-01 -0.384068E-02 -0.118329E+00
   Pulay + GGA                   : -0.206001E+00  0.870965E-02  0.124859E+00
   Van der Waals                 : -0.233512E-02  0.309069E-02  0.812493E-03
   ----------------------------------------------------------------
   Total forces(   5)            : -0.776445E-01  0.122199E+00 -0.259195E+00
  atom #    6
   Hellmann-Feynman              : -0.214421E+00 -0.577278E+00  0.309263E+00
   Ionic forces                  :  0.000000E+00  0.000000E+00  0.000000E+00
   Multipole                     : -0.377266E-01  0.637315E+00  0.269096E+00
   Pulay + GGA                   :  0.371882E+00 -0.604909E+00 -0.433714E+00
   Van der Waals                 : -0.211759E-02  0.431954E-02 -0.348213E-02
   ----------------------------------------------------------------
   Total forces(   6)            :  0.117617E+00 -0.540553E+00  0.141162E+00
  atom #    7
   Hellmann-Feynman              : -0.233362E+00 -0.383654E-01 -0.343940E-01
   Ionic forces                  :  0.000000E+00  0.000000E+00  0.000000E+00
   Multipole                     : -0.120083E+00  0.476875E-01  0.286075E-01
   Pulay + GGA                   :  0.112655E+00 -0.110120E-01 -0.692515E-02
   Van der Waals                 : -0.356792E-02  0.315736E-02  0.909723E-02
   ----------------------------------------------------------------
   Total forces(   7)            : -0.244358E+00  0.146748E-02 -0.361433E-02
  atom #    8
   Hellmann-Feynman              :  0.410346E-01 -0.267136E-01  0.149798E+00
   Ionic forces                  :  0.000000E+00  0.000000E+00  0.000000E+00
   Multipole                     :  0.185821E-01  0.669303E-01  0.120950E+00
   Pulay + GGA                   : -0.471252E-01 -0.468682E-01 -0.113082E+00
   Van der Waals                 : -0.275907E-02  0.114781E-01  0.820598E-03
   ----------------------------------------------------------------
   Total forces(   8)            :  0.973242E-02  0.482653E-02  0.158487E+00
  atom #    9
   Hellmann-Feynman              :  0.138529E+00  0.477701E-01 -0.195376E+00
   Ionic forces                  :  0.000000E+00  0.000000E+00  0.000000E+00
   Multipole                     :  0.188313E-01  0.130812E+00 -0.512614E-02
   Pulay + GGA                   : -0.305879E-01 -0.777408E-01  0.702937E-01
   Van der Waals                 : -0.853405E-03  0.588979E-02  0.726959E-02
   ----------------------------------------------------------------
   Total forces(   9)            :  0.125919E+00  0.106731E+00 -0.122939E+00
  atom #   10
   Hellmann-Feynman              :  0.233957E+01  0.502261E+01  0.920176E-02
   Ionic forces                  :  0.000000E+00  0.000000E+00  0.000000E+00
   Multipole                     : -0.618242E-01 -0.263784E+00  0.281623E+00
   Pulay + GGA                   : -0.135245E+01 -0.293626E+01 -0.177191E+00
   Van der Waals                 :  0.103880E-02 -0.115861E-01  0.133720E-02
   ----------------------------------------------------------------
   Total forces(  10)            :  0.926340E+00  0.181098E+01  0.114971E+00
  atom #   11
   Hellmann-Feynman              :  0.416120E+01 -0.244376E+01  0.144038E+02
   Ionic forces                  :  0.000000E+00  0.000000E+00  0.000000E+00
   Multipole                     :  0.108459E+00 -0.511885E+00  0.801199E+00
   Pulay + GGA                   : -0.342912E+01  0.349937E+01 -0.133941E+02
   Van der Waals                 : -0.293569E-02 -0.120202E-01  0.234420E-02
   ----------------------------------------------------------------
   Total forces(  11)            :  0.837606E+00  0.531700E+00  0.181328E+01
  atom #   12
   Hellmann-Feynman              : -0.456540E+01 -0.404559E+00 -0.155728E+02
   Ionic forces                  :  0.000000E+00  0.000000E+00  0.000000E+00
   Multipole                     : -0.776341E+00 -0.997397E+00 -0.844348E+00
   Pulay + GGA                   :  0.359141E+01  0.293413E+00  0.144895E+02
   Van der Waals                 :  0.148355E-02  0.892699E-02  0.171480E-02
   ----------------------------------------------------------------
   Total forces(  12)            : -0.174885E+01 -0.109962E+01 -0.192585E+01
  atom #   13
   Hellmann-Feynman              : -0.330843E+00 -0.115858E+01  0.139539E+00
   Ionic forces                  :  0.000000E+00  0.000000E+00  0.000000E+00
   Multipole                     : -0.131868E-01 -0.435284E-01  0.959109E-01
   Pulay + GGA                   :  0.111149E+00  0.238393E+00 -0.241677E+00
   Van der Waals                 :  0.155894E-02  0.548157E-02 -0.269620E-02
   ----------------------------------------------------------------
   Total forces(  13)            : -0.231322E+00 -0.958233E+00 -0.892333E-02

  Timings for VdW correction (Tkatchenko-Scheffler 2009 or later):
  | CPU time:        0.088 s, Wall clock time:        0.089 s.
  Removing unitary transformations (pure translations, rotations) from forces on atoms.
  Atomic forces before filtering:
  | Net force on center of mass :  -0.116628E-02 -0.317039E-02 -0.436605E-03 eV/A
  | Net torque on center of mass:  -0.990956E-02  0.263944E-02  0.493051E-02 eV
  Atomic forces after filtering:
  | Net force on center of mass :  -0.446015E-16 -0.178406E-15  0.252277E-15 eV/A
  | Net torque on center of mass:  -0.283225E-15  0.352557E-15 -0.103849E-14 eV

  Energy and forces in a compact form:
  | Total energy uncorrected      :         -0.880302088355234E+04 eV
  | Total energy corrected        :         -0.880302088355234E+04 eV  <-- do not rely on this value for anything but (periodic) metals
  | Electronic free energy        :         -0.880302088355234E+04 eV
  Total atomic forces (unitary forces cleaned) [eV/Ang]:
  |   1         -0.250624534314720E+00          0.151166181766058E+00         -0.790353947848134E+00
  |   2          0.421801670218063E+00          0.501647605064229E-01          0.295654470102617E+00
  |   3         -0.726053389878583E-01         -0.954846810877204E-01          0.782043440909577E+00
  |   4          0.186053028478158E+00         -0.869466999226260E-01         -0.194623369739375E+00
  |   5         -0.774390135045238E-01          0.122825531095441E+00         -0.259175345880147E+00
  |   6          0.117872962188517E+00         -0.540425180244696E+00          0.141492299315640E+00
  |   7         -0.244098837913980E+00          0.176123261104099E-02         -0.335864191826321E-02
  |   8          0.991449356618033E-02          0.466526813661883E-02          0.158846533735689E+00
  |   9          0.126352906161761E+00          0.106915660560275E+00         -0.122379051356533E+00
  |  10          0.926198043989108E+00          0.181108585265988E+01          0.114733744298080E+00
  |  11          0.837337328775762E+00          0.531505508317986E+00          0.181300227692177E+01
  |  12         -0.174907215494793E+01         -0.109924610170869E+01         -0.192632770471268E+01
  |  13         -0.231690553708539E+00         -0.957987332689987E+00         -0.955470382824437E-02

  ------------------------------------ 
  Start decomposition of the XC Energy 
  ------------------------------------ 
  X and C from original XC functional choice 
  Hartree-Fock Energy :          0.000000000 Ha              0.000000000 eV
  X Energy            :        -41.034577227 Ha          -1116.607658717 eV
  C Energy            :         -1.599815122 Ha            -43.533184419 eV
  Total XC Energy     :        -42.634392349 Ha          -1160.140843136 eV
  ------------------------------------ 
  LDA X and C from self-consistent density 
  X Energy LDA        :        -37.252589414 Ha          -1013.694534156 eV
  C Energy LDA        :         -3.138293870 Ha            -85.397321166 eV
  ------------------------------------ 
  End decomposition of the XC Energy 
  ------------------------------------ 

------------------------------------------------------------

------------------------------------------------------------------------------
  Final output of selected total energy values:

  The following output summarizes some interesting total energy values
  at the end of a run (AFTER all relaxation, molecular dynamics, etc.).

  | Total energy of the DFT / Hartree-Fock s.c.f. calculation      :          -8803.020883552 eV
  | Final zero-broadening corrected energy (caution - metals only) :          -8803.020883552 eV
  | For reference only, the value of 1 Hartree used in FHI-aims is :             27.211384500 eV

  Before relying on these values, please be sure to understand exactly which
  total energy value is referred to by a given number. Different objects may
  all carry the same name 'total energy'. Definitions:

  Total energy of the DFT / Hartree-Fock s.c.f. calculation:
  | Note that this energy does not include ANY quantities calculated after the
  | s.c.f. cycle, in particular not ANY RPA, MP2, etc. many-body perturbation terms.

  Final zero-broadening corrected energy:
  | For metallic systems only, a broadening of the occupation numbers at the Fermi
  | level can be extrapolated back to zero broadening by an electron-gas inspired
  | formula. For all systems that are not real metals, this value can be
  | meaningless and should be avoided.

------------------------------------------------------------------------------
  Methods described in the following list of references were used in this FHI-aims run.
  If you publish the results, please make sure to cite these reference if they apply.
  FHI-aims is an academic code, and for our developers (often, Ph.D. students
  and postdocs), scientific credit in the community is essential.
  Thank you for helping us!

  For any use of FHI-aims, please cite:

    Volker Blum, Ralf Gehrke, Felix Hanke, Paula Havu, Ville Havu,
    Xinguo Ren, Karsten Reuter, and Matthias Scheffler
    'Ab initio molecular simulations with numeric atom-centered orbitals'
    Computer Physics Communications 180, 2175-2196 (2009)
    http://dx.doi.org/10.1016/j.cpc.2009.06.022


  The scalable eigensolver library ELPA was used in your run.
  ELPA is essential especially for large systems on hundreds or thousands of CPUs.
  For ELPA, please cite:

    Andreas Marek, Volker Blum, Rainer Johanni, Ville Havu, Bruno Lang,
    Thomas Auckenthaler, Alexander Heinecke, Hans-Joachim Bungartz, and Hermann Lederer,
    'The ELPA Library - Scalable Parallel Eigenvalue Solutions
    for Electronic Structure Theory and Computational Science'
    The Journal of Physics: Condensed Matter 26, 213201 (2014).
    http://dx.doi.org/10.1088/0953-8984/26/21/213201


  The ELSI infrastructure was used in your run to solve the Kohn-Sham electronic structure.
  Please check out http://elsi-interchange.org to learn more.
  If scalability is important for your project, please acknowledge ELSI by citing:

    V. W-z. Yu, F. Corsetti, A. Garcia, W. P. Huhn, M. Jacquelin, W. Jia,
    B. Lange, L. Lin, J. Lu, W. Mi, A. Seifitokaldani, A. Vazquez-Mayagoitia,
    C. Yang, H. Yang, and V. Blum
    'ELSI: A unified software interface for Kohn-Sham electronic structure solvers'
    Computer Physics Communications 222, 267-285 (2018).
    http://dx.doi.org/10.1016/j.cpc.2017.09.007


  For the real-space grid partitioning and parallelization used in this calculation, please cite:

    Ville Havu, Volker Blum, Paula Havu, and Matthias Scheffler,
    'Efficient O(N) integration for all-electron electronic structure calculation'
    'using numerically tabulated basis functions'
    Journal of Computational Physics 228, 8367-8379 (2009).
    http://dx.doi.org/10.1016/j.jcp.2009.08.008

  Of course, there are many other important community references, e.g., those cited in the
  above references. Our list is limited to references that describe implementations in the
  FHI-aims code. The reason is purely practical (length of this list) - please credit others as well.

------------------------------------------------------------
          Leaving FHI-aims.
          Date     :  20200710, Time     :  145219.696

          Computational steps:
          | Number of self-consistency cycles          :           15
          | Number of SCF (re)initializations          :            1

          Detailed time accounting                     :  max(cpu_time)    wall_clock(cpu1)
          | Total time                                 :       21.371 s          21.437 s
          | Preparation time                           :        0.146 s           0.147 s
          | Boundary condition initalization           :        0.000 s           0.000 s
          | Grid partitioning                          :        0.111 s           0.112 s
          | Preloading free-atom quantities on grid    :        0.002 s           0.003 s
          | Free-atom superposition energy             :        0.084 s           0.084 s
          | Total time for integrations                :        8.047 s           8.054 s
          | Total time for solution of K.-S. equations :        0.035 s           0.038 s
          | Total time for density & force components  :        6.712 s           6.722 s
          | Total time for mixing                      :        0.198 s           0.201 s
          | Total time for Hartree multipole update    :        0.131 s           0.132 s
          | Total time for Hartree multipole sum       :        5.507 s           5.512 s
          | Total time for total energy evaluation     :        0.002 s           0.002 s
          | Total time for vdW correction              :        0.088 s           0.089 s

          Partial memory accounting:
          | Residual value for overall tracked memory usage across tasks :           0.000 MB (should be 0.000 MB)
          | Peak values for overall tracked memory usage (after allocating hessian_basis_wave):
          |   Minimum:        1.622 MB (on task 1)
          |   Maximum:        1.622 MB (on task 1)
          |   Average:        1.622 MB
          | Largest tracked array allocation (hessian_basis_wave):
          |   Minimum:        0.794 MB (on task 1)
          |   Maximum:        0.794 MB (on task 1)
          |   Average:        0.794 MB
          Note:  These values currently only include a subset of arrays which are explicitly tracked.
          The "true" memory usage will be greater.

          Have a nice day.
------------------------------------------------------------
