  MPI-parallelism will be employed.
------------------------------------------------------------
          Invoking FHI-aims ...
          Version 171221_1
          Compiled on 2019/09/09 at 14:39:39 on host puhti-login2.bullx.

          When using FHI-aims, please cite the following reference:

          Volker Blum, Ralf Gehrke, Felix Hanke, Paula Havu,
          Ville Havu, Xinguo Ren, Karsten Reuter, and Matthias Scheffler,
          'Ab Initio Molecular Simulations with Numeric Atom-Centered Orbitals',
          Computer Physics Communications 180, 2175-2196 (2009)

          For any questions about FHI-aims, please visit the aimsclub website
          with its forums and wiki. Contributions to both the forums and the
          wiki are warmly encouraged - they are for you, and everyone is welcome there.

------------------------------------------------------------



  Date     :  20200710, Time     :  145313.176
  Time zero on CPU 1             :   0.112580000000000E-01  s.
  Internal wall clock time zero  :           363624793.176  s.

  FHI-aims created a unique identifier for this run for later identification
  aims_uuid : BFF2C019-CF39-4573-A157-BB4A9F657B52

  Using        1 parallel tasks.
  Task        0 on host r18c46.bullx reporting.

  Performing system and environment tests:
  | Environment variable OMP_NUM_THREADS correctly set to 1.
  | Stacksize not measured: no C compiler
  | Checking for scalapack...
  | Testing pdtran()...
  | All pdtran() tests passed.

  Obtaining array dimensions for all initial allocations:
  
  -----------------------------------------------------------------------
  Parsing control.in (first pass over file, find array dimensions only).
  The contents of control.in will be repeated verbatim below
  unless switched off by setting 'verbatim_writeout .false.' .
  in the first line of control.in .
  -----------------------------------------------------------------------
  
  #########################################################################################
  #
  #  Volker Blum, FHI 2009 : Test run input file control.in for simple H2O
  #
  #########################################################################################
  #
  #  Physical model
  #
    xc                 pbe
    vdw_correction_hirshfeld
    spin               none
    relativistic       none
    charge             0.
  #
  #  SCF convergence
  #
    occupation_type    gaussian 0.01
    mixer              pulay
      n_max_pulay        10
      charge_mix_param   0.2
    sc_accuracy_rho    1E-5
    sc_accuracy_eev    1E-3
    sc_accuracy_etot   1E-6
    sc_accuracy_forces 1E-4
    sc_iter_limit      100
  #
  #  Relaxation
  #
  #  relax_geometry   bfgs 1.e-3
  #
  ################################################################################
  #
  #  FHI-aims code project
  #  VB, Fritz-Haber Institut, 2009
  #
  #  Suggested "light" defaults for H atom (to be pasted into control.in file)
  #  Be sure to double-check any results obtained with these settings for post-processing,
  #  e.g., with the "tight" defaults and larger basis sets.
  #
  ################################################################################
    species        H
  #     global species definitions
      nucleus             1
      mass                1.00794
  #
      l_hartree           4
  #
      cut_pot             3.5  1.5  1.0
      basis_dep_cutoff    1e-4
  #
      radial_base         24 5.0
      radial_multiplier   1
      angular_grids       specified
        division   0.2421   50
        division   0.3822  110
        division   0.4799  194
        division   0.5341  302
  #      division   0.5626  434
  #      division   0.5922  590
  #      division   0.6542  770
  #      division   0.6868 1202
  #      outer_grid  770
        outer_grid  302
  ################################################################################
  #
  #  Definition of "minimal" basis
  #
  ################################################################################
  #     valence basis states
      valence      1  s   1.
  #     ion occupancy
      ion_occ      1  s   0.5
  ################################################################################
  #
  #  Suggested additional basis functions. For production calculations,
  #  uncomment them one after another (the most important basis functions are
  #  listed first).
  #
  #  Basis constructed for dimers: 0.5 A, 0.7 A, 1.0 A, 1.5 A, 2.5 A
  #
  ################################################################################
  #  "First tier" - improvements: -1014.90 meV to -62.69 meV
       hydro 2 s 2.1
       hydro 2 p 3.5
  #  "Second tier" - improvements: -12.89 meV to -1.83 meV
  #     hydro 1 s 0.85
  #     hydro 2 p 3.7
  #     hydro 2 s 1.2
  #     hydro 3 d 7
  #  "Third tier" - improvements: -0.25 meV to -0.12 meV
  #     hydro 4 f 11.2
  #     hydro 3 p 4.8
  #     hydro 4 d 9
  #     hydro 3 s 3.2
  ################################################################################
  #
  #  FHI-aims code project
  #  VB, Fritz-Haber Institut, 2009
  #
  #  Suggested "light" defaults for C atom (to be pasted into control.in file)
  #  Be sure to double-check any results obtained with these settings for post-processing,
  #  e.g., with the "tight" defaults and larger basis sets.
  #
  ################################################################################
    species        C
  #     global species definitions
      nucleus             6
      mass                12.0107
  #
      l_hartree           4
  #
      cut_pot             3.5  1.5  1.0
      basis_dep_cutoff    1e-4
  #
      radial_base         34 5.0
      radial_multiplier   1
      angular_grids specified
        division   0.3326   50
        division   0.5710  110
        division   0.7727  194
        division   0.8772  302
  #      division   0.9334  434
  #      division   0.9625  590
  #      division   0.9924  770
  #      division   1.0230  974
  #      division   1.4589 1202
  #     outer_grid  974
       outer_grid 302
  ################################################################################
  #
  #  Definition of "minimal" basis
  #
  ################################################################################
  #     valence basis states
      valence      2  s   2.
      valence      2  p   2.
  #     ion occupancy
      ion_occ      2  s   1.
      ion_occ      2  p   1.
  ################################################################################
  #
  #  Suggested additional basis functions. For production calculations,
  #  uncomment them one after another (the most important basis functions are
  #  listed first).
  #
  #  Constructed for dimers: 1.0 A, 1.25 A, 1.5 A, 2.0 A, 3.0 A
  #
  ################################################################################
  #  "First tier" - improvements: -1214.57 meV to -155.61 meV
       hydro 2 p 1.7
       hydro 3 d 6
       hydro 2 s 4.9
  #  "Second tier" - improvements: -67.75 meV to -5.23 meV
  #     hydro 4 f 9.8
  #     hydro 3 p 5.2
  #     hydro 3 s 4.3
  #     hydro 5 g 14.4
  #     hydro 3 d 6.2
  #  "Third tier" - improvements: -2.43 meV to -0.60 meV
  #     hydro 2 p 5.6
  #     hydro 2 s 1.4
  #     hydro 3 d 4.9
  #     hydro 4 f 11.2
  #  "Fourth tier" - improvements: -0.39 meV to -0.18 meV
  #     hydro 2 p 2.1
  #     hydro 5 g 16.4
  #     hydro 4 d 13.2
  #     hydro 3 s 13.6
  #     hydro 4 f 17.6
  #  Further basis functions - improvements: -0.08 meV and below
  #     hydro 3 s 2
  #     hydro 3 p 6
  #     hydro 4 d 20
  ################################################################################
  #
  #  FHI-aims code project
  #  VB, Fritz-Haber Institut, 2009
  #
  #  Suggested "light" defaults for N atom (to be pasted into control.in file)
  #  Be sure to double-check any results obtained with these settings for post-processing,
  #  e.g., with the "tight" defaults and larger basis sets.
  #
  ################################################################################
    species        N
  #     global species definitions
      nucleus             7
      mass                14.0067
  #
      l_hartree           4
  #
      cut_pot             3.5  1.5  1.0
      basis_dep_cutoff    1e-4
  #
      radial_base         35 5.0
      radial_multiplier   1
      angular_grids       specified
        division   0.2599   50
        division   0.4601  110
        division   0.5885  194
        division   0.6503  302
  #      division   0.6939  434
  #      division   0.7396  590
  #      division   0.7632  770
  #      division   0.8122  974
  #      division   1.1604 1202
  #      outer_grid  974
        outer_grid  302
  ################################################################################
  #
  #  Definition of "minimal" basis
  #
  ################################################################################
  #     valence basis states
      valence      2  s   2.
      valence      2  p   3.
  #     ion occupancy
      ion_occ      2  s   1.
      ion_occ      2  p   2.
  ################################################################################
  #
  #  Suggested additional basis functions. For production calculations,
  #  uncomment them one after another (the most important basis functions are
  #  listed first).
  #
  #  Constructed for dimers: 1.0 A, 1.1 A, 1.5 A, 2.0 A, 3.0 A
  #
  ################################################################################
  #  "First tier" - improvements: -1193.42 meV to -220.60 meV
       hydro 2 p 1.8
       hydro 3 d 6.8
       hydro 3 s 5.8
  #  "Second tier" - improvements: -80.21 meV to -6.86 meV
  #     hydro 4 f 10.8
  #     hydro 3 p 5.8
  #     hydro 1 s 0.8
  #     hydro 5 g 16
  #     hydro 3 d 4.9
  #  "Third tier" - improvements: -4.29 meV to -0.53 meV
  #     hydro 3 s 16
  #     ionic 2 p auto
  #     hydro 3 d 6.6
  #     hydro 4 f 11.6
  #  "Fourth tier" - improvements: -0.75 meV to -0.25 meV
  #     hydro 2 p 4.5
  #     hydro 2 s 2.4
  #     hydro 5 g 14.4
  #     hydro 4 d 14.4
  #     hydro 4 f 16.8
  # Further basis functions - -0.21 meV and below
  #     hydro 3 p 14.8
  #     hydro 3 s 4.4
  #     hydro 3 d 19.6
  #     hydro 5 g 12.8
  ################################################################################
  #
  #  FHI-aims code project
  #  VB, Fritz-Haber Institut, 2009
  #
  #  Suggested "light" defaults for O atom (to be pasted into control.in file)
  #  Be sure to double-check any results obtained with these settings for post-processing,
  #  e.g., with the "tight" defaults and larger basis sets.
  #
  ################################################################################
    species        O
  #     global species definitions
      nucleus             8
      mass                15.9994
  #
      l_hartree           4
  #
      cut_pot             3.5  1.5  1.0
      basis_dep_cutoff    1e-4
  #
      radial_base         36 5.0
      radial_multiplier   1
       angular_grids specified
        division   0.2659   50
        division   0.4451  110
        division   0.6052  194
        division   0.7543  302
  #      division   0.8014  434
  #      division   0.8507  590
  #      division   0.8762  770
  #      division   0.9023  974
  #      division   1.2339 1202
  #      outer_grid 974
        outer_grid 302
  ################################################################################
  #
  #  Definition of "minimal" basis
  #
  ################################################################################
  #     valence basis states
      valence      2  s   2.
      valence      2  p   4.
  #     ion occupancy
      ion_occ      2  s   1.
      ion_occ      2  p   3.
  ################################################################################
  #
  #  Suggested additional basis functions. For production calculations,
  #  uncomment them one after another (the most important basis functions are
  #  listed first).
  #
  #  Constructed for dimers: 1.0 A, 1.208 A, 1.5 A, 2.0 A, 3.0 A
  #
  ################################################################################
  #  "First tier" - improvements: -699.05 meV to -159.38 meV
       hydro 2 p 1.8
       hydro 3 d 7.6
       hydro 3 s 6.4
  #  "Second tier" - improvements: -49.91 meV to -5.39 meV
  #     hydro 4 f 11.6
  #     hydro 3 p 6.2
  #     hydro 3 d 5.6
  #     hydro 5 g 17.6
  #     hydro 1 s 0.75
  #  "Third tier" - improvements: -2.83 meV to -0.50 meV
  #     ionic 2 p auto
  #     hydro 4 f 10.8
  #     hydro 4 d 4.7
  #     hydro 2 s 6.8
  #  "Fourth tier" - improvements: -0.40 meV to -0.12 meV
  #     hydro 3 p 5
  #     hydro 3 s 3.3
  #     hydro 5 g 15.6
  #     hydro 4 f 17.6
  #     hydro 4 d 14
  # Further basis functions - -0.08 meV and below
  #     hydro 3 s 2.1
  #     hydro 4 d 11.6
  #     hydro 3 p 16
  #     hydro 2 s 17.2
  
  -----------------------------------------------------------------------
  Completed first pass over input file control.in .
  -----------------------------------------------------------------------
  
  
  -----------------------------------------------------------------------
  Parsing geometry.in (first pass over file, find array dimensions only).
  The contents of geometry.in will be repeated verbatim below
  unless switched off by setting 'verbatim_writeout .false.' .
  in the first line of geometry.in .
  -----------------------------------------------------------------------
  
  atom  0.00000 0.00000 0.00000 C
  atom  1.09300 0.00000 0.00000 H
  atom  -0.47961 0.00000 -1.41207 N
  atom  0.20441 -0.49004 -1.98983 H
  atom  -1.37880 -0.47538 -1.45186 H
  atom  -0.49584 1.26211 0.72868 C
  atom  -1.58789 1.28919 0.74431 H
  atom  -0.13407 1.27425 1.75947 H
  atom  -0.13407 2.16087 0.22380 H
  atom  -0.39425 -1.28861 0.74398 C
  atom  -0.10189 -1.56493 1.88303 O
  atom  -1.10210 -2.13717 0.06896 O
  atom  -1.10516 -1.67205 -0.78464 H
  
  -----------------------------------------------------------------------
  Completed first pass over input file geometry.in .
  -----------------------------------------------------------------------
  

  Basic array size parameters:
  | Number of species                 :        4
  | Number of atoms                   :       13
  | Max. basis fn. angular momentum   :        2
  | Max. atomic/ionic basis occupied n:        2
  | Max. number of basis fn. types    :        2
  | Max. radial fns per species/type  :        3
  | Max. logarithmic grid size        :     1301
  | Max. radial integration grid size :       36
  | Max. angular integration grid size:      302
  | Max. angular grid division number :        8
  | Radial grid for Hartree potential :     1301
  | Number of spin channels           :        1

------------------------------------------------------------
          Reading file control.in.
------------------------------------------------------------
  XC: Using PBE gradient-corrected functionals.
  Spin treatment: No spin polarisation.
  Non-relativistic treatment of kinetic energy.
  Charge =   0.000000E+00: Neutral system requested explicitly.
  Occupation type: Gaussian broadening, width =   0.100000E-01 eV.
  Using pulay charge density mixing.
  Pulay mixing - number of memorized iterations:   10
  Charge density mixing - mixing parameter:     0.2000
  Convergence accuracy of self-consistent charge density:  0.1000E-04
  Convergence accuracy of sum of eigenvalues:  0.1000E-02
  Convergence accuracy of total energy:  0.1000E-05
  Convergence accuracy of forces:  0.1000E-03
  Maximum number of s.-c. iterations  :   100
 
  Reading configuration options for species H                   .
  | Found nuclear charge :   1.0000
  | Found atomic mass :    1.00794000000000      amu
  | Found l_max for Hartree potential  :   4
  | Found cutoff potl. onset [A], width [A], scale factor :    3.50000    1.50000    1.00000
  | Threshold for basis-dependent cutoff potential is   0.100000E-03
  | Found data for basic radial integration grid :    24 points, outermost radius =    5.000 A
  | Found multiplier for basic radial grid :   1
  | Found angular grid specification: user-specified.
  | Specified grid contains     5 separate shells.
  | Check grid settings after all constraints further below.
  | Found free-atom valence shell :  1 s   1.000
  | No ionic wave fns used. Skipping ion_occ.
  | Found hydrogenic basis function :  2 s   2.100
  | Found hydrogenic basis function :  2 p   3.500
  Species H                   : Missing cutoff potential type.
  Defaulting to exp(1/x)/(1-x)^2 type cutoff potential.
  Species H : No 'logarithmic' tag. Using default grid for free atom:
  | Default logarithmic grid data [bohr] : 0.1000E-03 0.1000E+03 0.1012E+01
  Species H : On-site basis accuracy parameter (for Gram-Schmidt orthonormalisation) not specified.
  Using default value basis_acc =  0.1000000E-03.
  Species H                   : Using default innermost maximum threshold i_radial=  2 for radial functions.
  Species H                   : Default cutoff onset for free atom density etc. : 0.35000000E+01 AA.
  Species H                   : Basic radial grid will be enhanced according to radial_multiplier =   1, to contain    24 grid points.
 
  Reading configuration options for species C                   .
  | Found nuclear charge :   6.0000
  | Found atomic mass :    12.0107000000000      amu
  | Found l_max for Hartree potential  :   4
  | Found cutoff potl. onset [A], width [A], scale factor :    3.50000    1.50000    1.00000
  | Threshold for basis-dependent cutoff potential is   0.100000E-03
  | Found data for basic radial integration grid :    34 points, outermost radius =    5.000 A
  | Found multiplier for basic radial grid :   1
  | Found angular grid specification: user-specified.
  | Specified grid contains     5 separate shells.
  | Check grid settings after all constraints further below.
  | Found free-atom valence shell :  2 s   2.000
  | Found free-atom valence shell :  2 p   2.000
  | No ionic wave fns used. Skipping ion_occ.
  | No ionic wave fns used. Skipping ion_occ.
  | Found hydrogenic basis function :  2 p   1.700
  | Found hydrogenic basis function :  3 d   6.000
  | Found hydrogenic basis function :  2 s   4.900
  Species C                   : Missing cutoff potential type.
  Defaulting to exp(1/x)/(1-x)^2 type cutoff potential.
  Species C : No 'logarithmic' tag. Using default grid for free atom:
  | Default logarithmic grid data [bohr] : 0.1000E-03 0.1000E+03 0.1012E+01
  Species C : On-site basis accuracy parameter (for Gram-Schmidt orthonormalisation) not specified.
  Using default value basis_acc =  0.1000000E-03.
  Species C                   : Using default innermost maximum threshold i_radial=  2 for radial functions.
  Species C                   : Default cutoff onset for free atom density etc. : 0.35000000E+01 AA.
  Species C                   : Basic radial grid will be enhanced according to radial_multiplier =   1, to contain    34 grid points.
 
  Reading configuration options for species N                   .
  | Found nuclear charge :   7.0000
  | Found atomic mass :    14.0067000000000      amu
  | Found l_max for Hartree potential  :   4
  | Found cutoff potl. onset [A], width [A], scale factor :    3.50000    1.50000    1.00000
  | Threshold for basis-dependent cutoff potential is   0.100000E-03
  | Found data for basic radial integration grid :    35 points, outermost radius =    5.000 A
  | Found multiplier for basic radial grid :   1
  | Found angular grid specification: user-specified.
  | Specified grid contains     5 separate shells.
  | Check grid settings after all constraints further below.
  | Found free-atom valence shell :  2 s   2.000
  | Found free-atom valence shell :  2 p   3.000
  | No ionic wave fns used. Skipping ion_occ.
  | No ionic wave fns used. Skipping ion_occ.
  | Found hydrogenic basis function :  2 p   1.800
  | Found hydrogenic basis function :  3 d   6.800
  | Found hydrogenic basis function :  3 s   5.800
  Species N                   : Missing cutoff potential type.
  Defaulting to exp(1/x)/(1-x)^2 type cutoff potential.
  Species N : No 'logarithmic' tag. Using default grid for free atom:
  | Default logarithmic grid data [bohr] : 0.1000E-03 0.1000E+03 0.1012E+01
  Species N : On-site basis accuracy parameter (for Gram-Schmidt orthonormalisation) not specified.
  Using default value basis_acc =  0.1000000E-03.
  Species N                   : Using default innermost maximum threshold i_radial=  2 for radial functions.
  Species N                   : Default cutoff onset for free atom density etc. : 0.35000000E+01 AA.
  Species N                   : Basic radial grid will be enhanced according to radial_multiplier =   1, to contain    35 grid points.
 
  Reading configuration options for species O                   .
  | Found nuclear charge :   8.0000
  | Found atomic mass :    15.9994000000000      amu
  | Found l_max for Hartree potential  :   4
  | Found cutoff potl. onset [A], width [A], scale factor :    3.50000    1.50000    1.00000
  | Threshold for basis-dependent cutoff potential is   0.100000E-03
  | Found data for basic radial integration grid :    36 points, outermost radius =    5.000 A
  | Found multiplier for basic radial grid :   1
  | Found angular grid specification: user-specified.
  | Specified grid contains     5 separate shells.
  | Check grid settings after all constraints further below.
  | Found free-atom valence shell :  2 s   2.000
  | Found free-atom valence shell :  2 p   4.000
  | No ionic wave fns used. Skipping ion_occ.
  | No ionic wave fns used. Skipping ion_occ.
  | Found hydrogenic basis function :  2 p   1.800
  | Found hydrogenic basis function :  3 d   7.600
  | Found hydrogenic basis function :  3 s   6.400
  Species O                   : Missing cutoff potential type.
  Defaulting to exp(1/x)/(1-x)^2 type cutoff potential.
  Species O : No 'logarithmic' tag. Using default grid for free atom:
  | Default logarithmic grid data [bohr] : 0.1000E-03 0.1000E+03 0.1012E+01
  Species O : On-site basis accuracy parameter (for Gram-Schmidt orthonormalisation) not specified.
  Using default value basis_acc =  0.1000000E-03.
  Species O                   : Using default innermost maximum threshold i_radial=  2 for radial functions.
  Species O                   : Default cutoff onset for free atom density etc. : 0.35000000E+01 AA.
  Species O                   : Basic radial grid will be enhanced according to radial_multiplier =   1, to contain    36 grid points.
 
  Finished reading input file 'control.in'. Consistency checks are next.
 
  MPI_IN_PLACE appears to work with this MPI implementation.
  | Keeping use_mpi_in_place .true. (see manual).
  Target number of points in a grid batch is not set. Defaulting to  100
  Method for grid partitioning is not set. Defaulting to parallel hash+maxmin partitioning.
  Batch size limit is not set. Defaulting to    200
  By default, will store active basis functions for each batch.
  If in need of memory, prune_basis_once .false. can be used to disable this option.
  communication_type for Hartree potential was not specified.
  Defaulting to calc_hartree .
  Pulay mixer: Number of initial linear mixing iterations not set.
  Defaulting to    0 iterations.
  Work space size for distributed Hartree potential not set.
  Defaulting to   0.200000E+03 MB.
  Algorithm-dependent basis array size parameters:
  | n_max_pulay                         :       10
  Presetting      1001 iterations before the initial mixing cycle
  is restarted anyway using the sc_init_iter criterion / keyword.
  Presetting a factor      1.000 between actual scf density residual
  and density convergence criterion sc_accuracy_rho below which sc_init_iter
  takes no effect.
  Geometry relaxation not requested: no relaxation will be performed.
  Handling of forces: Unphysical translation and rotation will be removed from forces.
  No accuracy limit for integral partition fn. given. Defaulting to  0.1000E-14.
  No threshold value for u(r) in integrations given. Defaulting to  0.1000E-05.
  No accuracy for occupation numbers given. Defaulting to  0.1000E-12.
  No threshold value for occupation numbers given. Defaulting to  0.0000E+00.
  No accuracy for fermi level given. Defaulting to  0.1000E-19.
  Maximum # of iterations to find E_F not set. Defaulting to  200.
  Preferred method for the eigenvalue solver ('KS_method') not specified in 'control.in'.
  Defaulting to serial version, 'lapack_fast'.
  Will not use alltoall communication since running on < 1024 CPUs.
  Threshold for basis singularities not set.
  Default threshold for basis singularities:  0.1000E-04
  partition_type (choice of integration weights) for integrals was not specified.
  | Using a version of the partition function of Stratmann and coworkers ('stratmann_smoother').
  | At each grid point, the set of atoms used to build the partition table is smoothly restricted to
  | only those atoms whose free-atom density would be non-zero at that grid point.
  Partitioning for Hartree potential was not defined. Using partition_type for integrals.
  | Adjusted default value of keyword multip_moments_threshold to:       0.10000000E-11
  | This value may affect high angular momentum components of the Hartree potential in periodic systems.
  No q(lm)/r^(l+1) cutoff set for long-range Hartree potential.
  | Using default value of  0.100000E-09 .
  | Verify using the multipole_threshold keyword.
  Defaulting to new monopole extrapolation.
  Density update method: automatic selection selected.
------------------------------------------------------------


------------------------------------------------------------
          Reading geometry description geometry.in.
------------------------------------------------------------
  Input structure read successfully.
  The structure contains       13 atoms,  and a total of         48.000 electrons.

  Input geometry:
  | No unit cell requested.
  | Atomic structure:
  |       Atom                x [A]            y [A]            z [A]
  |    1: Species C             0.00000000        0.00000000        0.00000000
  |    2: Species H             1.09300000        0.00000000        0.00000000
  |    3: Species N            -0.47961000        0.00000000       -1.41207000
  |    4: Species H             0.20441000       -0.49004000       -1.98983000
  |    5: Species H            -1.37880000       -0.47538000       -1.45186000
  |    6: Species C            -0.49584000        1.26211000        0.72868000
  |    7: Species H            -1.58789000        1.28919000        0.74431000
  |    8: Species H            -0.13407000        1.27425000        1.75947000
  |    9: Species H            -0.13407000        2.16087000        0.22380000
  |   10: Species C            -0.39425000       -1.28861000        0.74398000
  |   11: Species O            -0.10189000       -1.56493000        1.88303000
  |   12: Species O            -1.10210000       -2.13717000        0.06896000
  |   13: Species H            -1.10516000       -1.67205000       -0.78464000
  |

  | The smallest distance between any two atoms is         0.97210027 AA.
  |
  | The first atom of this pair is atom number                     12 .
  | The second atom of this pair is atom number                    13 .

  Number of empty states per atom not set in control.in - providing a guess from actual geometry.
  | Total number of empty states used during s.c.f. cycle:       29
  If you use a very high smearing, use empty_states (per atom!) in control.in to increase this value.

  Structure-dependent array size parameters: 
  | Maximum number of distinct radial functions  :       21
  | Maximum number of basis functions            :      119
  | Number of Kohn-Sham states (occupied + empty):       53
------------------------------------------------------------

------------------------------------------------------------
          Preparing all fixed parts of the calculation.
------------------------------------------------------------
  Determining machine precision:
    2.225073858507201E-308
  Setting up grids for atomic and cluster calculations.

  Creating wave function, potential, and density for free atoms.

  Species: H

  List of occupied orbitals and eigenvalues:
    n    l              occ      energy [Ha]    energy [eV]
    1    0           1.0000        -0.237589        -6.4651


  Species: C

  List of occupied orbitals and eigenvalues:
    n    l              occ      energy [Ha]    energy [eV]
    1    0           2.0000       -10.038835      -273.1706
    2    0           2.0000        -0.502696       -13.6791
    2    1           2.0000        -0.191971        -5.2238


  Species: N

  List of occupied orbitals and eigenvalues:
    n    l              occ      energy [Ha]    energy [eV]
    1    0           2.0000       -14.128000      -384.4424
    2    0           2.0000        -0.681077       -18.5330
    2    1           3.0000        -0.259788        -7.0692


  Species: O

  List of occupied orbitals and eigenvalues:
    n    l              occ      energy [Ha]    energy [eV]
    1    0           2.0000       -18.898188      -514.2459
    2    0           2.0000        -0.878505       -23.9053
    2    1           4.0000        -0.331779        -9.0282

  Creating fixed part of basis set: Ionic, confined, hydrogenic.
 
  H                    hydrogenic:
 
  List of hydrogenic basis orbitals: 
    n    l      effective z      eigenvalue [eV]  inner max. [A]     outer max. [A]     outer radius [A]   
    2    0         2.100000       -14.9728           0.193243           1.317208           4.583499
    2    1         3.500000       -41.6669           0.602369           0.602369           3.723403
 
 
  C                    hydrogenic:
 
  List of hydrogenic basis orbitals: 
    n    l      effective z      eigenvalue [eV]  inner max. [A]     outer max. [A]     outer radius [A]   
    2    1         1.700000        -9.7616           1.230570           1.230570           4.607917
    3    2         6.000000       -54.4224           0.792453           0.792453           3.883070
    2    0         4.900000       -81.6679           0.082559           0.562749           3.078220
 
 
  N                    hydrogenic:
 
  List of hydrogenic basis orbitals: 
    n    l      effective z      eigenvalue [eV]  inner max. [A]     outer max. [A]     outer radius [A]   
    2    1         1.800000       -10.9749           1.177451           1.177451           4.573712
    3    2         6.800000       -69.9026           0.704619           0.704619           3.538137
    3    0         5.800000       -50.8545           0.067388           1.191934           4.250239
 
 
  O                    hydrogenic:
 
  List of hydrogenic basis orbitals: 
    n    l      effective z      eigenvalue [eV]  inner max. [A]     outer max. [A]     outer radius [A]   
    2    1         1.800000       -10.9749           1.164242           1.164242           4.578029
    3    2         7.600000       -87.3180           0.624125           0.624125           3.251020
    3    0         6.400000       -61.9207           0.061167           1.081902           4.001998
 

  Adding cutoff potential to free-atom effective potential.
  Creating atomic-like basis functions for current effective potential.

  Species H                   :

  List of atomic basis orbitals and eigenvalues:
    n    l      energy [Ha]    energy [eV]    outer radius [A]
    1    0        -0.237589        -6.4651       4.527807


  Species C                   :

  List of atomic basis orbitals and eigenvalues:
    n    l      energy [Ha]    energy [eV]    outer radius [A]
    1    0       -10.038835      -273.1706       1.934409
    2    0        -0.502696       -13.6791       4.496620
    2    1        -0.191971        -5.2238       4.551928


  Species N                   :

  List of atomic basis orbitals and eigenvalues:
    n    l      energy [Ha]    energy [eV]    outer radius [A]
    1    0       -14.128000      -384.4424       1.637919
    2    0        -0.681077       -18.5330       4.463241
    2    1        -0.259788        -7.0692       4.518138


  Species O                   :

  List of atomic basis orbitals and eigenvalues:
    n    l      energy [Ha]    energy [eV]    outer radius [A]
    1    0       -18.898188      -514.2459       1.415765
    2    0        -0.878505       -23.9053       4.413171
    2    1        -0.331779        -9.0282       4.522403

  Assembling full basis from fixed parts.
  | Species H :   atomic orbital   1 s accepted.
  | Species H :    hydro orbital   2 s accepted.
  | Species H :    hydro orbital   2 p accepted.
  | Species C :   atomic orbital   1 s accepted.
  | Species C :    hydro orbital   2 s accepted.
  | Species C :   atomic orbital   2 s accepted.
  | Species C :   atomic orbital   2 p accepted.
  | Species C :    hydro orbital   2 p accepted.
  | Species C :    hydro orbital   3 d accepted.
  | Species N :   atomic orbital   1 s accepted.
  | Species N :    hydro orbital   3 s accepted.
  | Species N :   atomic orbital   2 s accepted.
  | Species N :   atomic orbital   2 p accepted.
  | Species N :    hydro orbital   2 p accepted.
  | Species N :    hydro orbital   3 d accepted.
  | Species O :   atomic orbital   1 s accepted.
  | Species O :    hydro orbital   3 s accepted.
  | Species O :   atomic orbital   2 s accepted.
  | Species O :   atomic orbital   2 p accepted.
  | Species O :    hydro orbital   2 p accepted.
  | Species O :    hydro orbital   3 d accepted.
 
  Basis size parameters after reduction:
  | Total number of radial functions:       21
  | Total number of basis functions :      119
 
  Per-task memory consumption for arrays in subroutine allocate_ext:
  |           5.250512MB.
  Testing on-site integration grid accuracy.
  |  Species  Function  <phi|h_atom|phi> (log., in eV)  <phi|h_atom|phi> (rad., in eV)
           1        1                 -6.4663192853                 -6.4651273558
           1        2                 13.7111246313                 13.7170609718
           1        3                 25.2673269279                 25.2674696378
           2        4               -273.1705927641               -273.1705631568
           2        5                -10.7109323383                -10.7107120029
           2        6                 17.4381822266                 17.4352413244
           2        7                 -5.2255326521                 -5.2270484734
           2        8                  8.6835629259                  8.6603288385
           2        9                 27.4952418996                 27.4953360207
           3       10               -384.4424306495               -384.4423701208
           3       11                 12.5842251816                 12.5842222903
           3       12                -15.7264628251                -15.7264433455
           3       13                 -7.0696854293                 -7.0701769954
           3       14                  8.8090390882                  8.7901077751
           3       15                 35.9586762123                 35.9588528632
           4       16               -514.2458688638               -514.2457643834
           4       17                 15.1795651126                 15.1795290741
           4       18                -21.5359799773                -21.5360846186
           4       19                 -9.0283069236                 -9.0284644067
           4       20                  8.3027758564                  8.2834874195
           4       21                 45.8339351984                 45.8338762259

  Preparing densities etc. for the partition functions (integrals / Hartree potential).

  Preparations completed.
  max(cpu_time)          :      0.145 s.
  Wall clock time (cpu1) :      0.146 s.
------------------------------------------------------------

------------------------------------------------------------
          Begin self-consistency loop: Initialization.

          Date     :  20200710, Time     :  145313.336
------------------------------------------------------------

  Initializing index lists of integration centers etc. from given atomic structure:
  | Number of centers in hartree potential         :        13
  | Number of centers in hartree multipole         :        13
  | Number of centers in electron density summation:        13
  | Number of centers in basis integrals           :        13
  | Number of centers in integrals                 :        13
  | Number of centers in hamiltonian               :        13
  Partitioning the integration grid into batches with parallel hashing+maxmin method.
  | Number of batches:      956
  | Maximal batch size:     139
  | Minimal batch size:      66
  | Average batch size:      72.851
  | Standard deviation of batch sizes:      17.513

  Integration load balanced across     1 MPI tasks.
  Work distribution over tasks is as follows:
  Task     0 has      69646 integration points.
  Initializing partition tables, free-atom densities, potentials, etc. across the integration grid (initialize_grid_storage).
  | initialize_grid_storage: Actual outermost partition radius vs. multipole_radius_free
  | (-- VB: in principle, multipole_radius_free should be larger, hence this output)
  | Species        1: Confinement radius =              4.999999999999999 AA, multipole_radius_free =              5.054417573612229 AA.
  | Species        1: outer_partition_radius set to              5.054417573612229 AA .
  | Species        2: Confinement radius =              4.999999999999999 AA, multipole_radius_free =              5.019602836301480 AA.
  | Species        2: outer_partition_radius set to              5.019602836301480 AA .
  | Species        3: Confinement radius =              4.999999999999999 AA, multipole_radius_free =              5.043624274424571 AA.
  | Species        3: outer_partition_radius set to              5.043624274424571 AA .
  | Species        4: Confinement radius =              4.999999999999999 AA, multipole_radius_free =              5.048384829883283 AA.
  | Species        4: outer_partition_radius set to              5.048384829883283 AA .
  | Original list of interatomic distances with          13 x         13 entries is created.
  | Net number of integration points:    69646
  | of which are non-zero points    :    59344
  Renormalizing the initial density to the exact electron count on the 3D integration grid.
  | Initial density: Formal number of electrons (from input files) :      48.0000000000
  | Integrated number of electrons on 3D grid     :      47.9999355016
  | Charge integration error                      :      -0.0000644984
  | Normalization factor for density and gradient :       1.0000013437
  Obtaining max. number of non-zero basis functions in each batch (get_n_compute_maxes).
  | Maximal number of non-zero basis functions:      119 in task     0
  Selecting the method for density update.
  Loop over occupied states selected for charge density update.
  Allocating        0.050 MB for KS_eigenvector
  Integrating Hamiltonian matrix: batch-based integration.
  Time summed over all CPUs for integration: real work        0.498 s, elapsed        0.498 s
  Integrating overlap matrix.
  Time summed over all CPUs for integration: real work        0.213 s, elapsed        0.213 s

  Updating Kohn-Sham eigenvalues and eigenvectors using ELSI and the ELPA eigensolver.
  Overlap matrix is nonsingular
  | Lowest eigenvalue of overlap  :  0.43E-02
  | Highest eigenvalue of overlap :  0.64E+01
  Finished singularity check of overlap matrix
  | Time :     0.002 s
  Finished Cholesky decomposition
  | Time :     0.000 s
  Finished transformation to standard eigenproblem
  | Time :     0.000 s
  Starting LAPACK eigensolver
  Finished solving standard eigenproblem
  | Time :     0.002 s
  Finished back-transformation of eigenvectors
  | Time :     0.000 s

  Obtaining occupation numbers and chemical potential using ELSI.
  | Chemical potential (Fermi level):    -9.52054209eV
  Writing Kohn-Sham eigenvalues.

  State    Occupation    Eigenvalue [Ha]    Eigenvalue [eV]
      1       2.00000         -19.008033         -517.23490
      2       2.00000         -18.977117         -516.39363
      3       2.00000         -14.247804         -387.70247
      4       2.00000         -10.166606         -276.64742
      5       2.00000         -10.142042         -275.97899
      6       2.00000         -10.132097         -275.70838
      7       2.00000          -1.183118          -32.19429
      8       2.00000          -1.102868          -30.01058
      9       2.00000          -0.995582          -27.09116
     10       2.00000          -0.863042          -23.48456
     11       2.00000          -0.751478          -20.44876
     12       2.00000          -0.682324          -18.56699
     13       2.00000          -0.648503          -17.64667
     14       2.00000          -0.617385          -16.79990
     15       2.00000          -0.575820          -15.66885
     16       2.00000          -0.558654          -15.20174
     17       2.00000          -0.553263          -15.05505
     18       2.00000          -0.526051          -14.31456
     19       2.00000          -0.514936          -14.01211
     20       2.00000          -0.497104          -13.52688
     21       2.00000          -0.473851          -12.89414
     22       2.00000          -0.430490          -11.71422
     23       2.00000          -0.425349          -11.57434
     24       2.00000          -0.383302          -10.43018
     25       0.00000          -0.148405           -4.03831
     26       0.00000          -0.071312           -1.94050
     27       0.00000          -0.028918           -0.78689
     28       0.00000          -0.024432           -0.66484
     29       0.00000           0.003602            0.09801
     30       0.00000           0.017966            0.48887
     31       0.00000           0.024085            0.65540
     32       0.00000           0.029187            0.79421
     33       0.00000           0.059596            1.62169
     34       0.00000           0.073339            1.99565
     35       0.00000           0.085016            2.31341
     36       0.00000           0.133084            3.62141
     37       0.00000           0.170565            4.64130
     38       0.00000           0.200113            5.44536
     39       0.00000           0.215147            5.85446
     40       0.00000           0.217486            5.91810
     41       0.00000           0.252002            6.85733
     42       0.00000           0.261272            7.10957
     43       0.00000           0.277572            7.55311
     44       0.00000           0.303018            8.24553
     45       0.00000           0.319236            8.68685
     46       0.00000           0.348566            9.48495
     47       0.00000           0.359771            9.78988
     48       0.00000           0.388535           10.57256
     49       0.00000           0.424958           11.56371
     50       0.00000           0.476831           12.97522
     51       0.00000           0.506206           13.77457
     52       0.00000           0.547857           14.90795
     53       0.00000           0.567741           15.44902

  Highest occupied state (VBM) at    -10.43018071 eV
  | Occupation number:      2.00000000

  Lowest unoccupied state (CBM) at    -4.03830663 eV
  | Occupation number:      0.00000000

  Overall HOMO-LUMO gap:      6.39187407 eV.
  Calculating total energy contributions from superposition of free atom densities.

  Total energy components:
  | Sum of eigenvalues            :        -188.91363465 Ha       -5140.60154985 eV
  | XC energy correction          :         -41.81790114 Ha       -1137.92298692 eV
  | XC potential correction       :          53.75994196 Ha        1462.88245129 eV
  | Free-atom electrostatic energy:        -146.78340452 Ha       -3994.17965851 eV
  | Hartree energy correction     :           0.00000000 Ha           0.00000000 eV
  | vdW energy correction         :           0.00000000 Ha           0.00000000 eV
  | Entropy correction            :           0.00000000 Ha           0.00000000 eV
  | ---------------------------
  | Total energy                  :        -323.75499835 Ha       -8809.82174400 eV
  | Total energy, T -> 0          :        -323.75499835 Ha       -8809.82174400 eV  <-- do not rely on this value for anything but (periodic) metals
  | Electronic free energy        :        -323.75499835 Ha       -8809.82174400 eV

  Derived energy quantities:
  | Kinetic energy                :         320.56064529 Ha        8722.89897449 eV
  | Electrostatic energy          :        -602.49774250 Ha      -16394.79773156 eV
  | Energy correction for multipole
  | error in Hartree potential    :           0.00000000 Ha           0.00000000 eV
  | Sum of eigenvalues per atom                           :        -395.43088845 eV
  | Total energy (T->0) per atom                          :        -677.67859569 eV  <-- do not rely on this value for anything but (periodic) metals
  | Electronic free energy per atom                       :        -677.67859569 eV
  Initialize hartree_potential_storage
  Max. number of atoms included in rho_multipole:           13

  End scf initialization - timings             :  max(cpu_time)    wall_clock(cpu1)
  | Time for scf. initialization               :        1.156 s           1.240 s
  | Boundary condition initialization          :        0.000 s           0.000 s
  | Integration                                :        0.710 s           0.711 s
  | Solution of K.-S. eqns.                    :        0.004 s           0.004 s
  | Grid partitioning                          :        0.111 s           0.112 s
  | Preloading free-atom quantities on grid    :        0.002 s           0.002 s
  | Free-atom superposition energy             :        0.084 s           0.085 s
  | Total energy evaluation                    :        0.000 s           0.000 s

  Partial memory accounting:
  | Current value for overall tracked memory usage on task 0  :           0.165 MB
  | Peak value for overall tracked memory usage on task 0     :           0.678 MB after allocating wave
  | Largest tracked array allocation on task 0 so far         :           0.132 MB  when allocating H_times_psi
  Note:  These values currently only include a subset of arrays which are explicitly tracked.
  The "true" memory usage will be greater.
------------------------------------------------------------

------------------------------------------------------------
          Begin self-consistency iteration #    1

  Date     :  20200710, Time     :  145314.576
------------------------------------------------------------
  Evaluating new KS density.
  Integration grid: deviation in total charge (<rho> - N_e) =  -3.552714E-14
  Pulay mixing of updated and previous charge densities.

  Evaluating partitioned Hartree potential by multipole expansion.
  | Analytical far-field extrapolation by fixed multipoles:
  | Hartree multipole sum: apparent total charge =  -0.170097E-03
  Summing up the Hartree potential.
  Time summed over all CPUs for potential: real work        0.293 s, elapsed        0.293 s
  | RMS charge density error from multipole expansion :   0.594638E-02

  Integrating Hamiltonian matrix: batch-based integration.
  Time summed over all CPUs for integration: real work        0.494 s, elapsed        0.494 s

  Updating Kohn-Sham eigenvalues and eigenvectors using ELSI and the ELPA eigensolver.
  Finished Cholesky decomposition
  | Time :     0.000 s
  Finished transformation to standard eigenproblem
  | Time :     0.000 s
  Starting LAPACK eigensolver
  Finished solving standard eigenproblem
  | Time :     0.001 s
  Finished back-transformation of eigenvectors
  | Time :     0.000 s

  Obtaining occupation numbers and chemical potential using ELSI.
  | Chemical potential (Fermi level):    -4.42912164eV
  Writing Kohn-Sham eigenvalues.

  State    Occupation    Eigenvalue [Ha]    Eigenvalue [eV]
      1       2.00000         -18.911278         -514.60206
      2       2.00000         -18.828920         -512.36097
      3       2.00000         -14.116855         -384.13916
      4       2.00000         -10.114235         -275.22233
      5       2.00000         -10.069546         -274.00628
      6       2.00000         -10.030825         -272.95264
      7       2.00000          -1.136617          -30.92891
      8       2.00000          -1.037034          -28.21913
      9       2.00000          -0.938057          -25.52584
     10       2.00000          -0.801073          -21.79830
     11       2.00000          -0.700875          -19.07178
     12       2.00000          -0.640702          -17.43438
     13       2.00000          -0.602324          -16.39007
     14       2.00000          -0.562758          -15.31342
     15       2.00000          -0.518351          -14.10506
     16       2.00000          -0.505199          -13.74718
     17       2.00000          -0.489079          -13.30851
     18       2.00000          -0.471809          -12.83856
     19       2.00000          -0.452300          -12.30771
     20       2.00000          -0.441868          -12.02383
     21       2.00000          -0.423282          -11.51810
     22       2.00000          -0.366866           -9.98294
     23       2.00000          -0.358579           -9.75743
     24       2.00000          -0.312763           -8.51071
     25       0.00000          -0.110424           -3.00479
     26       0.00000          -0.051827           -1.41029
     27       0.00000          -0.001840           -0.05007
     28       0.00000           0.011702            0.31842
     29       0.00000           0.040222            1.09451
     30       0.00000           0.055107            1.49954
     31       0.00000           0.060861            1.65612
     32       0.00000           0.064903            1.76611
     33       0.00000           0.095492            2.59846
     34       0.00000           0.105893            2.88150
     35       0.00000           0.112701            3.06676
     36       0.00000           0.162605            4.42471
     37       0.00000           0.194965            5.30526
     38       0.00000           0.226994            6.17683
     39       0.00000           0.241341            6.56723
     40       0.00000           0.249224            6.78172
     41       0.00000           0.283591            7.71690
     42       0.00000           0.297370            8.09185
     43       0.00000           0.308390            8.39173
     44       0.00000           0.336606            9.15950
     45       0.00000           0.355239            9.66654
     46       0.00000           0.383824           10.44439
     47       0.00000           0.399977           10.88392
     48       0.00000           0.426704           11.61120
     49       0.00000           0.458328           12.47174
     50       0.00000           0.510975           13.90433
     51       0.00000           0.541453           14.73370
     52       0.00000           0.576991           15.70072
     53       0.00000           0.599367           16.30962

  Highest occupied state (VBM) at     -8.51071448 eV
  | Occupation number:      2.00000000

  Lowest unoccupied state (CBM) at    -3.00478768 eV
  | Occupation number:      0.00000000

  Overall HOMO-LUMO gap:      5.50592679 eV.

  Total energy components:
  | Sum of eigenvalues            :        -185.66238714 Ha       -5052.13060371 eV
  | XC energy correction          :         -42.13828716 Ha       -1146.64113410 eV
  | XC potential correction       :          54.17649658 Ha        1474.21747926 eV
  | Free-atom electrostatic energy:        -146.78340452 Ha       -3994.17965851 eV
  | Hartree energy correction     :          -3.17248110 Ha         -86.32760308 eV
  | vdW energy correction         :           0.00000000 Ha           0.00000000 eV
  | Entropy correction            :           0.00000000 Ha           0.00000000 eV
  | ---------------------------
  | Total energy                  :        -323.58006334 Ha       -8805.06152015 eV
  | Total energy, T -> 0          :        -323.58006334 Ha       -8805.06152015 eV  <-- do not rely on this value for anything but (periodic) metals
  | Electronic free energy        :        -323.58006334 Ha       -8805.06152015 eV

  Derived energy quantities:
  | Kinetic energy                :         322.31123823 Ha        8770.53503206 eV
  | Electrostatic energy          :        -603.75301441 Ha      -16428.95541811 eV
  | Energy correction for multipole
  | error in Hartree potential    :           0.01198525 Ha           0.32613522 eV
  | Sum of eigenvalues per atom                           :        -388.62543105 eV
  | Total energy (T->0) per atom                          :        -677.31242463 eV  <-- do not rely on this value for anything but (periodic) metals
  | Electronic free energy per atom                       :        -677.31242463 eV

  Self-consistency convergence accuracy:
  | Change of charge density      :  0.5731E+00
  | Change of sum of eigenvalues  :  0.8847E+02 eV
  | Change of total energy        :  0.4760E+01 eV

  End self-consistency iteration #     1       :  max(cpu_time)    wall_clock(cpu1)
  | Time for this iteration                    :        1.198 s           1.199 s
  | Charge density update                      :        0.394 s           0.394 s
  | Density mixing                             :        0.005 s           0.006 s
  | Hartree multipole update                   :        0.008 s           0.008 s
  | Hartree multipole summation                :        0.294 s           0.294 s
  | Integration                                :        0.494 s           0.494 s
  | Solution of K.-S. eqns.                    :        0.002 s           0.002 s
  | Total energy evaluation                    :        0.000 s           0.000 s

  Partial memory accounting:
  | Current value for overall tracked memory usage on task 0  :           0.165 MB
  | Peak value for overall tracked memory usage on task 0     :           0.695 MB after allocating gradient_basis_wave
  | Largest tracked array allocation on task 0 so far         :           0.397 MB  when allocating gradient_basis_wave
  Note:  These values currently only include a subset of arrays which are explicitly tracked.
  The "true" memory usage will be greater.
------------------------------------------------------------

------------------------------------------------------------
          Begin self-consistency iteration #    2

  Date     :  20200710, Time     :  145315.776
------------------------------------------------------------
  Evaluating new KS density.
  Integration grid: deviation in total charge (<rho> - N_e) =  -2.842171E-14
  Pulay mixing of updated and previous charge densities.

  Evaluating partitioned Hartree potential by multipole expansion.
  | Analytical far-field extrapolation by fixed multipoles:
  | Hartree multipole sum: apparent total charge =  -0.304476E-03
  Summing up the Hartree potential.
  Time summed over all CPUs for potential: real work        0.293 s, elapsed        0.293 s
  | RMS charge density error from multipole expansion :   0.141209E-01

  Integrating Hamiltonian matrix: batch-based integration.
  Time summed over all CPUs for integration: real work        0.495 s, elapsed        0.495 s

  Updating Kohn-Sham eigenvalues and eigenvectors using ELSI and the ELPA eigensolver.
  Finished Cholesky decomposition
  | Time :     0.000 s
  Finished transformation to standard eigenproblem
  | Time :     0.000 s
  Starting LAPACK eigensolver
  Finished solving standard eigenproblem
  | Time :     0.001 s
  Finished back-transformation of eigenvectors
  | Time :     0.000 s

  Obtaining occupation numbers and chemical potential using ELSI.
  | Chemical potential (Fermi level):    -3.31891222eV
  Highest occupied state (VBM) at     -6.63463240 eV
  | Occupation number:      2.00000000

  Lowest unoccupied state (CBM) at    -1.67808300 eV
  | Occupation number:      0.00000000

  Overall HOMO-LUMO gap:      4.95654940 eV.

  Checking to see if s.c.f. parameters should be adjusted.

  Total energy components:
  | Sum of eigenvalues            :        -182.22630222 Ha       -4958.62997572 eV
  | XC energy correction          :         -42.48941307 Ha       -1156.19575628 eV
  | XC potential correction       :          54.63141542 Ha        1486.59645088 eV
  | Free-atom electrostatic energy:        -146.78340452 Ha       -3994.17965851 eV
  | Hartree energy correction     :          -6.63723170 Ha        -180.60826372 eV
  | vdW energy correction         :           0.00000000 Ha           0.00000000 eV
  | Entropy correction            :           0.00000000 Ha           0.00000000 eV
  | ---------------------------
  | Total energy                  :        -323.50493608 Ha       -8803.01720335 eV
  | Total energy, T -> 0          :        -323.50493608 Ha       -8803.01720335 eV  <-- do not rely on this value for anything but (periodic) metals
  | Electronic free energy        :        -323.50493608 Ha       -8803.01720335 eV

  Derived energy quantities:
  | Kinetic energy                :         323.61420071 Ha        8805.99044520 eV
  | Electrostatic energy          :        -604.62972372 Ha      -16452.81189228 eV
  | Energy correction for multipole
  | error in Hartree potential    :           0.02645593 Ha           0.71990237 eV
  | Sum of eigenvalues per atom                           :        -381.43307506 eV
  | Total energy (T->0) per atom                          :        -677.15516949 eV  <-- do not rely on this value for anything but (periodic) metals
  | Electronic free energy per atom                       :        -677.15516949 eV

  Self-consistency convergence accuracy:
  | Change of charge density      :  0.3585E+00
  | Change of sum of eigenvalues  :  0.9350E+02 eV
  | Change of total energy        :  0.2044E+01 eV

  End self-consistency iteration #     2       :  max(cpu_time)    wall_clock(cpu1)
  | Time for this iteration                    :        1.192 s           1.193 s
  | Charge density update                      :        0.386 s           0.387 s
  | Density mixing                             :        0.007 s           0.006 s
  | Hartree multipole update                   :        0.009 s           0.009 s
  | Hartree multipole summation                :        0.293 s           0.293 s
  | Integration                                :        0.495 s           0.495 s
  | Solution of K.-S. eqns.                    :        0.002 s           0.002 s
  | Total energy evaluation                    :        0.000 s           0.000 s

  Partial memory accounting:
  | Current value for overall tracked memory usage on task 0  :           0.166 MB
  | Peak value for overall tracked memory usage on task 0     :           0.695 MB after allocating gradient_basis_wave
  | Largest tracked array allocation on task 0 so far         :           0.397 MB  when allocating gradient_basis_wave
  Note:  These values currently only include a subset of arrays which are explicitly tracked.
  The "true" memory usage will be greater.
------------------------------------------------------------

------------------------------------------------------------
          Begin self-consistency iteration #    3

  Date     :  20200710, Time     :  145316.970
------------------------------------------------------------
  Evaluating new KS density.
  Integration grid: deviation in total charge (<rho> - N_e) =  -7.105427E-15
  Pulay mixing of updated and previous charge densities.

  Evaluating partitioned Hartree potential by multipole expansion.
  | Analytical far-field extrapolation by fixed multipoles:
  | Hartree multipole sum: apparent total charge =  -0.401981E-03
  Summing up the Hartree potential.
  Time summed over all CPUs for potential: real work        0.293 s, elapsed        0.293 s
  | RMS charge density error from multipole expansion :   0.223555E-01

  Integrating Hamiltonian matrix: batch-based integration.
  Time summed over all CPUs for integration: real work        0.500 s, elapsed        0.500 s

  Updating Kohn-Sham eigenvalues and eigenvectors using ELSI and the ELPA eigensolver.
  Finished Cholesky decomposition
  | Time :     0.000 s
  Finished transformation to standard eigenproblem
  | Time :     0.000 s
  Starting LAPACK eigensolver
  Finished solving standard eigenproblem
  | Time :     0.001 s
  Finished back-transformation of eigenvectors
  | Time :     0.000 s

  Obtaining occupation numbers and chemical potential using ELSI.
  | Chemical potential (Fermi level):    -2.68882472eV
  Highest occupied state (VBM) at     -5.99640360 eV
  | Occupation number:      2.00000000

  Lowest unoccupied state (CBM) at    -0.91736549 eV
  | Occupation number:      0.00000000

  Overall HOMO-LUMO gap:      5.07903811 eV.

  Total energy components:
  | Sum of eigenvalues            :        -180.84937617 Ha       -4921.16191150 eV
  | XC energy correction          :         -42.64850611 Ha       -1160.52489813 eV
  | XC potential correction       :          54.83432553 Ha        1492.11791580 eV
  | Free-atom electrostatic energy:        -146.78340452 Ha       -3994.17965851 eV
  | Hartree energy correction     :          -8.04574254 Ha        -218.93579387 eV
  | vdW energy correction         :           0.00000000 Ha           0.00000000 eV
  | Entropy correction            :           0.00000000 Ha           0.00000000 eV
  | ---------------------------
  | Total energy                  :        -323.49270381 Ha       -8802.68434621 eV
  | Total energy, T -> 0          :        -323.49270381 Ha       -8802.68434621 eV  <-- do not rely on this value for anything but (periodic) metals
  | Electronic free energy        :        -323.49270381 Ha       -8802.68434621 eV

  Derived energy quantities:
  | Kinetic energy                :         323.28190666 Ha        8796.94826402 eV
  | Electrostatic energy          :        -604.12610436 Ha      -16439.10771211 eV
  | Energy correction for multipole
  | error in Hartree potential    :           0.03777548 Ha           1.02792320 eV
  | Sum of eigenvalues per atom                           :        -378.55091627 eV
  | Total energy (T->0) per atom                          :        -677.12956509 eV  <-- do not rely on this value for anything but (periodic) metals
  | Electronic free energy per atom                       :        -677.12956509 eV

  Self-consistency convergence accuracy:
  | Change of charge density      :  0.2008E+00
  | Change of sum of eigenvalues  :  0.3747E+02 eV
  | Change of total energy        :  0.3329E+00 eV

  End self-consistency iteration #     3       :  max(cpu_time)    wall_clock(cpu1)
  | Time for this iteration                    :        1.194 s           1.200 s
  | Charge density update                      :        0.387 s           0.387 s
  | Density mixing                             :        0.008 s           0.008 s
  | Hartree multipole update                   :        0.009 s           0.009 s
  | Hartree multipole summation                :        0.293 s           0.293 s
  | Integration                                :        0.494 s           0.501 s
  | Solution of K.-S. eqns.                    :        0.002 s           0.002 s
  | Total energy evaluation                    :        0.000 s           0.000 s

  Partial memory accounting:
  | Current value for overall tracked memory usage on task 0  :           0.166 MB
  | Peak value for overall tracked memory usage on task 0     :           0.695 MB after allocating gradient_basis_wave
  | Largest tracked array allocation on task 0 so far         :           0.397 MB  when allocating gradient_basis_wave
  Note:  These values currently only include a subset of arrays which are explicitly tracked.
  The "true" memory usage will be greater.
------------------------------------------------------------

------------------------------------------------------------
          Begin self-consistency iteration #    4

  Date     :  20200710, Time     :  145318.171
------------------------------------------------------------
  Evaluating new KS density.
  Integration grid: deviation in total charge (<rho> - N_e) =   2.131628E-14
  Pulay mixing of updated and previous charge densities.

  Evaluating partitioned Hartree potential by multipole expansion.
  | Analytical far-field extrapolation by fixed multipoles:
  | Hartree multipole sum: apparent total charge =  -0.432893E-03
  Summing up the Hartree potential.
  Time summed over all CPUs for potential: real work        0.292 s, elapsed        0.292 s
  | RMS charge density error from multipole expansion :   0.259046E-01

  Integrating Hamiltonian matrix: batch-based integration.
  Time summed over all CPUs for integration: real work        0.494 s, elapsed        0.494 s

  Updating Kohn-Sham eigenvalues and eigenvectors using ELSI and the ELPA eigensolver.
  Finished Cholesky decomposition
  | Time :     0.000 s
  Finished transformation to standard eigenproblem
  | Time :     0.000 s
  Starting LAPACK eigensolver
  Finished solving standard eigenproblem
  | Time :     0.002 s
  Finished back-transformation of eigenvectors
  | Time :     0.000 s

  Obtaining occupation numbers and chemical potential using ELSI.
  | Chemical potential (Fermi level):    -2.62252224eV
  Highest occupied state (VBM) at     -5.72673758 eV
  | Occupation number:      2.00000000

  Lowest unoccupied state (CBM) at    -0.85790760 eV
  | Occupation number:      0.00000000

  Overall HOMO-LUMO gap:      4.86882998 eV.

  Total energy components:
  | Sum of eigenvalues            :        -180.78413697 Ha       -4919.38666257 eV
  | XC energy correction          :         -42.68105403 Ha       -1161.41057209 eV
  | XC potential correction       :          54.87485659 Ha        1493.22082213 eV
  | Free-atom electrostatic energy:        -146.78340452 Ha       -3994.17965851 eV
  | Hartree energy correction     :          -8.11797495 Ha        -220.90133765 eV
  | vdW energy correction         :           0.00000000 Ha           0.00000000 eV
  | Entropy correction            :           0.00000000 Ha           0.00000000 eV
  | ---------------------------
  | Total energy                  :        -323.49171387 Ha       -8802.65740869 eV
  | Total energy, T -> 0          :        -323.49171387 Ha       -8802.65740869 eV  <-- do not rely on this value for anything but (periodic) metals
  | Electronic free energy        :        -323.49171387 Ha       -8802.65740869 eV

  Derived energy quantities:
  | Kinetic energy                :         322.86037294 Ha        8785.47774786 eV
  | Electrostatic energy          :        -603.67103278 Ha      -16426.72458446 eV
  | Energy correction for multipole
  | error in Hartree potential    :           0.04199011 Ha           1.14260914 eV
  | Sum of eigenvalues per atom                           :        -378.41435866 eV
  | Total energy (T->0) per atom                          :        -677.12749298 eV  <-- do not rely on this value for anything but (periodic) metals
  | Electronic free energy per atom                       :        -677.12749298 eV

  Self-consistency convergence accuracy:
  | Change of charge density      :  0.6657E-01
  | Change of sum of eigenvalues  :  0.1775E+01 eV
  | Change of total energy        :  0.2694E-01 eV

  End self-consistency iteration #     4       :  max(cpu_time)    wall_clock(cpu1)
  | Time for this iteration                    :        1.195 s           1.196 s
  | Charge density update                      :        0.387 s           0.387 s
  | Density mixing                             :        0.009 s           0.010 s
  | Hartree multipole update                   :        0.009 s           0.009 s
  | Hartree multipole summation                :        0.293 s           0.293 s
  | Integration                                :        0.494 s           0.494 s
  | Solution of K.-S. eqns.                    :        0.002 s           0.002 s
  | Total energy evaluation                    :        0.000 s           0.000 s

  Partial memory accounting:
  | Current value for overall tracked memory usage on task 0  :           0.166 MB
  | Peak value for overall tracked memory usage on task 0     :           0.696 MB after allocating gradient_basis_wave
  | Largest tracked array allocation on task 0 so far         :           0.397 MB  when allocating gradient_basis_wave
  Note:  These values currently only include a subset of arrays which are explicitly tracked.
  The "true" memory usage will be greater.
------------------------------------------------------------

------------------------------------------------------------
          Begin self-consistency iteration #    5

  Date     :  20200710, Time     :  145319.367
------------------------------------------------------------
  Evaluating new KS density.
  Integration grid: deviation in total charge (<rho> - N_e) =  -2.131628E-14
  Pulay mixing of updated and previous charge densities.

  Evaluating partitioned Hartree potential by multipole expansion.
  | Analytical far-field extrapolation by fixed multipoles:
  | Hartree multipole sum: apparent total charge =  -0.428251E-03
  Summing up the Hartree potential.
  Time summed over all CPUs for potential: real work        0.293 s, elapsed        0.293 s
  | RMS charge density error from multipole expansion :   0.256417E-01

  Integrating Hamiltonian matrix: batch-based integration.
  Time summed over all CPUs for integration: real work        0.494 s, elapsed        0.494 s

  Updating Kohn-Sham eigenvalues and eigenvectors using ELSI and the ELPA eigensolver.
  Finished Cholesky decomposition
  | Time :     0.000 s
  Finished transformation to standard eigenproblem
  | Time :     0.000 s
  Starting LAPACK eigensolver
  Finished solving standard eigenproblem
  | Time :     0.001 s
  Finished back-transformation of eigenvectors
  | Time :     0.000 s

  Obtaining occupation numbers and chemical potential using ELSI.
  | Chemical potential (Fermi level):    -2.65793215eV
  Highest occupied state (VBM) at     -5.84549284 eV
  | Occupation number:      2.00000000

  Lowest unoccupied state (CBM) at    -0.91396719 eV
  | Occupation number:      0.00000000

  Overall HOMO-LUMO gap:      4.93152565 eV.

  Total energy components:
  | Sum of eigenvalues            :        -180.90436210 Ha       -4922.65815471 eV
  | XC energy correction          :         -42.66439483 Ha       -1160.95725219 eV
  | XC potential correction       :          54.85328809 Ha        1492.63391344 eV
  | Free-atom electrostatic energy:        -146.78340452 Ha       -3994.17965851 eV
  | Hartree energy correction     :          -7.99251689 Ha        -217.48745021 eV
  | vdW energy correction         :           0.00000000 Ha           0.00000000 eV
  | Entropy correction            :           0.00000000 Ha           0.00000000 eV
  | ---------------------------
  | Total energy                  :        -323.49139024 Ha       -8802.64860218 eV
  | Total energy, T -> 0          :        -323.49139024 Ha       -8802.64860218 eV  <-- do not rely on this value for anything but (periodic) metals
  | Electronic free energy        :        -323.49139024 Ha       -8802.64860218 eV

  Derived energy quantities:
  | Kinetic energy                :         322.79752111 Ha        8783.76746244 eV
  | Electrostatic energy          :        -603.62451651 Ha      -16425.45881244 eV
  | Energy correction for multipole
  | error in Hartree potential    :           0.04142688 Ha           1.12728265 eV
  | Sum of eigenvalues per atom                           :        -378.66601190 eV
  | Total energy (T->0) per atom                          :        -677.12681555 eV  <-- do not rely on this value for anything but (periodic) metals
  | Electronic free energy per atom                       :        -677.12681555 eV

  Self-consistency convergence accuracy:
  | Change of charge density      :  0.2396E-01
  | Change of sum of eigenvalues  : -0.3271E+01 eV
  | Change of total energy        :  0.8807E-02 eV

  End self-consistency iteration #     5       :  max(cpu_time)    wall_clock(cpu1)
  | Time for this iteration                    :        1.196 s           1.197 s
  | Charge density update                      :        0.387 s           0.387 s
  | Density mixing                             :        0.011 s           0.011 s
  | Hartree multipole update                   :        0.008 s           0.009 s
  | Hartree multipole summation                :        0.293 s           0.293 s
  | Integration                                :        0.494 s           0.494 s
  | Solution of K.-S. eqns.                    :        0.002 s           0.002 s
  | Total energy evaluation                    :        0.000 s           0.000 s

  Partial memory accounting:
  | Current value for overall tracked memory usage on task 0  :           0.166 MB
  | Peak value for overall tracked memory usage on task 0     :           0.696 MB after allocating gradient_basis_wave
  | Largest tracked array allocation on task 0 so far         :           0.397 MB  when allocating gradient_basis_wave
  Note:  These values currently only include a subset of arrays which are explicitly tracked.
  The "true" memory usage will be greater.
------------------------------------------------------------

------------------------------------------------------------
          Begin self-consistency iteration #    6

  Date     :  20200710, Time     :  145320.564
------------------------------------------------------------
  Evaluating new KS density.
  Integration grid: deviation in total charge (<rho> - N_e) =  -2.842171E-14
  Pulay mixing of updated and previous charge densities.

  Evaluating partitioned Hartree potential by multipole expansion.
  | Analytical far-field extrapolation by fixed multipoles:
  | Hartree multipole sum: apparent total charge =  -0.429197E-03
  Summing up the Hartree potential.
  Time summed over all CPUs for potential: real work        0.292 s, elapsed        0.292 s
  | RMS charge density error from multipole expansion :   0.259269E-01

  Integrating Hamiltonian matrix: batch-based integration.
  Time summed over all CPUs for integration: real work        0.494 s, elapsed        0.494 s

  Updating Kohn-Sham eigenvalues and eigenvectors using ELSI and the ELPA eigensolver.
  Finished Cholesky decomposition
  | Time :     0.000 s
  Finished transformation to standard eigenproblem
  | Time :     0.000 s
  Starting LAPACK eigensolver
  Finished solving standard eigenproblem
  | Time :     0.002 s
  Finished back-transformation of eigenvectors
  | Time :     0.000 s

  Obtaining occupation numbers and chemical potential using ELSI.
  | Chemical potential (Fermi level):    -2.68031662eV
  Highest occupied state (VBM) at     -5.87910664 eV
  | Occupation number:      2.00000000

  Lowest unoccupied state (CBM) at    -0.95919938 eV
  | Occupation number:      0.00000000

  Overall HOMO-LUMO gap:      4.91990726 eV.

  Total energy components:
  | Sum of eigenvalues            :        -180.97230514 Ha       -4924.50697895 eV
  | XC energy correction          :         -42.65566277 Ha       -1160.71964069 eV
  | XC potential correction       :          54.84193354 Ha        1492.32494034 eV
  | Free-atom electrostatic energy:        -146.78340452 Ha       -3994.17965851 eV
  | Hartree energy correction     :          -7.92186629 Ha        -215.56494955 eV
  | vdW energy correction         :           0.00000000 Ha           0.00000000 eV
  | Entropy correction            :           0.00000000 Ha           0.00000000 eV
  | ---------------------------
  | Total energy                  :        -323.49130517 Ha       -8802.64628736 eV
  | Total energy, T -> 0          :        -323.49130517 Ha       -8802.64628736 eV  <-- do not rely on this value for anything but (periodic) metals
  | Electronic free energy        :        -323.49130517 Ha       -8802.64628736 eV

  Derived energy quantities:
  | Kinetic energy                :         322.69438588 Ha        8780.96101007 eV
  | Electrostatic energy          :        -603.53002828 Ha      -16422.88765674 eV
  | Energy correction for multipole
  | error in Hartree potential    :           0.04148230 Ha           1.12879072 eV
  | Sum of eigenvalues per atom                           :        -378.80822915 eV
  | Total energy (T->0) per atom                          :        -677.12663749 eV  <-- do not rely on this value for anything but (periodic) metals
  | Electronic free energy per atom                       :        -677.12663749 eV

  Self-consistency convergence accuracy:
  | Change of charge density      :  0.1118E-01
  | Change of sum of eigenvalues  : -0.1849E+01 eV
  | Change of total energy        :  0.2315E-02 eV

  End self-consistency iteration #     6       :  max(cpu_time)    wall_clock(cpu1)
  | Time for this iteration                    :        1.197 s           1.198 s
  | Charge density update                      :        0.387 s           0.388 s
  | Density mixing                             :        0.012 s           0.012 s
  | Hartree multipole update                   :        0.009 s           0.008 s
  | Hartree multipole summation                :        0.293 s           0.293 s
  | Integration                                :        0.494 s           0.495 s
  | Solution of K.-S. eqns.                    :        0.002 s           0.002 s
  | Total energy evaluation                    :        0.000 s           0.000 s

  Partial memory accounting:
  | Current value for overall tracked memory usage on task 0  :           0.166 MB
  | Peak value for overall tracked memory usage on task 0     :           0.696 MB after allocating gradient_basis_wave
  | Largest tracked array allocation on task 0 so far         :           0.397 MB  when allocating gradient_basis_wave
  Note:  These values currently only include a subset of arrays which are explicitly tracked.
  The "true" memory usage will be greater.
------------------------------------------------------------

------------------------------------------------------------
          Begin self-consistency iteration #    7

  Date     :  20200710, Time     :  145321.763
------------------------------------------------------------
  Evaluating new KS density.
  Integration grid: deviation in total charge (<rho> - N_e) =  -2.842171E-14
  Pulay mixing of updated and previous charge densities.

  Evaluating partitioned Hartree potential by multipole expansion.
  | Analytical far-field extrapolation by fixed multipoles:
  | Hartree multipole sum: apparent total charge =  -0.430586E-03
  Summing up the Hartree potential.
  Time summed over all CPUs for potential: real work        0.292 s, elapsed        0.292 s
  | RMS charge density error from multipole expansion :   0.260841E-01

  Integrating Hamiltonian matrix: batch-based integration.
  Time summed over all CPUs for integration: real work        0.495 s, elapsed        0.495 s

  Updating Kohn-Sham eigenvalues and eigenvectors using ELSI and the ELPA eigensolver.
  Finished Cholesky decomposition
  | Time :     0.000 s
  Finished transformation to standard eigenproblem
  | Time :     0.000 s
  Starting LAPACK eigensolver
  Finished solving standard eigenproblem
  | Time :     0.001 s
  Finished back-transformation of eigenvectors
  | Time :     0.000 s

[...]
  |   Hirshfeld dipole moment :      0.06267576
  |   Hirshfeld second moments:      0.00020485      -0.02473372      -0.01440514
  |                                 -0.02473372      -0.02779811       0.00666647
  |                                 -0.01440514       0.00666647      -0.02266287
  ----------------------------------------------------------------------
  | Atom    12: O
  |   Hirshfeld charge        :     -0.14736119
  |   Free atom volume        :     23.61338643
  |   Hirshfeld volume        :     21.15700625
  |   Hirshfeld dipole vector :      0.01687425       0.03753175      -0.00779467
  |   Hirshfeld dipole moment :      0.04188233
  |   Hirshfeld second moments:      0.05268387      -0.01253416       0.01085343
  |                                 -0.01253416       0.02778916       0.00923241
  |                                  0.01085343       0.00923241       0.07639376
  ----------------------------------------------------------------------
  | Atom    13: H
  |   Hirshfeld charge        :      0.11848413
  |   Free atom volume        :      9.95071624
  |   Hirshfeld volume        :      6.87828922
  |   Hirshfeld dipole vector :     -0.01903412       0.00297805      -0.07297767
  |   Hirshfeld dipole moment :      0.07547786
  |   Hirshfeld second moments:      0.10817730      -0.01285631       0.00765123
  |                                 -0.01285631       0.06722347       0.02937937
  |                                  0.00765123       0.02937937       0.08993712
  ----------------------------------------------------------------------


  Total energy components:
  | Sum of eigenvalues            :        -180.95990469 Ha       -4924.16954573 eV
  | XC energy correction          :         -42.65420686 Ha       -1160.68002349 eV
  | XC potential correction       :          54.84011207 Ha        1492.27537551 eV
  | Free-atom electrostatic energy:        -146.78340452 Ha       -3994.17965851 eV
  | Hartree energy correction     :          -7.93388343 Ha        -215.89195253 eV
  | vdW energy correction         :          -0.00327128 Ha          -0.08901614 eV
  | Entropy correction            :           0.00000000 Ha           0.00000000 eV
  | ---------------------------
  | Total energy                  :        -323.49455872 Ha       -8802.73482088 eV
  | Total energy, T -> 0          :        -323.49455872 Ha       -8802.73482088 eV  <-- do not rely on this value for anything but (periodic) metals
  | Electronic free energy        :        -323.49455872 Ha       -8802.73482088 eV

  Derived energy quantities:
  | Kinetic energy                :         322.65976340 Ha        8780.01888455 eV
  | Electrostatic energy          :        -603.49684397 Ha      -16421.98466581 eV
  | Energy correction for multipole
  | error in Hartree potential    :           0.04157230 Ha           1.13123973 eV
  | Sum of eigenvalues per atom                           :        -378.78227275 eV
  | Total energy (T->0) per atom                          :        -677.13344776 eV  <-- do not rely on this value for anything but (periodic) metals
  | Electronic free energy per atom                       :        -677.13344776 eV

  atomic forces [eV/Ang]:
  -----------------------
  atom #    1
   Hellmann-Feynman              :  0.329851E+00 -0.744190E-01  0.152597E+01
   Ionic forces                  :  0.000000E+00  0.000000E+00  0.000000E+00
   Multipole                     :  0.944762E-01  0.106065E+00 -0.155387E+00
   Pulay + GGA                   : -0.805882E+00  0.332989E+00 -0.155598E+01
   Van der Waals                 :  0.209314E-02  0.127533E-02 -0.113337E-02
   ----------------------------------------------------------------
   Total forces(   1)            : -0.379461E+00  0.365910E+00 -0.186528E+00
  atom #    2
   Hellmann-Feynman              :  0.203430E+00  0.447564E-01 -0.187359E+00
   Ionic forces                  :  0.000000E+00  0.000000E+00  0.000000E+00
   Multipole                     :  0.186592E+00  0.178334E-01  0.158293E-01
   Pulay + GGA                   : -0.143231E+00  0.190325E-01  0.605264E-01
   Van der Waals                 :  0.322058E-02 -0.448671E-02 -0.689313E-02
   ----------------------------------------------------------------
   Total forces(   2)            :  0.250011E+00  0.771356E-01 -0.117896E+00
  atom #    3
   Hellmann-Feynman              : -0.458629E+00  0.105006E+02 -0.250250E+01
   Ionic forces                  :  0.000000E+00  0.000000E+00  0.000000E+00
   Multipole                     : -0.907487E-01  0.298824E+00 -0.748814E+00
   Pulay + GGA                   :  0.129127E+01 -0.105939E+02  0.375633E+01
   Van der Waals                 :  0.357296E-02 -0.522763E-02 -0.865391E-02
   ----------------------------------------------------------------
   Total forces(   3)            :  0.745463E+00  0.200334E+00  0.496364E+00
  atom #    4
   Hellmann-Feynman              : -0.129186E+00 -0.232330E+00 -0.217693E+00
   Ionic forces                  :  0.000000E+00  0.000000E+00  0.000000E+00
   Multipole                     :  0.258747E-01 -0.604801E-01 -0.102573E+00
   Pulay + GGA                   : -0.102418E+00  0.206410E+00  0.684511E-01
   Van der Waals                 :  0.123494E-03  0.598367E-02 -0.398737E-02
   ----------------------------------------------------------------
   Total forces(   4)            : -0.205606E+00 -0.804159E-01 -0.255802E+00
  atom #    5
   Hellmann-Feynman              : -0.512268E+00  0.317925E+00 -0.526008E+00
   Ionic forces                  :  0.000000E+00  0.000000E+00  0.000000E+00
   Multipole                     : -0.805589E-01 -0.297500E-01 -0.877635E-01
   Pulay + GGA                   :  0.153399E+00  0.295714E+00 -0.545803E-01
   Van der Waals                 : -0.323905E-03  0.622402E-03 -0.353775E-02
   ----------------------------------------------------------------
   Total forces(   5)            : -0.439752E+00  0.584511E+00 -0.671889E+00
  atom #    6
   Hellmann-Feynman              :  0.126849E+00 -0.219030E+00  0.352500E+00
   Ionic forces                  :  0.000000E+00  0.000000E+00  0.000000E+00
   Multipole                     : -0.132611E+00  0.647244E+00  0.250569E+00
   Pulay + GGA                   :  0.164223E+00 -0.767579E+00 -0.547738E+00
   Van der Waals                 : -0.777324E-03  0.567922E-02 -0.321734E-02
   ----------------------------------------------------------------
   Total forces(   6)            :  0.157683E+00 -0.333686E+00  0.521141E-01
  atom #    7
   Hellmann-Feynman              : -0.226215E+00 -0.498748E-01 -0.329013E-01
   Ionic forces                  :  0.000000E+00  0.000000E+00  0.000000E+00
   Multipole                     : -0.117987E+00  0.502910E-01  0.261623E-01
   Pulay + GGA                   :  0.118167E+00  0.242321E-01  0.168834E-01
   Van der Waals                 : -0.175679E-02  0.614392E-03  0.313178E-02
   ----------------------------------------------------------------
   Total forces(   7)            : -0.227792E+00  0.252627E-01  0.132761E-01
  atom #    8
   Hellmann-Feynman              :  0.417729E-01 -0.925710E-01  0.134782E+00
   Ionic forces                  :  0.000000E+00  0.000000E+00  0.000000E+00
   Multipole                     :  0.171211E-01  0.677573E-01  0.126394E+00
   Pulay + GGA                   : -0.467549E-01 -0.419586E-01 -0.908875E-01
   Van der Waals                 : -0.284956E-02  0.112518E-01  0.144994E-02
   ----------------------------------------------------------------
   Total forces(   8)            :  0.928957E-02 -0.555205E-01  0.171739E+00
  atom #    9
   Hellmann-Feynman              :  0.865205E-01  0.762890E-02 -0.183578E+00
   Ionic forces                  :  0.000000E+00  0.000000E+00  0.000000E+00
   Multipole                     :  0.178637E-01  0.132094E+00 -0.854535E-02
   Pulay + GGA                   : -0.519229E-01 -0.951967E-01  0.289790E-01
   Van der Waals                 : -0.259772E-02  0.219557E-02  0.350844E-02
   ----------------------------------------------------------------
   Total forces(   9)            :  0.498636E-01  0.467215E-01 -0.159636E+00
  atom #   10
   Hellmann-Feynman              :  0.262271E+01  0.352155E+01  0.215782E+01
   Ionic forces                  :  0.000000E+00  0.000000E+00  0.000000E+00
   Multipole                     :  0.150135E-01 -0.154865E-01  0.174081E+00
   Pulay + GGA                   : -0.151786E+01 -0.263570E+01 -0.209202E+00
   Van der Waals                 :  0.245300E-02 -0.152621E-01  0.838014E-02
   ----------------------------------------------------------------
   Total forces(  10)            :  0.112231E+01  0.855102E+00  0.213108E+01
  atom #   11
   Hellmann-Feynman              :  0.415171E+01 -0.235624E+01  0.142784E+02
   Ionic forces                  :  0.000000E+00  0.000000E+00  0.000000E+00
   Multipole                     :  0.207588E+00 -0.599675E+00  0.967178E+00
   Pulay + GGA                   : -0.364549E+01  0.355591E+01 -0.141142E+02
   Van der Waals                 : -0.180318E-02 -0.118828E-01  0.616306E-02
   ----------------------------------------------------------------
   Total forces(  11)            :  0.712012E+00  0.588115E+00  0.113752E+01
  atom #   12
   Hellmann-Feynman              : -0.658764E+01 -0.125541E+02  0.157700E+01
   Ionic forces                  :  0.000000E+00  0.000000E+00  0.000000E+00
   Multipole                     : -0.879262E+00 -0.174695E+01 -0.143268E+00
   Pulay + GGA                   :  0.610437E+01  0.127913E+02 -0.297234E+01
   Van der Waals                 :  0.266593E-03  0.386267E-02  0.605124E-02
   ----------------------------------------------------------------
   Total forces(  12)            : -0.136227E+01 -0.150586E+01 -0.153256E+01
  atom #   13
   Hellmann-Feynman              : -0.501713E+00 -0.602524E+00 -0.140643E+01
   Ionic forces                  :  0.000000E+00  0.000000E+00  0.000000E+00
   Multipole                     :  0.320896E-01  0.507690E-01 -0.956769E-01
   Pulay + GGA                   :  0.380371E-01 -0.221779E+00  0.418282E+00
   Van der Waals                 : -0.162129E-02  0.537418E-02 -0.126174E-02
   ----------------------------------------------------------------
   Total forces(  13)            : -0.433208E+00 -0.768159E+00 -0.108509E+01

  Timings for VdW correction (Tkatchenko-Scheffler 2009 or later):
  | CPU time:        0.090 s, Wall clock time:        0.091 s.
  Removing unitary transformations (pure translations, rotations) from forces on atoms.
  Atomic forces before filtering:
  | Net force on center of mass :  -0.145485E-02 -0.552481E-03 -0.730248E-02 eV/A
  | Net torque on center of mass:   0.455038E-02  0.189375E-02 -0.618046E-02 eV
  Atomic forces after filtering:
  | Net force on center of mass :   0.267609E-15  0.000000E+00 -0.356812E-15 eV/A
  | Net torque on center of mass:  -0.944085E-16  0.472042E-15  0.944085E-16 eV

  Energy and forces in a compact form:
  | Total energy uncorrected      :         -0.880273482088396E+04 eV
  | Total energy corrected        :         -0.880273482088396E+04 eV  <-- do not rely on this value for anything but (periodic) metals
  | Electronic free energy        :         -0.880273482088396E+04 eV
  Total atomic forces (unitary forces cleaned) [eV/Ang]:
  |   1         -0.379374010697577E+00          0.366039646199501E+00         -0.185956377406532E+00
  |   2          0.250098781914804E+00          0.774972122765050E-01         -0.117263482434129E+00
  |   3          0.745630233940631E+00          0.200197997472300E+00          0.496908320771964E+00
  |   4         -0.205302767549889E+00         -0.804731901442894E-01         -0.255162739759739E+00
  |   5         -0.439481810813910E+00          0.584179990533433E+00         -0.671340483368595E+00
  |   6          0.157461092025532E+00         -0.333577288220257E+00          0.525115689613125E-01
  |   7         -0.228020135463686E+00          0.251414886193079E-01          0.136089744870828E-01
  |   8          0.900737127322155E-02         -0.552157459310354E-01          0.172154997607349E+00
  |   9          0.494797017651772E-01          0.468485139024731E-01         -0.159321840945186E+00
  |  10          0.112263076746596E+01          0.855233663839925E+00          0.213177875533244E+01
  |  11          0.712325396864584E+00          0.588440565577448E+00          0.113827052414793E+01
  |  12         -0.136173302955164E+01         -0.150595779125576E+01         -0.153180565491503E+01
  |  13         -0.432721591173205E+00         -0.768355062869550E+00         -0.108438256247886E+01

  ------------------------------------ 
  Start decomposition of the XC Energy 
  ------------------------------------ 
  X and C from original XC functional choice 
  Hartree-Fock Energy :          0.000000000 Ha              0.000000000 eV
  X Energy            :        -41.049910779 Ha          -1117.024905902 eV
  C Energy            :         -1.604296084 Ha            -43.655117585 eV
  Total XC Energy     :        -42.654206863 Ha          -1160.680023488 eV
  ------------------------------------ 
  LDA X and C from self-consistent density 
  X Energy LDA        :        -37.272976234 Ha          -1014.249287749 eV
  C Energy LDA        :         -3.139958316 Ha            -85.442613055 eV
  ------------------------------------ 
  End decomposition of the XC Energy 
  ------------------------------------ 

------------------------------------------------------------

------------------------------------------------------------------------------
  Final output of selected total energy values:

  The following output summarizes some interesting total energy values
  at the end of a run (AFTER all relaxation, molecular dynamics, etc.).

  | Total energy of the DFT / Hartree-Fock s.c.f. calculation      :          -8802.734820884 eV
  | Final zero-broadening corrected energy (caution - metals only) :          -8802.734820884 eV
  | For reference only, the value of 1 Hartree used in FHI-aims is :             27.211384500 eV

  Before relying on these values, please be sure to understand exactly which
  total energy value is referred to by a given number. Different objects may
  all carry the same name 'total energy'. Definitions:

  Total energy of the DFT / Hartree-Fock s.c.f. calculation:
  | Note that this energy does not include ANY quantities calculated after the
  | s.c.f. cycle, in particular not ANY RPA, MP2, etc. many-body perturbation terms.

  Final zero-broadening corrected energy:
  | For metallic systems only, a broadening of the occupation numbers at the Fermi
  | level can be extrapolated back to zero broadening by an electron-gas inspired
  | formula. For all systems that are not real metals, this value can be
  | meaningless and should be avoided.

------------------------------------------------------------------------------
  Methods described in the following list of references were used in this FHI-aims run.
  If you publish the results, please make sure to cite these reference if they apply.
  FHI-aims is an academic code, and for our developers (often, Ph.D. students
  and postdocs), scientific credit in the community is essential.
  Thank you for helping us!

  For any use of FHI-aims, please cite:

    Volker Blum, Ralf Gehrke, Felix Hanke, Paula Havu, Ville Havu,
    Xinguo Ren, Karsten Reuter, and Matthias Scheffler
    'Ab initio molecular simulations with numeric atom-centered orbitals'
    Computer Physics Communications 180, 2175-2196 (2009)
    http://dx.doi.org/10.1016/j.cpc.2009.06.022


  The scalable eigensolver library ELPA was used in your run.
  ELPA is essential especially for large systems on hundreds or thousands of CPUs.
  For ELPA, please cite:

    Andreas Marek, Volker Blum, Rainer Johanni, Ville Havu, Bruno Lang,
    Thomas Auckenthaler, Alexander Heinecke, Hans-Joachim Bungartz, and Hermann Lederer,
    'The ELPA Library - Scalable Parallel Eigenvalue Solutions
    for Electronic Structure Theory and Computational Science'
    The Journal of Physics: Condensed Matter 26, 213201 (2014).
    http://dx.doi.org/10.1088/0953-8984/26/21/213201


  The ELSI infrastructure was used in your run to solve the Kohn-Sham electronic structure.
  Please check out http://elsi-interchange.org to learn more.
  If scalability is important for your project, please acknowledge ELSI by citing:

    V. W-z. Yu, F. Corsetti, A. Garcia, W. P. Huhn, M. Jacquelin, W. Jia,
    B. Lange, L. Lin, J. Lu, W. Mi, A. Seifitokaldani, A. Vazquez-Mayagoitia,
    C. Yang, H. Yang, and V. Blum
    'ELSI: A unified software interface for Kohn-Sham electronic structure solvers'
    Computer Physics Communications 222, 267-285 (2018).
    http://dx.doi.org/10.1016/j.cpc.2017.09.007


  For the real-space grid partitioning and parallelization used in this calculation, please cite:

    Ville Havu, Volker Blum, Paula Havu, and Matthias Scheffler,
    'Efficient O(N) integration for all-electron electronic structure calculation'
    'using numerically tabulated basis functions'
    Journal of Computational Physics 228, 8367-8379 (2009).
    http://dx.doi.org/10.1016/j.jcp.2009.08.008

  Of course, there are many other important community references, e.g., those cited in the
  above references. Our list is limited to references that describe implementations in the
  FHI-aims code. The reason is purely practical (length of this list) - please credit others as well.

------------------------------------------------------------
          Leaving FHI-aims.
          Date     :  20200710, Time     :  145336.208

          Computational steps:
          | Number of self-consistency cycles          :           16
          | Number of SCF (re)initializations          :            1

          Detailed time accounting                     :  max(cpu_time)    wall_clock(cpu1)
          | Total time                                 :       22.907 s          23.032 s
          | Preparation time                           :        0.145 s           0.146 s
          | Boundary condition initalization           :        0.000 s           0.000 s
          | Grid partitioning                          :        0.111 s           0.112 s
          | Preloading free-atom quantities on grid    :        0.002 s           0.002 s
          | Free-atom superposition energy             :        0.084 s           0.085 s
          | Total time for integrations                :        8.625 s           8.637 s
          | Total time for solution of K.-S. equations :        0.036 s           0.036 s
          | Total time for density & force components  :        7.150 s           7.161 s
          | Total time for mixing                      :        0.212 s           0.215 s
          | Total time for Hartree multipole update    :        0.139 s           0.138 s
          | Total time for Hartree multipole sum       :        6.000 s           6.003 s
          | Total time for total energy evaluation     :        0.003 s           0.002 s
          | Total time for vdW correction              :        0.090 s           0.091 s

          Partial memory accounting:
          | Residual value for overall tracked memory usage across tasks :           0.000 MB (should be 0.000 MB)
          | Peak values for overall tracked memory usage (after allocating hessian_basis_wave):
          |   Minimum:        1.622 MB (on task 1)
          |   Maximum:        1.622 MB (on task 1)
          |   Average:        1.622 MB
          | Largest tracked array allocation (hessian_basis_wave):
          |   Minimum:        0.794 MB (on task 1)
          |   Maximum:        0.794 MB (on task 1)
          |   Average:        0.794 MB
          Note:  These values currently only include a subset of arrays which are explicitly tracked.
          The "true" memory usage will be greater.

          Have a nice day.
------------------------------------------------------------
