  MPI-parallelism will be employed.
------------------------------------------------------------
          Invoking FHI-aims ...
          Version 171221_1
          Compiled on 2019/09/09 at 14:39:39 on host puhti-login2.bullx.

          When using FHI-aims, please cite the following reference:

          Volker Blum, Ralf Gehrke, Felix Hanke, Paula Havu,
          Ville Havu, Xinguo Ren, Karsten Reuter, and Matthias Scheffler,
          'Ab Initio Molecular Simulations with Numeric Atom-Centered Orbitals',
          Computer Physics Communications 180, 2175-2196 (2009)

          For any questions about FHI-aims, please visit the aimsclub website
          with its forums and wiki. Contributions to both the forums and the
          wiki are warmly encouraged - they are for you, and everyone is welcome there.

------------------------------------------------------------



  Date     :  20200710, Time     :  145204.915
  Time zero on CPU 1             :   0.130200000000000E-01  s.
  Internal wall clock time zero  :           363624724.915  s.

  FHI-aims created a unique identifier for this run for later identification
  aims_uuid : 7D11BC43-CCA5-4880-AC9D-916BC488A98E

  Using        1 parallel tasks.
  Task        0 on host r18c43.bullx reporting.

  Performing system and environment tests:
  | Environment variable OMP_NUM_THREADS correctly set to 1.
  | Stacksize not measured: no C compiler
  | Checking for scalapack...
  | Testing pdtran()...
  | All pdtran() tests passed.

  Obtaining array dimensions for all initial allocations:
  
  -----------------------------------------------------------------------
  Parsing control.in (first pass over file, find array dimensions only).
  The contents of control.in will be repeated verbatim below
  unless switched off by setting 'verbatim_writeout .false.' .
  in the first line of control.in .
  -----------------------------------------------------------------------
  
  #########################################################################################
  #
  #  Volker Blum, FHI 2009 : Test run input file control.in for simple H2O
  #
  #########################################################################################
  #
  #  Physical model
  #
    xc                 pbe
    vdw_correction_hirshfeld
    spin               none
    relativistic       none
    charge             0.
  #
  #  SCF convergence
  #
    occupation_type    gaussian 0.01
    mixer              pulay
      n_max_pulay        10
      charge_mix_param   0.2
    sc_accuracy_rho    1E-5
    sc_accuracy_eev    1E-3
    sc_accuracy_etot   1E-6
    sc_accuracy_forces 1E-4
    sc_iter_limit      100
  #
  #  Relaxation
  #
  #  relax_geometry   bfgs 1.e-3
  #
  ################################################################################
  #
  #  FHI-aims code project
  #  VB, Fritz-Haber Institut, 2009
  #
  #  Suggested "light" defaults for H atom (to be pasted into control.in file)
  #  Be sure to double-check any results obtained with these settings for post-processing,
  #  e.g., with the "tight" defaults and larger basis sets.
  #
  ################################################################################
    species        H
  #     global species definitions
      nucleus             1
      mass                1.00794
  #
      l_hartree           4
  #
      cut_pot             3.5  1.5  1.0
      basis_dep_cutoff    1e-4
  #
      radial_base         24 5.0
      radial_multiplier   1
      angular_grids       specified
        division   0.2421   50
        division   0.3822  110
        division   0.4799  194
        division   0.5341  302
  #      division   0.5626  434
  #      division   0.5922  590
  #      division   0.6542  770
  #      division   0.6868 1202
  #      outer_grid  770
        outer_grid  302
  ################################################################################
  #
  #  Definition of "minimal" basis
  #
  ################################################################################
  #     valence basis states
      valence      1  s   1.
  #     ion occupancy
      ion_occ      1  s   0.5
  ################################################################################
  #
  #  Suggested additional basis functions. For production calculations,
  #  uncomment them one after another (the most important basis functions are
  #  listed first).
  #
  #  Basis constructed for dimers: 0.5 A, 0.7 A, 1.0 A, 1.5 A, 2.5 A
  #
  ################################################################################
  #  "First tier" - improvements: -1014.90 meV to -62.69 meV
       hydro 2 s 2.1
       hydro 2 p 3.5
  #  "Second tier" - improvements: -12.89 meV to -1.83 meV
  #     hydro 1 s 0.85
  #     hydro 2 p 3.7
  #     hydro 2 s 1.2
  #     hydro 3 d 7
  #  "Third tier" - improvements: -0.25 meV to -0.12 meV
  #     hydro 4 f 11.2
  #     hydro 3 p 4.8
  #     hydro 4 d 9
  #     hydro 3 s 3.2
  ################################################################################
  #
  #  FHI-aims code project
  #  VB, Fritz-Haber Institut, 2009
  #
  #  Suggested "light" defaults for C atom (to be pasted into control.in file)
  #  Be sure to double-check any results obtained with these settings for post-processing,
  #  e.g., with the "tight" defaults and larger basis sets.
  #
  ################################################################################
    species        C
  #     global species definitions
      nucleus             6
      mass                12.0107
  #
      l_hartree           4
  #
      cut_pot             3.5  1.5  1.0
      basis_dep_cutoff    1e-4
  #
      radial_base         34 5.0
      radial_multiplier   1
      angular_grids specified
        division   0.3326   50
        division   0.5710  110
        division   0.7727  194
        division   0.8772  302
  #      division   0.9334  434
  #      division   0.9625  590
  #      division   0.9924  770
  #      division   1.0230  974
  #      division   1.4589 1202
  #     outer_grid  974
       outer_grid 302
  ################################################################################
  #
  #  Definition of "minimal" basis
  #
  ################################################################################
  #     valence basis states
      valence      2  s   2.
      valence      2  p   2.
  #     ion occupancy
      ion_occ      2  s   1.
      ion_occ      2  p   1.
  ################################################################################
  #
  #  Suggested additional basis functions. For production calculations,
  #  uncomment them one after another (the most important basis functions are
  #  listed first).
  #
  #  Constructed for dimers: 1.0 A, 1.25 A, 1.5 A, 2.0 A, 3.0 A
  #
  ################################################################################
  #  "First tier" - improvements: -1214.57 meV to -155.61 meV
       hydro 2 p 1.7
       hydro 3 d 6
       hydro 2 s 4.9
  #  "Second tier" - improvements: -67.75 meV to -5.23 meV
  #     hydro 4 f 9.8
  #     hydro 3 p 5.2
  #     hydro 3 s 4.3
  #     hydro 5 g 14.4
  #     hydro 3 d 6.2
  #  "Third tier" - improvements: -2.43 meV to -0.60 meV
  #     hydro 2 p 5.6
  #     hydro 2 s 1.4
  #     hydro 3 d 4.9
  #     hydro 4 f 11.2
  #  "Fourth tier" - improvements: -0.39 meV to -0.18 meV
  #     hydro 2 p 2.1
  #     hydro 5 g 16.4
  #     hydro 4 d 13.2
  #     hydro 3 s 13.6
  #     hydro 4 f 17.6
  #  Further basis functions - improvements: -0.08 meV and below
  #     hydro 3 s 2
  #     hydro 3 p 6
  #     hydro 4 d 20
  ################################################################################
  #
  #  FHI-aims code project
  #  VB, Fritz-Haber Institut, 2009
  #
  #  Suggested "light" defaults for N atom (to be pasted into control.in file)
  #  Be sure to double-check any results obtained with these settings for post-processing,
  #  e.g., with the "tight" defaults and larger basis sets.
  #
  ################################################################################
    species        N
  #     global species definitions
      nucleus             7
      mass                14.0067
  #
      l_hartree           4
  #
      cut_pot             3.5  1.5  1.0
      basis_dep_cutoff    1e-4
  #
      radial_base         35 5.0
      radial_multiplier   1
      angular_grids       specified
        division   0.2599   50
        division   0.4601  110
        division   0.5885  194
        division   0.6503  302
  #      division   0.6939  434
  #      division   0.7396  590
  #      division   0.7632  770
  #      division   0.8122  974
  #      division   1.1604 1202
  #      outer_grid  974
        outer_grid  302
  ################################################################################
  #
  #  Definition of "minimal" basis
  #
  ################################################################################
  #     valence basis states
      valence      2  s   2.
      valence      2  p   3.
  #     ion occupancy
      ion_occ      2  s   1.
      ion_occ      2  p   2.
  ################################################################################
  #
  #  Suggested additional basis functions. For production calculations,
  #  uncomment them one after another (the most important basis functions are
  #  listed first).
  #
  #  Constructed for dimers: 1.0 A, 1.1 A, 1.5 A, 2.0 A, 3.0 A
  #
  ################################################################################
  #  "First tier" - improvements: -1193.42 meV to -220.60 meV
       hydro 2 p 1.8
       hydro 3 d 6.8
       hydro 3 s 5.8
  #  "Second tier" - improvements: -80.21 meV to -6.86 meV
  #     hydro 4 f 10.8
  #     hydro 3 p 5.8
  #     hydro 1 s 0.8
  #     hydro 5 g 16
  #     hydro 3 d 4.9
  #  "Third tier" - improvements: -4.29 meV to -0.53 meV
  #     hydro 3 s 16
  #     ionic 2 p auto
  #     hydro 3 d 6.6
  #     hydro 4 f 11.6
  #  "Fourth tier" - improvements: -0.75 meV to -0.25 meV
  #     hydro 2 p 4.5
  #     hydro 2 s 2.4
  #     hydro 5 g 14.4
  #     hydro 4 d 14.4
  #     hydro 4 f 16.8
  # Further basis functions - -0.21 meV and below
  #     hydro 3 p 14.8
  #     hydro 3 s 4.4
  #     hydro 3 d 19.6
  #     hydro 5 g 12.8
  ################################################################################
  #
  #  FHI-aims code project
  #  VB, Fritz-Haber Institut, 2009
  #
  #  Suggested "light" defaults for O atom (to be pasted into control.in file)
  #  Be sure to double-check any results obtained with these settings for post-processing,
  #  e.g., with the "tight" defaults and larger basis sets.
  #
  ################################################################################
    species        O
  #     global species definitions
      nucleus             8
      mass                15.9994
  #
      l_hartree           4
  #
      cut_pot             3.5  1.5  1.0
      basis_dep_cutoff    1e-4
  #
      radial_base         36 5.0
      radial_multiplier   1
       angular_grids specified
        division   0.2659   50
        division   0.4451  110
        division   0.6052  194
        division   0.7543  302
  #      division   0.8014  434
  #      division   0.8507  590
  #      division   0.8762  770
  #      division   0.9023  974
  #      division   1.2339 1202
  #      outer_grid 974
        outer_grid 302
  ################################################################################
  #
  #  Definition of "minimal" basis
  #
  ################################################################################
  #     valence basis states
      valence      2  s   2.
      valence      2  p   4.
  #     ion occupancy
      ion_occ      2  s   1.
      ion_occ      2  p   3.
  ################################################################################
  #
  #  Suggested additional basis functions. For production calculations,
  #  uncomment them one after another (the most important basis functions are
  #  listed first).
  #
  #  Constructed for dimers: 1.0 A, 1.208 A, 1.5 A, 2.0 A, 3.0 A
  #
  ################################################################################
  #  "First tier" - improvements: -699.05 meV to -159.38 meV
       hydro 2 p 1.8
       hydro 3 d 7.6
       hydro 3 s 6.4
  #  "Second tier" - improvements: -49.91 meV to -5.39 meV
  #     hydro 4 f 11.6
  #     hydro 3 p 6.2
  #     hydro 3 d 5.6
  #     hydro 5 g 17.6
  #     hydro 1 s 0.75
  #  "Third tier" - improvements: -2.83 meV to -0.50 meV
  #     ionic 2 p auto
  #     hydro 4 f 10.8
  #     hydro 4 d 4.7
  #     hydro 2 s 6.8
  #  "Fourth tier" - improvements: -0.40 meV to -0.12 meV
  #     hydro 3 p 5
  #     hydro 3 s 3.3
  #     hydro 5 g 15.6
  #     hydro 4 f 17.6
  #     hydro 4 d 14
  # Further basis functions - -0.08 meV and below
  #     hydro 3 s 2.1
  #     hydro 4 d 11.6
  #     hydro 3 p 16
  #     hydro 2 s 17.2
  
  -----------------------------------------------------------------------
  Completed first pass over input file control.in .
  -----------------------------------------------------------------------
  
  
  -----------------------------------------------------------------------
  Parsing geometry.in (first pass over file, find array dimensions only).
  The contents of geometry.in will be repeated verbatim below
  unless switched off by setting 'verbatim_writeout .false.' .
  in the first line of geometry.in .
  -----------------------------------------------------------------------
  
  atom  0.00000 0.00000 0.00000 C
  atom  1.09300 0.00000 0.00000 H
  atom  -0.47961 0.00000 -1.41207 N
  atom  -0.05941 -0.79182 -1.90022 H
  atom  -1.49401 -0.08437 -1.41273 H
  atom  -0.49584 1.26211 0.72868 C
  atom  -1.58789 1.28919 0.74431 H
  atom  -0.13407 1.27425 1.75947 H
  atom  -0.13407 2.16087 0.22380 H
  atom  -0.39425 -1.28861 0.74398 C
  atom  -0.10189 -1.56493 1.88303 O
  atom  -1.10210 -2.13717 0.06896 O
  atom  -0.39882 -2.48257 -0.50643 H
  
  -----------------------------------------------------------------------
  Completed first pass over input file geometry.in .
  -----------------------------------------------------------------------
  

  Basic array size parameters:
  | Number of species                 :        4
  | Number of atoms                   :       13
  | Max. basis fn. angular momentum   :        2
  | Max. atomic/ionic basis occupied n:        2
  | Max. number of basis fn. types    :        2
  | Max. radial fns per species/type  :        3
  | Max. logarithmic grid size        :     1301
  | Max. radial integration grid size :       36
  | Max. angular integration grid size:      302
  | Max. angular grid division number :        8
  | Radial grid for Hartree potential :     1301
  | Number of spin channels           :        1

------------------------------------------------------------
          Reading file control.in.
------------------------------------------------------------
  XC: Using PBE gradient-corrected functionals.
  Spin treatment: No spin polarisation.
  Non-relativistic treatment of kinetic energy.
  Charge =   0.000000E+00: Neutral system requested explicitly.
  Occupation type: Gaussian broadening, width =   0.100000E-01 eV.
  Using pulay charge density mixing.
  Pulay mixing - number of memorized iterations:   10
  Charge density mixing - mixing parameter:     0.2000
  Convergence accuracy of self-consistent charge density:  0.1000E-04
  Convergence accuracy of sum of eigenvalues:  0.1000E-02
  Convergence accuracy of total energy:  0.1000E-05
  Convergence accuracy of forces:  0.1000E-03
  Maximum number of s.-c. iterations  :   100
 
  Reading configuration options for species H                   .
  | Found nuclear charge :   1.0000
  | Found atomic mass :    1.00794000000000      amu
  | Found l_max for Hartree potential  :   4
  | Found cutoff potl. onset [A], width [A], scale factor :    3.50000    1.50000    1.00000
  | Threshold for basis-dependent cutoff potential is   0.100000E-03
  | Found data for basic radial integration grid :    24 points, outermost radius =    5.000 A
  | Found multiplier for basic radial grid :   1
  | Found angular grid specification: user-specified.
  | Specified grid contains     5 separate shells.
  | Check grid settings after all constraints further below.
  | Found free-atom valence shell :  1 s   1.000
  | No ionic wave fns used. Skipping ion_occ.
  | Found hydrogenic basis function :  2 s   2.100
  | Found hydrogenic basis function :  2 p   3.500
  Species H                   : Missing cutoff potential type.
  Defaulting to exp(1/x)/(1-x)^2 type cutoff potential.
  Species H : No 'logarithmic' tag. Using default grid for free atom:
  | Default logarithmic grid data [bohr] : 0.1000E-03 0.1000E+03 0.1012E+01
  Species H : On-site basis accuracy parameter (for Gram-Schmidt orthonormalisation) not specified.
  Using default value basis_acc =  0.1000000E-03.
  Species H                   : Using default innermost maximum threshold i_radial=  2 for radial functions.
  Species H                   : Default cutoff onset for free atom density etc. : 0.35000000E+01 AA.
  Species H                   : Basic radial grid will be enhanced according to radial_multiplier =   1, to contain    24 grid points.
 
  Reading configuration options for species C                   .
  | Found nuclear charge :   6.0000
  | Found atomic mass :    12.0107000000000      amu
  | Found l_max for Hartree potential  :   4
  | Found cutoff potl. onset [A], width [A], scale factor :    3.50000    1.50000    1.00000
  | Threshold for basis-dependent cutoff potential is   0.100000E-03
  | Found data for basic radial integration grid :    34 points, outermost radius =    5.000 A
  | Found multiplier for basic radial grid :   1
  | Found angular grid specification: user-specified.
  | Specified grid contains     5 separate shells.
  | Check grid settings after all constraints further below.
  | Found free-atom valence shell :  2 s   2.000
  | Found free-atom valence shell :  2 p   2.000
  | No ionic wave fns used. Skipping ion_occ.
  | No ionic wave fns used. Skipping ion_occ.
  | Found hydrogenic basis function :  2 p   1.700
  | Found hydrogenic basis function :  3 d   6.000
  | Found hydrogenic basis function :  2 s   4.900
  Species C                   : Missing cutoff potential type.
  Defaulting to exp(1/x)/(1-x)^2 type cutoff potential.
  Species C : No 'logarithmic' tag. Using default grid for free atom:
  | Default logarithmic grid data [bohr] : 0.1000E-03 0.1000E+03 0.1012E+01
  Species C : On-site basis accuracy parameter (for Gram-Schmidt orthonormalisation) not specified.
  Using default value basis_acc =  0.1000000E-03.
  Species C                   : Using default innermost maximum threshold i_radial=  2 for radial functions.
  Species C                   : Default cutoff onset for free atom density etc. : 0.35000000E+01 AA.
  Species C                   : Basic radial grid will be enhanced according to radial_multiplier =   1, to contain    34 grid points.
 
  Reading configuration options for species N                   .
  | Found nuclear charge :   7.0000
  | Found atomic mass :    14.0067000000000      amu
  | Found l_max for Hartree potential  :   4
  | Found cutoff potl. onset [A], width [A], scale factor :    3.50000    1.50000    1.00000
  | Threshold for basis-dependent cutoff potential is   0.100000E-03
  | Found data for basic radial integration grid :    35 points, outermost radius =    5.000 A
  | Found multiplier for basic radial grid :   1
  | Found angular grid specification: user-specified.
  | Specified grid contains     5 separate shells.
  | Check grid settings after all constraints further below.
  | Found free-atom valence shell :  2 s   2.000
  | Found free-atom valence shell :  2 p   3.000
  | No ionic wave fns used. Skipping ion_occ.
  | No ionic wave fns used. Skipping ion_occ.
  | Found hydrogenic basis function :  2 p   1.800
  | Found hydrogenic basis function :  3 d   6.800
  | Found hydrogenic basis function :  3 s   5.800
  Species N                   : Missing cutoff potential type.
  Defaulting to exp(1/x)/(1-x)^2 type cutoff potential.
  Species N : No 'logarithmic' tag. Using default grid for free atom:
  | Default logarithmic grid data [bohr] : 0.1000E-03 0.1000E+03 0.1012E+01
  Species N : On-site basis accuracy parameter (for Gram-Schmidt orthonormalisation) not specified.
  Using default value basis_acc =  0.1000000E-03.
  Species N                   : Using default innermost maximum threshold i_radial=  2 for radial functions.
  Species N                   : Default cutoff onset for free atom density etc. : 0.35000000E+01 AA.
  Species N                   : Basic radial grid will be enhanced according to radial_multiplier =   1, to contain    35 grid points.
 
  Reading configuration options for species O                   .
  | Found nuclear charge :   8.0000
  | Found atomic mass :    15.9994000000000      amu
  | Found l_max for Hartree potential  :   4
  | Found cutoff potl. onset [A], width [A], scale factor :    3.50000    1.50000    1.00000
  | Threshold for basis-dependent cutoff potential is   0.100000E-03
  | Found data for basic radial integration grid :    36 points, outermost radius =    5.000 A
  | Found multiplier for basic radial grid :   1
  | Found angular grid specification: user-specified.
  | Specified grid contains     5 separate shells.
  | Check grid settings after all constraints further below.
  | Found free-atom valence shell :  2 s   2.000
  | Found free-atom valence shell :  2 p   4.000
  | No ionic wave fns used. Skipping ion_occ.
  | No ionic wave fns used. Skipping ion_occ.
  | Found hydrogenic basis function :  2 p   1.800
  | Found hydrogenic basis function :  3 d   7.600
  | Found hydrogenic basis function :  3 s   6.400
  Species O                   : Missing cutoff potential type.
  Defaulting to exp(1/x)/(1-x)^2 type cutoff potential.
  Species O : No 'logarithmic' tag. Using default grid for free atom:
  | Default logarithmic grid data [bohr] : 0.1000E-03 0.1000E+03 0.1012E+01
  Species O : On-site basis accuracy parameter (for Gram-Schmidt orthonormalisation) not specified.
  Using default value basis_acc =  0.1000000E-03.
  Species O                   : Using default innermost maximum threshold i_radial=  2 for radial functions.
  Species O                   : Default cutoff onset for free atom density etc. : 0.35000000E+01 AA.
  Species O                   : Basic radial grid will be enhanced according to radial_multiplier =   1, to contain    36 grid points.
 
  Finished reading input file 'control.in'. Consistency checks are next.
 
  MPI_IN_PLACE appears to work with this MPI implementation.
  | Keeping use_mpi_in_place .true. (see manual).
  Target number of points in a grid batch is not set. Defaulting to  100
  Method for grid partitioning is not set. Defaulting to parallel hash+maxmin partitioning.
  Batch size limit is not set. Defaulting to    200
  By default, will store active basis functions for each batch.
  If in need of memory, prune_basis_once .false. can be used to disable this option.
  communication_type for Hartree potential was not specified.
  Defaulting to calc_hartree .
  Pulay mixer: Number of initial linear mixing iterations not set.
  Defaulting to    0 iterations.
  Work space size for distributed Hartree potential not set.
  Defaulting to   0.200000E+03 MB.
  Algorithm-dependent basis array size parameters:
  | n_max_pulay                         :       10
  Presetting      1001 iterations before the initial mixing cycle
  is restarted anyway using the sc_init_iter criterion / keyword.
  Presetting a factor      1.000 between actual scf density residual
  and density convergence criterion sc_accuracy_rho below which sc_init_iter
  takes no effect.
  Geometry relaxation not requested: no relaxation will be performed.
  Handling of forces: Unphysical translation and rotation will be removed from forces.
  No accuracy limit for integral partition fn. given. Defaulting to  0.1000E-14.
  No threshold value for u(r) in integrations given. Defaulting to  0.1000E-05.
  No accuracy for occupation numbers given. Defaulting to  0.1000E-12.
  No threshold value for occupation numbers given. Defaulting to  0.0000E+00.
  No accuracy for fermi level given. Defaulting to  0.1000E-19.
  Maximum # of iterations to find E_F not set. Defaulting to  200.
  Preferred method for the eigenvalue solver ('KS_method') not specified in 'control.in'.
  Defaulting to serial version, 'lapack_fast'.
  Will not use alltoall communication since running on < 1024 CPUs.
  Threshold for basis singularities not set.
  Default threshold for basis singularities:  0.1000E-04
  partition_type (choice of integration weights) for integrals was not specified.
  | Using a version of the partition function of Stratmann and coworkers ('stratmann_smoother').
  | At each grid point, the set of atoms used to build the partition table is smoothly restricted to
  | only those atoms whose free-atom density would be non-zero at that grid point.
  Partitioning for Hartree potential was not defined. Using partition_type for integrals.
  | Adjusted default value of keyword multip_moments_threshold to:       0.10000000E-11
  | This value may affect high angular momentum components of the Hartree potential in periodic systems.
  No q(lm)/r^(l+1) cutoff set for long-range Hartree potential.
  | Using default value of  0.100000E-09 .
  | Verify using the multipole_threshold keyword.
  Defaulting to new monopole extrapolation.
  Density update method: automatic selection selected.
------------------------------------------------------------


------------------------------------------------------------
          Reading geometry description geometry.in.
------------------------------------------------------------
  Input structure read successfully.
  The structure contains       13 atoms,  and a total of         48.000 electrons.

  Input geometry:
  | No unit cell requested.
  | Atomic structure:
  |       Atom                x [A]            y [A]            z [A]
  |    1: Species C             0.00000000        0.00000000        0.00000000
  |    2: Species H             1.09300000        0.00000000        0.00000000
  |    3: Species N            -0.47961000        0.00000000       -1.41207000
  |    4: Species H            -0.05941000       -0.79182000       -1.90022000
  |    5: Species H            -1.49401000       -0.08437000       -1.41273000
  |    6: Species C            -0.49584000        1.26211000        0.72868000
  |    7: Species H            -1.58789000        1.28919000        0.74431000
  |    8: Species H            -0.13407000        1.27425000        1.75947000
  |    9: Species H            -0.13407000        2.16087000        0.22380000
  |   10: Species C            -0.39425000       -1.28861000        0.74398000
  |   11: Species O            -0.10189000       -1.56493000        1.88303000
  |   12: Species O            -1.10210000       -2.13717000        0.06896000
  |   13: Species H            -0.39882000       -2.48257000       -0.50643000
  |

  | The smallest distance between any two atoms is         0.97209957 AA.
  |
  | The first atom of this pair is atom number                     12 .
  | The second atom of this pair is atom number                    13 .

  Number of empty states per atom not set in control.in - providing a guess from actual geometry.
  | Total number of empty states used during s.c.f. cycle:       29
  If you use a very high smearing, use empty_states (per atom!) in control.in to increase this value.

  Structure-dependent array size parameters: 
  | Maximum number of distinct radial functions  :       21
  | Maximum number of basis functions            :      119
  | Number of Kohn-Sham states (occupied + empty):       53
------------------------------------------------------------

------------------------------------------------------------
          Preparing all fixed parts of the calculation.
------------------------------------------------------------
  Determining machine precision:
    2.225073858507201E-308
  Setting up grids for atomic and cluster calculations.

  Creating wave function, potential, and density for free atoms.

  Species: H

  List of occupied orbitals and eigenvalues:
    n    l              occ      energy [Ha]    energy [eV]
    1    0           1.0000        -0.237589        -6.4651


  Species: C

  List of occupied orbitals and eigenvalues:
    n    l              occ      energy [Ha]    energy [eV]
    1    0           2.0000       -10.038835      -273.1706
    2    0           2.0000        -0.502696       -13.6791
    2    1           2.0000        -0.191971        -5.2238


  Species: N

  List of occupied orbitals and eigenvalues:
    n    l              occ      energy [Ha]    energy [eV]
    1    0           2.0000       -14.128000      -384.4424
    2    0           2.0000        -0.681077       -18.5330
    2    1           3.0000        -0.259788        -7.0692


  Species: O

  List of occupied orbitals and eigenvalues:
    n    l              occ      energy [Ha]    energy [eV]
    1    0           2.0000       -18.898188      -514.2459
    2    0           2.0000        -0.878505       -23.9053
    2    1           4.0000        -0.331779        -9.0282

  Creating fixed part of basis set: Ionic, confined, hydrogenic.
 
  H                    hydrogenic:
 
  List of hydrogenic basis orbitals: 
    n    l      effective z      eigenvalue [eV]  inner max. [A]     outer max. [A]     outer radius [A]   
    2    0         2.100000       -14.9728           0.193243           1.317208           4.583499
    2    1         3.500000       -41.6669           0.602369           0.602369           3.723403
 
 
  C                    hydrogenic:
 
  List of hydrogenic basis orbitals: 
    n    l      effective z      eigenvalue [eV]  inner max. [A]     outer max. [A]     outer radius [A]   
    2    1         1.700000        -9.7616           1.230570           1.230570           4.607917
    3    2         6.000000       -54.4224           0.792453           0.792453           3.883070
    2    0         4.900000       -81.6679           0.082559           0.562749           3.078220
 
 
  N                    hydrogenic:
 
  List of hydrogenic basis orbitals: 
    n    l      effective z      eigenvalue [eV]  inner max. [A]     outer max. [A]     outer radius [A]   
    2    1         1.800000       -10.9749           1.177451           1.177451           4.573712
    3    2         6.800000       -69.9026           0.704619           0.704619           3.538137
    3    0         5.800000       -50.8545           0.067388           1.191934           4.250239
 
 
  O                    hydrogenic:
 
  List of hydrogenic basis orbitals: 
    n    l      effective z      eigenvalue [eV]  inner max. [A]     outer max. [A]     outer radius [A]   
    2    1         1.800000       -10.9749           1.164242           1.164242           4.578029
    3    2         7.600000       -87.3180           0.624125           0.624125           3.251020
    3    0         6.400000       -61.9207           0.061167           1.081902           4.001998
 

  Adding cutoff potential to free-atom effective potential.
  Creating atomic-like basis functions for current effective potential.

  Species H                   :

  List of atomic basis orbitals and eigenvalues:
    n    l      energy [Ha]    energy [eV]    outer radius [A]
    1    0        -0.237589        -6.4651       4.527807


  Species C                   :

  List of atomic basis orbitals and eigenvalues:
    n    l      energy [Ha]    energy [eV]    outer radius [A]
    1    0       -10.038835      -273.1706       1.934409
    2    0        -0.502696       -13.6791       4.496620
    2    1        -0.191971        -5.2238       4.551928


  Species N                   :

  List of atomic basis orbitals and eigenvalues:
    n    l      energy [Ha]    energy [eV]    outer radius [A]
    1    0       -14.128000      -384.4424       1.637919
    2    0        -0.681077       -18.5330       4.463241
    2    1        -0.259788        -7.0692       4.518138


  Species O                   :

  List of atomic basis orbitals and eigenvalues:
    n    l      energy [Ha]    energy [eV]    outer radius [A]
    1    0       -18.898188      -514.2459       1.415765
    2    0        -0.878505       -23.9053       4.413171
    2    1        -0.331779        -9.0282       4.522403

  Assembling full basis from fixed parts.
  | Species H :   atomic orbital   1 s accepted.
  | Species H :    hydro orbital   2 s accepted.
  | Species H :    hydro orbital   2 p accepted.
  | Species C :   atomic orbital   1 s accepted.
  | Species C :    hydro orbital   2 s accepted.
  | Species C :   atomic orbital   2 s accepted.
  | Species C :   atomic orbital   2 p accepted.
  | Species C :    hydro orbital   2 p accepted.
  | Species C :    hydro orbital   3 d accepted.
  | Species N :   atomic orbital   1 s accepted.
  | Species N :    hydro orbital   3 s accepted.
  | Species N :   atomic orbital   2 s accepted.
  | Species N :   atomic orbital   2 p accepted.
  | Species N :    hydro orbital   2 p accepted.
  | Species N :    hydro orbital   3 d accepted.
  | Species O :   atomic orbital   1 s accepted.
  | Species O :    hydro orbital   3 s accepted.
  | Species O :   atomic orbital   2 s accepted.
  | Species O :   atomic orbital   2 p accepted.
  | Species O :    hydro orbital   2 p accepted.
  | Species O :    hydro orbital   3 d accepted.
 
  Basis size parameters after reduction:
  | Total number of radial functions:       21
  | Total number of basis functions :      119
 
  Per-task memory consumption for arrays in subroutine allocate_ext:
  |           5.250512MB.
  Testing on-site integration grid accuracy.
  |  Species  Function  <phi|h_atom|phi> (log., in eV)  <phi|h_atom|phi> (rad., in eV)
           1        1                 -6.4663192853                 -6.4651273558
           1        2                 13.7111246313                 13.7170609718
           1        3                 25.2673269279                 25.2674696378
           2        4               -273.1705927641               -273.1705631568
           2        5                -10.7109323383                -10.7107120029
           2        6                 17.4381822266                 17.4352413244
           2        7                 -5.2255326521                 -5.2270484734
           2        8                  8.6835629259                  8.6603288385
           2        9                 27.4952418996                 27.4953360207
           3       10               -384.4424306495               -384.4423701208
           3       11                 12.5842251816                 12.5842222903
           3       12                -15.7264628251                -15.7264433455
           3       13                 -7.0696854293                 -7.0701769954
           3       14                  8.8090390882                  8.7901077751
           3       15                 35.9586762123                 35.9588528632
           4       16               -514.2458688638               -514.2457643834
           4       17                 15.1795651126                 15.1795290741
           4       18                -21.5359799773                -21.5360846186
           4       19                 -9.0283069236                 -9.0284644067
           4       20                  8.3027758564                  8.2834874195
           4       21                 45.8339351984                 45.8338762259

  Preparing densities etc. for the partition functions (integrals / Hartree potential).

  Preparations completed.
  max(cpu_time)          :      0.151 s.
  Wall clock time (cpu1) :      0.157 s.
------------------------------------------------------------

------------------------------------------------------------
          Begin self-consistency loop: Initialization.

          Date     :  20200710, Time     :  145205.090
------------------------------------------------------------

  Initializing index lists of integration centers etc. from given atomic structure:
  | Number of centers in hartree potential         :        13
  | Number of centers in hartree multipole         :        13
  | Number of centers in electron density summation:        13
  | Number of centers in basis integrals           :        13
  | Number of centers in integrals                 :        13
  | Number of centers in hamiltonian               :        13
  Partitioning the integration grid into batches with parallel hashing+maxmin method.
  | Number of batches:      958
  | Maximal batch size:     139
  | Minimal batch size:      66
  | Average batch size:      72.699
  | Standard deviation of batch sizes:      17.228

  Integration load balanced across     1 MPI tasks.
  Work distribution over tasks is as follows:
  Task     0 has      69646 integration points.
  Initializing partition tables, free-atom densities, potentials, etc. across the integration grid (initialize_grid_storage).
  | initialize_grid_storage: Actual outermost partition radius vs. multipole_radius_free
  | (-- VB: in principle, multipole_radius_free should be larger, hence this output)
  | Species        1: Confinement radius =              4.999999999999999 AA, multipole_radius_free =              5.054417573612229 AA.
  | Species        1: outer_partition_radius set to              5.054417573612229 AA .
  | Species        2: Confinement radius =              4.999999999999999 AA, multipole_radius_free =              5.019602836301480 AA.
  | Species        2: outer_partition_radius set to              5.019602836301480 AA .
  | Species        3: Confinement radius =              4.999999999999999 AA, multipole_radius_free =              5.043624274424571 AA.
  | Species        3: outer_partition_radius set to              5.043624274424571 AA .
  | Species        4: Confinement radius =              4.999999999999999 AA, multipole_radius_free =              5.048384829883283 AA.
  | Species        4: outer_partition_radius set to              5.048384829883283 AA .
  | Original list of interatomic distances with          13 x         13 entries is created.
  | Net number of integration points:    69646
  | of which are non-zero points    :    59420
  Renormalizing the initial density to the exact electron count on the 3D integration grid.
  | Initial density: Formal number of electrons (from input files) :      48.0000000000
  | Integrated number of electrons on 3D grid     :      47.9999809689
  | Charge integration error                      :      -0.0000190311
  | Normalization factor for density and gradient :       1.0000003965
  Obtaining max. number of non-zero basis functions in each batch (get_n_compute_maxes).
  | Maximal number of non-zero basis functions:      119 in task     0
  Selecting the method for density update.
  Loop over occupied states selected for charge density update.
  Allocating        0.050 MB for KS_eigenvector
  Integrating Hamiltonian matrix: batch-based integration.
  Time summed over all CPUs for integration: real work        0.512 s, elapsed        0.512 s
  Integrating overlap matrix.
  Time summed over all CPUs for integration: real work        0.214 s, elapsed        0.214 s

  Updating Kohn-Sham eigenvalues and eigenvectors using ELSI and the ELPA eigensolver.
  Overlap matrix is nonsingular
  | Lowest eigenvalue of overlap  :  0.50E-02
  | Highest eigenvalue of overlap :  0.62E+01
  Finished singularity check of overlap matrix
  | Time :     0.002 s
  Finished Cholesky decomposition
  | Time :     0.000 s
  Finished transformation to standard eigenproblem
  | Time :     0.000 s
  Starting LAPACK eigensolver
  Finished solving standard eigenproblem
  | Time :     0.002 s
  Finished back-transformation of eigenvectors
  | Time :     0.000 s

  Obtaining occupation numbers and chemical potential using ELSI.
  | Chemical potential (Fermi level):    -8.87821816eV
  Writing Kohn-Sham eigenvalues.

  State    Occupation    Eigenvalue [Ha]    Eigenvalue [eV]
      1       2.00000         -19.007799         -517.22852
      2       2.00000         -18.977227         -516.39662
      3       2.00000         -14.245914         -387.65104
      4       2.00000         -10.166655         -276.64876
      5       2.00000         -10.141400         -275.96152
      6       2.00000         -10.132060         -275.70738
      7       2.00000          -1.183025          -32.19174
      8       2.00000          -1.098525          -29.89239
      9       2.00000          -0.990943          -26.96492
     10       2.00000          -0.861043          -23.43016
     11       2.00000          -0.752294          -20.47095
     12       2.00000          -0.683081          -18.58758
     13       2.00000          -0.625439          -17.01906
     14       2.00000          -0.618932          -16.84201
     15       2.00000          -0.576953          -15.69969
     16       2.00000          -0.575749          -15.66693
     17       2.00000          -0.555382          -15.11272
     18       2.00000          -0.526458          -14.32565
     19       2.00000          -0.513368          -13.96944
     20       2.00000          -0.497204          -13.52960
     21       2.00000          -0.455863          -12.40467
     22       2.00000          -0.431451          -11.74037
     23       2.00000          -0.420419          -11.44018
     24       2.00000          -0.377308          -10.26708
     25       0.00000          -0.161862           -4.40449
     26       0.00000          -0.073301           -1.99463
     27       0.00000          -0.026935           -0.73294
     28       0.00000          -0.018047           -0.49109
     29       0.00000          -0.003565           -0.09702
     30       0.00000           0.013202            0.35925
     31       0.00000           0.021597            0.58767
     32       0.00000           0.035457            0.96483
     33       0.00000           0.045050            1.22587
     34       0.00000           0.064699            1.76054
     35       0.00000           0.082440            2.24331
     36       0.00000           0.133624            3.63611
     37       0.00000           0.168205            4.57708
     38       0.00000           0.197088            5.36305
     39       0.00000           0.216049            5.87900
     40       0.00000           0.226204            6.15533
     41       0.00000           0.252182            6.86223
     42       0.00000           0.270072            7.34902
     43       0.00000           0.282100            7.67632
     44       0.00000           0.293327            7.98185
     45       0.00000           0.331534            9.02149
     46       0.00000           0.347068            9.44419
     47       0.00000           0.368498           10.02733
     48       0.00000           0.383408           10.43306
     49       0.00000           0.444506           12.09563
     50       0.00000           0.483577           13.15881
     51       0.00000           0.498567           13.56669
     52       0.00000           0.532076           14.47852
     53       0.00000           0.592495           16.12262

  Highest occupied state (VBM) at    -10.26708445 eV
  | Occupation number:      2.00000000

  Lowest unoccupied state (CBM) at    -4.40449171 eV
  | Occupation number:      0.00000000

  Overall HOMO-LUMO gap:      5.86259275 eV.
  Calculating total energy contributions from superposition of free atom densities.

  Total energy components:
  | Sum of eigenvalues            :        -188.82898098 Ha       -5138.29800621 eV
  | XC energy correction          :         -41.78838113 Ha       -1137.11970659 eV
  | XC potential correction       :          53.71973456 Ha        1461.78835230 eV
  | Free-atom electrostatic energy:        -146.85935851 Ha       -3996.24647193 eV
  | Hartree energy correction     :           0.00000000 Ha           0.00000000 eV
  | vdW energy correction         :           0.00000000 Ha           0.00000000 eV
  | Entropy correction            :           0.00000000 Ha           0.00000000 eV
  | ---------------------------
  | Total energy                  :        -323.75698607 Ha       -8809.87583243 eV
  | Total energy, T -> 0          :        -323.75698607 Ha       -8809.87583243 eV  <-- do not rely on this value for anything but (periodic) metals
  | Electronic free energy        :        -323.75698607 Ha       -8809.87583243 eV

  Derived energy quantities:
  | Kinetic energy                :         320.49775515 Ha        8721.18764675 eV
  | Electrostatic energy          :        -602.46636009 Ha      -16393.94377259 eV
  | Energy correction for multipole
  | error in Hartree potential    :           0.00000000 Ha           0.00000000 eV
  | Sum of eigenvalues per atom                           :        -395.25369279 eV
  | Total energy (T->0) per atom                          :        -677.68275634 eV  <-- do not rely on this value for anything but (periodic) metals
  | Electronic free energy per atom                       :        -677.68275634 eV
  Initialize hartree_potential_storage
  Max. number of atoms included in rho_multipole:           13

  End scf initialization - timings             :  max(cpu_time)    wall_clock(cpu1)
  | Time for scf. initialization               :        1.186 s           1.188 s
  | Boundary condition initialization          :        0.000 s           0.000 s
  | Integration                                :        0.727 s           0.727 s
  | Solution of K.-S. eqns.                    :        0.004 s           0.004 s
  | Grid partitioning                          :        0.114 s           0.114 s
  | Preloading free-atom quantities on grid    :        0.002 s           0.002 s
  | Free-atom superposition energy             :        0.085 s           0.086 s
  | Total energy evaluation                    :        0.000 s           0.000 s

  Partial memory accounting:
  | Current value for overall tracked memory usage on task 0  :           0.165 MB
  | Peak value for overall tracked memory usage on task 0     :           0.678 MB after allocating wave
  | Largest tracked array allocation on task 0 so far         :           0.132 MB  when allocating H_times_psi
  Note:  These values currently only include a subset of arrays which are explicitly tracked.
  The "true" memory usage will be greater.
------------------------------------------------------------

------------------------------------------------------------
          Begin self-consistency iteration #    1

  Date     :  20200710, Time     :  145206.278
------------------------------------------------------------
  Evaluating new KS density.
  Integration grid: deviation in total charge (<rho> - N_e) =   4.263256E-14
  Pulay mixing of updated and previous charge densities.

  Evaluating partitioned Hartree potential by multipole expansion.
  | Analytical far-field extrapolation by fixed multipoles:
  | Hartree multipole sum: apparent total charge =  -0.125516E-03
  Summing up the Hartree potential.
  Time summed over all CPUs for potential: real work        0.284 s, elapsed        0.284 s
  | RMS charge density error from multipole expansion :   0.598795E-02

  Integrating Hamiltonian matrix: batch-based integration.
  Time summed over all CPUs for integration: real work        0.499 s, elapsed        0.499 s

  Updating Kohn-Sham eigenvalues and eigenvectors using ELSI and the ELPA eigensolver.
  Finished Cholesky decomposition
  | Time :     0.000 s
  Finished transformation to standard eigenproblem
  | Time :     0.000 s
  Starting LAPACK eigensolver
  Finished solving standard eigenproblem
  | Time :     0.001 s
  Finished back-transformation of eigenvectors
  | Time :     0.000 s

  Obtaining occupation numbers and chemical potential using ELSI.
  | Chemical potential (Fermi level):    -7.83909869eV
  Writing Kohn-Sham eigenvalues.

  State    Occupation    Eigenvalue [Ha]    Eigenvalue [eV]
      1       2.00000         -18.899437         -514.27986
      2       2.00000         -18.838482         -512.62119
      3       2.00000         -14.099536         -383.66788
      4       2.00000         -10.117684         -275.31619
      5       2.00000         -10.064177         -273.86020
      6       2.00000         -10.030434         -272.94199
      7       2.00000          -1.134228          -30.86391
      8       2.00000          -1.036109          -28.19397
      9       2.00000          -0.923752          -25.13658
     10       2.00000          -0.795292          -21.64100
     11       2.00000          -0.700305          -19.05626
     12       2.00000          -0.640581          -17.43110
     13       2.00000          -0.571690          -15.55647
     14       2.00000          -0.561318          -15.27425
     15       2.00000          -0.525381          -14.29634
     16       2.00000          -0.512532          -13.94671
     17       2.00000          -0.492969          -13.41437
     18       2.00000          -0.465345          -12.66268
     19       2.00000          -0.447096          -12.16610
     20       2.00000          -0.442310          -12.03587
     21       2.00000          -0.395777          -10.76965
     22       2.00000          -0.372175          -10.12741
     23       2.00000          -0.352207           -9.58405
     24       2.00000          -0.305316           -8.30806
     25       0.00000          -0.127148           -3.45987
     26       0.00000          -0.056975           -1.55037
     27       0.00000           0.006715            0.18273
     28       0.00000           0.014912            0.40577
     29       0.00000           0.027104            0.73753
     30       0.00000           0.051903            1.41235
     31       0.00000           0.058330            1.58723
     32       0.00000           0.071247            1.93872
     33       0.00000           0.083798            2.28025
     34       0.00000           0.104224            2.83607
     35       0.00000           0.121690            3.31134
     36       0.00000           0.162834            4.43093
     37       0.00000           0.191261            5.20449
     38       0.00000           0.224228            6.10157
     39       0.00000           0.251463            6.84266
     40       0.00000           0.258132            7.02414
     41       0.00000           0.289618            7.88091
     42       0.00000           0.306443            8.33873
     43       0.00000           0.314826            8.56686
     44       0.00000           0.330000            8.97975
     45       0.00000           0.361458            9.83577
     46       0.00000           0.383492           10.43534
     47       0.00000           0.411108           11.18681
     48       0.00000           0.423338           11.51962
     49       0.00000           0.482003           13.11596
     50       0.00000           0.523542           14.24632
     51       0.00000           0.531178           14.45408
     52       0.00000           0.561834           15.28827
     53       0.00000           0.627231           17.06782

  Highest occupied state (VBM) at     -8.30805958 eV
  | Occupation number:      2.00000000

  Lowest unoccupied state (CBM) at    -3.45987144 eV
  | Occupation number:      0.00000000

  Overall HOMO-LUMO gap:      4.84818813 eV.

  Total energy components:
  | Sum of eigenvalues            :        -185.44826936 Ha       -5046.30416239 eV
  | XC energy correction          :         -42.11826413 Ha       -1146.09627962 eV
  | XC potential correction       :          54.14877962 Ha        1473.46326240 eV
  | Free-atom electrostatic energy:        -146.85935851 Ha       -3996.24647193 eV
  | Hartree energy correction     :          -3.29437368 Ha         -89.64446883 eV
  | vdW energy correction         :           0.00000000 Ha           0.00000000 eV
  | Entropy correction            :           0.00000000 Ha           0.00000000 eV
  | ---------------------------
  | Total energy                  :        -323.57148606 Ha       -8804.82812038 eV
  | Total energy, T -> 0          :        -323.57148606 Ha       -8804.82812038 eV  <-- do not rely on this value for anything but (periodic) metals
  | Electronic free energy        :        -323.57148606 Ha       -8804.82812038 eV

  Derived energy quantities:
  | Kinetic energy                :         322.30061125 Ha        8770.24585738 eV
  | Electrostatic energy          :        -603.75383318 Ha      -16428.97769813 eV
  | Energy correction for multipole
  | error in Hartree potential    :           0.01186326 Ha           0.32281568 eV
  | Sum of eigenvalues per atom                           :        -388.17724326 eV
  | Total energy (T->0) per atom                          :        -677.29447080 eV  <-- do not rely on this value for anything but (periodic) metals
  | Electronic free energy per atom                       :        -677.29447080 eV

  Self-consistency convergence accuracy:
  | Change of charge density      :  0.5882E+00
  | Change of sum of eigenvalues  :  0.9199E+02 eV
  | Change of total energy        :  0.5048E+01 eV

  End self-consistency iteration #     1       :  max(cpu_time)    wall_clock(cpu1)
  | Time for this iteration                    :        1.200 s           1.202 s
  | Charge density update                      :        0.399 s           0.400 s
  | Density mixing                             :        0.006 s           0.005 s
  | Hartree multipole update                   :        0.009 s           0.009 s
  | Hartree multipole summation                :        0.285 s           0.286 s
  | Integration                                :        0.499 s           0.499 s
  | Solution of K.-S. eqns.                    :        0.002 s           0.002 s
  | Total energy evaluation                    :        0.000 s           0.001 s

  Partial memory accounting:
  | Current value for overall tracked memory usage on task 0  :           0.165 MB
  | Peak value for overall tracked memory usage on task 0     :           0.695 MB after allocating gradient_basis_wave
  | Largest tracked array allocation on task 0 so far         :           0.397 MB  when allocating gradient_basis_wave
  Note:  These values currently only include a subset of arrays which are explicitly tracked.
  The "true" memory usage will be greater.
------------------------------------------------------------

------------------------------------------------------------
          Begin self-consistency iteration #    2

  Date     :  20200710, Time     :  145207.482
------------------------------------------------------------
  Evaluating new KS density.
  Integration grid: deviation in total charge (<rho> - N_e) =  -2.131628E-14
  Pulay mixing of updated and previous charge densities.

  Evaluating partitioned Hartree potential by multipole expansion.
  | Analytical far-field extrapolation by fixed multipoles:
  | Hartree multipole sum: apparent total charge =  -0.259395E-03
  Summing up the Hartree potential.
  Time summed over all CPUs for potential: real work        0.284 s, elapsed        0.284 s
  | RMS charge density error from multipole expansion :   0.140834E-01

  Integrating Hamiltonian matrix: batch-based integration.
  Time summed over all CPUs for integration: real work        0.498 s, elapsed        0.498 s

  Updating Kohn-Sham eigenvalues and eigenvectors using ELSI and the ELPA eigensolver.
  Finished Cholesky decomposition
  | Time :     0.000 s
  Finished transformation to standard eigenproblem
  | Time :     0.000 s
  Starting LAPACK eigensolver
  Finished solving standard eigenproblem
  | Time :     0.001 s
  Finished back-transformation of eigenvectors
  | Time :     0.000 s

  Obtaining occupation numbers and chemical potential using ELSI.
  | Chemical potential (Fermi level):    -2.44270544eV
  Highest occupied state (VBM) at     -6.38801969 eV
  | Occupation number:      2.00000000

  Lowest unoccupied state (CBM) at    -2.25228213 eV
  | Occupation number:      0.00000000

  Overall HOMO-LUMO gap:      4.13573756 eV.

  Checking to see if s.c.f. parameters should be adjusted.

  Total energy components:
  | Sum of eigenvalues            :        -181.92946059 Ha       -4950.55250399 eV
  | XC energy correction          :         -42.47411213 Ha       -1155.77939639 eV
  | XC potential correction       :          54.61003515 Ha        1486.01466398 eV
  | Free-atom electrostatic energy:        -146.85935851 Ha       -3996.24647193 eV
  | Hartree energy correction     :          -6.83915684 Ha        -186.10292633 eV
  | vdW energy correction         :           0.00000000 Ha           0.00000000 eV
  | Entropy correction            :          -0.00000000 Ha          -0.00000000 eV
  | ---------------------------
  | Total energy                  :        -323.49205292 Ha       -8802.66663466 eV
  | Total energy, T -> 0          :        -323.49205292 Ha       -8802.66663466 eV  <-- do not rely on this value for anything but (periodic) metals
  | Electronic free energy        :        -323.49205292 Ha       -8802.66663466 eV

  Derived energy quantities:
  | Kinetic energy                :         323.60783430 Ha        8805.81720640 eV
  | Electrostatic energy          :        -604.62577509 Ha      -16452.70444467 eV
  | Energy correction for multipole
  | error in Hartree potential    :           0.02592436 Ha           0.70543782 eV
  | Sum of eigenvalues per atom                           :        -380.81173108 eV
  | Total energy (T->0) per atom                          :        -677.12820267 eV  <-- do not rely on this value for anything but (periodic) metals
  | Electronic free energy per atom                       :        -677.12820267 eV

  Self-consistency convergence accuracy:
  | Change of charge density      :  0.3682E+00
  | Change of sum of eigenvalues  :  0.9575E+02 eV
  | Change of total energy        :  0.2161E+01 eV

  End self-consistency iteration #     2       :  max(cpu_time)    wall_clock(cpu1)
  | Time for this iteration                    :        1.207 s           1.208 s
  | Charge density update                      :        0.407 s           0.408 s
  | Density mixing                             :        0.007 s           0.007 s
  | Hartree multipole update                   :        0.009 s           0.009 s
  | Hartree multipole summation                :        0.284 s           0.284 s
  | Integration                                :        0.498 s           0.498 s
  | Solution of K.-S. eqns.                    :        0.002 s           0.002 s
  | Total energy evaluation                    :        0.000 s           0.000 s

  Partial memory accounting:
  | Current value for overall tracked memory usage on task 0  :           0.166 MB
  | Peak value for overall tracked memory usage on task 0     :           0.695 MB after allocating gradient_basis_wave
  | Largest tracked array allocation on task 0 so far         :           0.397 MB  when allocating gradient_basis_wave
  Note:  These values currently only include a subset of arrays which are explicitly tracked.
  The "true" memory usage will be greater.
------------------------------------------------------------

------------------------------------------------------------
          Begin self-consistency iteration #    3

  Date     :  20200710, Time     :  145208.691
------------------------------------------------------------
  Evaluating new KS density.
  Integration grid: deviation in total charge (<rho> - N_e) =   2.131628E-14
  Pulay mixing of updated and previous charge densities.

  Evaluating partitioned Hartree potential by multipole expansion.
  | Analytical far-field extrapolation by fixed multipoles:
  | Hartree multipole sum: apparent total charge =  -0.354737E-03
  Summing up the Hartree potential.
  Time summed over all CPUs for potential: real work        0.284 s, elapsed        0.284 s
  | RMS charge density error from multipole expansion :   0.221042E-01

  Integrating Hamiltonian matrix: batch-based integration.
  Time summed over all CPUs for integration: real work        0.493 s, elapsed        0.493 s

  Updating Kohn-Sham eigenvalues and eigenvectors using ELSI and the ELPA eigensolver.
  Finished Cholesky decomposition
  | Time :     0.000 s
  Finished transformation to standard eigenproblem
  | Time :     0.000 s
  Starting LAPACK eigensolver
  Finished solving standard eigenproblem
  | Time :     0.001 s
  Finished back-transformation of eigenvectors
  | Time :     0.000 s

  Obtaining occupation numbers and chemical potential using ELSI.
  | Chemical potential (Fermi level):    -1.71801308eV
  Highest occupied state (VBM) at     -5.70412181 eV
  | Occupation number:      2.00000000

  Lowest unoccupied state (CBM) at    -1.55120722 eV
  | Occupation number:      0.00000000

  Overall HOMO-LUMO gap:      4.15291459 eV.

  Total energy components:
  | Sum of eigenvalues            :        -180.57185256 Ha       -4913.61010985 eV
  | XC energy correction          :         -42.63065984 Ha       -1160.03927627 eV
  | XC potential correction       :          54.80985779 Ha        1491.45211478 eV
  | Free-atom electrostatic energy:        -146.85935851 Ha       -3996.24647193 eV
  | Hartree energy correction     :          -8.22649981 Ha        -223.85444954 eV
  | vdW energy correction         :           0.00000000 Ha           0.00000000 eV
  | Entropy correction            :          -0.00000000 Ha          -0.00000000 eV
  | ---------------------------
  | Total energy                  :        -323.47851293 Ha       -8802.29819282 eV
  | Total energy, T -> 0          :        -323.47851293 Ha       -8802.29819282 eV  <-- do not rely on this value for anything but (periodic) metals
  | Electronic free energy        :        -323.47851293 Ha       -8802.29819282 eV

  Derived energy quantities:
  | Kinetic energy                :         323.24025771 Ha        8795.81493843 eV
  | Electrostatic energy          :        -604.08811080 Ha      -16438.07385497 eV
  | Energy correction for multipole
  | error in Hartree potential    :           0.03675686 Ha           1.00020501 eV
  | Sum of eigenvalues per atom                           :        -377.97000845 eV
  | Total energy (T->0) per atom                          :        -677.09986099 eV  <-- do not rely on this value for anything but (periodic) metals
  | Electronic free energy per atom                       :        -677.09986099 eV

  Self-consistency convergence accuracy:
  | Change of charge density      :  0.2085E+00
  | Change of sum of eigenvalues  :  0.3694E+02 eV
  | Change of total energy        :  0.3684E+00 eV

  End self-consistency iteration #     3       :  max(cpu_time)    wall_clock(cpu1)
  | Time for this iteration                    :        1.188 s           1.189 s
  | Charge density update                      :        0.390 s           0.391 s
  | Density mixing                             :        0.009 s           0.009 s
  | Hartree multipole update                   :        0.009 s           0.009 s
  | Hartree multipole summation                :        0.284 s           0.284 s
  | Integration                                :        0.494 s           0.494 s
  | Solution of K.-S. eqns.                    :        0.002 s           0.002 s
  | Total energy evaluation                    :        0.000 s           0.000 s

  Partial memory accounting:
  | Current value for overall tracked memory usage on task 0  :           0.166 MB
  | Peak value for overall tracked memory usage on task 0     :           0.695 MB after allocating gradient_basis_wave
  | Largest tracked array allocation on task 0 so far         :           0.397 MB  when allocating gradient_basis_wave
  Note:  These values currently only include a subset of arrays which are explicitly tracked.
  The "true" memory usage will be greater.
------------------------------------------------------------

------------------------------------------------------------
          Begin self-consistency iteration #    4

  Date     :  20200710, Time     :  145209.883
------------------------------------------------------------
  Evaluating new KS density.
  Integration grid: deviation in total charge (<rho> - N_e) =   7.105427E-15
  Pulay mixing of updated and previous charge densities.

  Evaluating partitioned Hartree potential by multipole expansion.
  | Analytical far-field extrapolation by fixed multipoles:
  | Hartree multipole sum: apparent total charge =  -0.386787E-03
  Summing up the Hartree potential.
  Time summed over all CPUs for potential: real work        0.280 s, elapsed        0.280 s
  | RMS charge density error from multipole expansion :   0.256142E-01

  Integrating Hamiltonian matrix: batch-based integration.
  Time summed over all CPUs for integration: real work        0.490 s, elapsed        0.490 s

  Updating Kohn-Sham eigenvalues and eigenvectors using ELSI and the ELPA eigensolver.
  Finished Cholesky decomposition
  | Time :     0.000 s
  Finished transformation to standard eigenproblem
  | Time :     0.000 s
  Starting LAPACK eigensolver
  Finished solving standard eigenproblem
  | Time :     0.001 s
  Finished back-transformation of eigenvectors
  | Time :     0.000 s

  Obtaining occupation numbers and chemical potential using ELSI.
  | Chemical potential (Fermi level):    -1.62923254eV
  Highest occupied state (VBM) at     -5.50419306 eV
  | Occupation number:      2.00000000

  Lowest unoccupied state (CBM) at    -1.45564411 eV
  | Occupation number:      0.00000000

  Overall HOMO-LUMO gap:      4.04854895 eV.

  Total energy components:
  | Sum of eigenvalues            :        -180.43990739 Ha       -4910.01969913 eV
  | XC energy correction          :         -42.66833918 Ha       -1161.06458341 eV
  | XC potential correction       :          54.85718998 Ha        1492.74008918 eV
  | Free-atom electrostatic energy:        -146.85935851 Ha       -3996.24647193 eV
  | Hartree energy correction     :          -8.36698545 Ha        -227.67725818 eV
  | vdW energy correction         :           0.00000000 Ha           0.00000000 eV
  | Entropy correction            :          -0.00000000 Ha          -0.00000000 eV
  | ---------------------------
  | Total energy                  :        -323.47740055 Ha       -8802.26792347 eV
  | Total energy, T -> 0          :        -323.47740055 Ha       -8802.26792347 eV  <-- do not rely on this value for anything but (periodic) metals
  | Electronic free energy        :        -323.47740055 Ha       -8802.26792347 eV

  Derived energy quantities:
  | Kinetic energy                :         322.83510423 Ha        8784.79015131 eV
  | Electrostatic energy          :        -603.64416560 Ha      -16425.99349136 eV
  | Energy correction for multipole
  | error in Hartree potential    :           0.04102220 Ha           1.11627093 eV
  | Sum of eigenvalues per atom                           :        -377.69382301 eV
  | Total energy (T->0) per atom                          :        -677.09753257 eV  <-- do not rely on this value for anything but (periodic) metals
  | Electronic free energy per atom                       :        -677.09753257 eV

  Self-consistency convergence accuracy:
  | Change of charge density      :  0.6918E-01
  | Change of sum of eigenvalues  :  0.3590E+01 eV
  | Change of total energy        :  0.3027E-01 eV

  End self-consistency iteration #     4       :  max(cpu_time)    wall_clock(cpu1)
  | Time for this iteration                    :        1.176 s           1.177 s
  | Charge density update                      :        0.385 s           0.386 s
  | Density mixing                             :        0.009 s           0.009 s
  | Hartree multipole update                   :        0.009 s           0.009 s
  | Hartree multipole summation                :        0.280 s           0.280 s
  | Integration                                :        0.490 s           0.490 s
  | Solution of K.-S. eqns.                    :        0.002 s           0.002 s
  | Total energy evaluation                    :        0.000 s           0.001 s

  Partial memory accounting:
  | Current value for overall tracked memory usage on task 0  :           0.166 MB
  | Peak value for overall tracked memory usage on task 0     :           0.696 MB after allocating gradient_basis_wave
  | Largest tracked array allocation on task 0 so far         :           0.397 MB  when allocating gradient_basis_wave
  Note:  These values currently only include a subset of arrays which are explicitly tracked.
  The "true" memory usage will be greater.
------------------------------------------------------------

------------------------------------------------------------
          Begin self-consistency iteration #    5

  Date     :  20200710, Time     :  145211.062
------------------------------------------------------------
  Evaluating new KS density.
  Integration grid: deviation in total charge (<rho> - N_e) =  -2.842171E-14
  Pulay mixing of updated and previous charge densities.

  Evaluating partitioned Hartree potential by multipole expansion.
  | Analytical far-field extrapolation by fixed multipoles:
  | Hartree multipole sum: apparent total charge =  -0.380780E-03
  Summing up the Hartree potential.
  Time summed over all CPUs for potential: real work        0.284 s, elapsed        0.284 s
  | RMS charge density error from multipole expansion :   0.253918E-01

  Integrating Hamiltonian matrix: batch-based integration.
  Time summed over all CPUs for integration: real work        0.503 s, elapsed        0.503 s

  Updating Kohn-Sham eigenvalues and eigenvectors using ELSI and the ELPA eigensolver.
  Finished Cholesky decomposition
  | Time :     0.000 s
  Finished transformation to standard eigenproblem
  | Time :     0.000 s
  Starting LAPACK eigensolver
  Finished solving standard eigenproblem
  | Time :     0.002 s
  Finished back-transformation of eigenvectors
  | Time :     0.000 s

  Obtaining occupation numbers and chemical potential using ELSI.
  | Chemical potential (Fermi level):    -1.70320378eV
  Highest occupied state (VBM) at     -5.61407543 eV
  | Occupation number:      2.00000000

  Lowest unoccupied state (CBM) at    -1.55518117 eV
  | Occupation number:      0.00000000

  Overall HOMO-LUMO gap:      4.05889426 eV.

  Total energy components:
  | Sum of eigenvalues            :        -180.65126715 Ha       -4915.77109071 eV
  | XC energy correction          :         -42.64253197 Ha       -1160.36233350 eV
  | XC potential correction       :          54.82368644 Ha        1491.82841129 eV
  | Free-atom electrostatic energy:        -146.85935851 Ha       -3996.24647193 eV
  | Hartree energy correction     :          -8.14763618 Ha        -221.70846092 eV
  | vdW energy correction         :           0.00000000 Ha           0.00000000 eV
  | Entropy correction            :          -0.00000000 Ha          -0.00000000 eV
  | ---------------------------
  | Total energy                  :        -323.47710738 Ha       -8802.25994577 eV
  | Total energy, T -> 0          :        -323.47710738 Ha       -8802.25994577 eV  <-- do not rely on this value for anything but (periodic) metals
  | Electronic free energy        :        -323.47710738 Ha       -8802.25994577 eV

  Derived energy quantities:
  | Kinetic energy                :         322.70578758 Ha        8781.27126627 eV
  | Electrostatic energy          :        -603.54036299 Ha      -16423.16887853 eV
  | Energy correction for multipole
  | error in Hartree potential    :           0.04040701 Ha           1.09953080 eV
  | Sum of eigenvalues per atom                           :        -378.13623775 eV
  | Total energy (T->0) per atom                          :        -677.09691891 eV  <-- do not rely on this value for anything but (periodic) metals
  | Electronic free energy per atom                       :        -677.09691891 eV

  Self-consistency convergence accuracy:
  | Change of charge density      :  0.2082E-01
  | Change of sum of eigenvalues  : -0.5751E+01 eV
  | Change of total energy        :  0.7978E-02 eV

  End self-consistency iteration #     5       :  max(cpu_time)    wall_clock(cpu1)
  | Time for this iteration                    :        1.190 s           1.198 s
  | Charge density update                      :        0.387 s           0.388 s
  | Density mixing                             :        0.011 s           0.011 s
  | Hartree multipole update                   :        0.009 s           0.009 s
  | Hartree multipole summation                :        0.284 s           0.284 s
  | Integration                                :        0.497 s           0.504 s
  | Solution of K.-S. eqns.                    :        0.002 s           0.002 s
  | Total energy evaluation                    :        0.000 s           0.000 s

  Partial memory accounting:
  | Current value for overall tracked memory usage on task 0  :           0.166 MB
  | Peak value for overall tracked memory usage on task 0     :           0.696 MB after allocating gradient_basis_wave
  | Largest tracked array allocation on task 0 so far         :           0.397 MB  when allocating gradient_basis_wave
  Note:  These values currently only include a subset of arrays which are explicitly tracked.
  The "true" memory usage will be greater.
------------------------------------------------------------

------------------------------------------------------------
          Begin self-consistency iteration #    6

  Date     :  20200710, Time     :  145212.263
------------------------------------------------------------
  Evaluating new KS density.
  Integration grid: deviation in total charge (<rho> - N_e) =   2.842171E-14
  Pulay mixing of updated and previous charge densities.

  Evaluating partitioned Hartree potential by multipole expansion.
  | Analytical far-field extrapolation by fixed multipoles:
  | Hartree multipole sum: apparent total charge =  -0.384940E-03
  Summing up the Hartree potential.
  Time summed over all CPUs for potential: real work        0.282 s, elapsed        0.282 s
  | RMS charge density error from multipole expansion :   0.258485E-01

  Integrating Hamiltonian matrix: batch-based integration.
  Time summed over all CPUs for integration: real work        0.492 s, elapsed        0.492 s

  Updating Kohn-Sham eigenvalues and eigenvectors using ELSI and the ELPA eigensolver.
  Finished Cholesky decomposition
  | Time :     0.000 s
  Finished transformation to standard eigenproblem
  | Time :     0.000 s
  Starting LAPACK eigensolver
  Finished solving standard eigenproblem
  | Time :     0.001 s
  Finished back-transformation of eigenvectors
  | Time :     0.000 s

  Obtaining occupation numbers and chemical potential using ELSI.
  | Chemical potential (Fermi level):    -1.70154467eV
  Highest occupied state (VBM) at     -5.57831122 eV
  | Occupation number:      2.00000000

  Lowest unoccupied state (CBM) at    -1.56218792 eV
  | Occupation number:      0.00000000

  Overall HOMO-LUMO gap:      4.01612330 eV.

  Total energy components:
  | Sum of eigenvalues            :        -180.63317788 Ha       -4915.27885688 eV
  | XC energy correction          :         -42.64434657 Ha       -1160.41171117 eV
  | XC potential correction       :          54.82600656 Ha        1491.89154510 eV
  | Free-atom electrostatic energy:        -146.85935851 Ha       -3996.24647193 eV
  | Hartree energy correction     :          -8.16618469 Ha        -222.21319140 eV
  | vdW energy correction         :           0.00000000 Ha           0.00000000 eV
  | Entropy correction            :          -0.00000000 Ha          -0.00000000 eV
  | ---------------------------
  | Total energy                  :        -323.47706109 Ha       -8802.25868628 eV
  | Total energy, T -> 0          :        -323.47706109 Ha       -8802.25868628 eV  <-- do not rely on this value for anything but (periodic) metals
  | Electronic free energy        :        -323.47706109 Ha       -8802.25868628 eV

  Derived energy quantities:
  | Kinetic energy                :         322.63829767 Ha        8779.43477233 eV
  | Electrostatic energy          :        -603.47101219 Ha      -16421.28174743 eV
  | Energy correction for multipole
  | error in Hartree potential    :           0.04086379 Ha           1.11196043 eV
  | Sum of eigenvalues per atom                           :        -378.09837361 eV
  | Total energy (T->0) per atom                          :        -677.09682202 eV  <-- do not rely on this value for anything but (periodic) metals
  | Electronic free energy per atom                       :        -677.09682202 eV

  Self-consistency convergence accuracy:
  | Change of charge density      :  0.1075E-01
  | Change of sum of eigenvalues  :  0.4922E+00 eV
  | Change of total energy        :  0.1259E-02 eV

  End self-consistency iteration #     6       :  max(cpu_time)    wall_clock(cpu1)
  | Time for this iteration                    :        1.187 s           1.188 s
  | Charge density update                      :        0.389 s           0.389 s
  | Density mixing                             :        0.012 s           0.013 s
  | Hartree multipole update                   :        0.009 s           0.009 s
  | Hartree multipole summation                :        0.283 s           0.283 s
  | Integration                                :        0.492 s           0.492 s
  | Solution of K.-S. eqns.                    :        0.002 s           0.002 s
  | Total energy evaluation                    :        0.000 s           0.000 s

  Partial memory accounting:
  | Current value for overall tracked memory usage on task 0  :           0.166 MB
  | Peak value for overall tracked memory usage on task 0     :           0.696 MB after allocating gradient_basis_wave
  | Largest tracked array allocation on task 0 so far         :           0.397 MB  when allocating gradient_basis_wave
  Note:  These values currently only include a subset of arrays which are explicitly tracked.
  The "true" memory usage will be greater.
------------------------------------------------------------

------------------------------------------------------------
          Begin self-consistency iteration #    7

  Date     :  20200710, Time     :  145213.454
------------------------------------------------------------
  Evaluating new KS density.
  Integration grid: deviation in total charge (<rho> - N_e) =   2.842171E-14
  Pulay mixing of updated and previous charge densities.

  Evaluating partitioned Hartree potential by multipole expansion.
  | Analytical far-field extrapolation by fixed multipoles:
  | Hartree multipole sum: apparent total charge =  -0.385655E-03
  Summing up the Hartree potential.
  Time summed over all CPUs for potential: real work        0.281 s, elapsed        0.281 s
  | RMS charge density error from multipole expansion :   0.259422E-01

  Integrating Hamiltonian matrix: batch-based integration.
  Time summed over all CPUs for integration: real work        0.491 s, elapsed        0.491 s

  Updating Kohn-Sham eigenvalues and eigenvectors using ELSI and the ELPA eigensolver.
  Finished Cholesky decomposition
  | Time :     0.000 s
  Finished transformation to standard eigenproblem
  | Time :     0.000 s
  Starting LAPACK eigensolver
  Finished solving standard eigenproblem
  | Time :     0.002 s
  Finished back-transformation of eigenvectors
  | Time :     0.000 s

[...]
  |   Hirshfeld dipole moment :      0.05750759
  |   Hirshfeld second moments:      0.01543377      -0.03172588      -0.01800029
  |                                 -0.03172588      -0.02464228       0.00765849
  |                                 -0.01800029       0.00765849      -0.01766400
  ----------------------------------------------------------------------
  | Atom    12: O
  |   Hirshfeld charge        :     -0.16668162
  |   Free atom volume        :     23.61338643
  |   Hirshfeld volume        :     20.99228171
  |   Hirshfeld dipole vector :      0.03351721       0.02928233      -0.00190213
  |   Hirshfeld dipole moment :      0.04454746
  |   Hirshfeld second moments:      0.05394158      -0.02518521      -0.01783693
  |                                 -0.02518521       0.05494294       0.04007493
  |                                 -0.01783693       0.04007493       0.05246870
  ----------------------------------------------------------------------
  | Atom    13: H
  |   Hirshfeld charge        :      0.17956514
  |   Free atom volume        :      9.95071624
  |   Hirshfeld volume        :      6.10058623
  |   Hirshfeld dipole vector :      0.08634156      -0.05722944      -0.07284759
  |   Hirshfeld dipole moment :      0.12663666
  |   Hirshfeld second moments:      0.12050157      -0.00354898       0.00391349
  |                                 -0.00354898       0.11561850       0.01115518
  |                                  0.00391349       0.01115518       0.11150472
  ----------------------------------------------------------------------


  Total energy components:
  | Sum of eigenvalues            :        -180.63150008 Ha       -4915.23320162 eV
  | XC energy correction          :         -42.64119874 Ha       -1160.32605459 eV
  | XC potential correction       :          54.82201610 Ha        1491.78295923 eV
  | Free-atom electrostatic energy:        -146.85935851 Ha       -3996.24647193 eV
  | Hartree energy correction     :          -8.16699584 Ha        -222.23526411 eV
  | vdW energy correction         :          -0.00315852 Ha          -0.08594759 eV
  | Entropy correction            :          -0.00000000 Ha          -0.00000000 eV
  | ---------------------------
  | Total energy                  :        -323.48019560 Ha       -8802.34398060 eV
  | Total energy, T -> 0          :        -323.48019560 Ha       -8802.34398060 eV  <-- do not rely on this value for anything but (periodic) metals
  | Electronic free energy        :        -323.48019560 Ha       -8802.34398060 eV

  Derived energy quantities:
  | Kinetic energy                :         322.60298366 Ha        8778.47382923 eV
  | Electrostatic energy          :        -603.43882200 Ha      -16420.40580765 eV
  | Energy correction for multipole
  | error in Hartree potential    :           0.04091677 Ha           1.11340195 eV
  | Sum of eigenvalues per atom                           :        -378.09486166 eV
  | Total energy (T->0) per atom                          :        -677.10338312 eV  <-- do not rely on this value for anything but (periodic) metals
  | Electronic free energy per atom                       :        -677.10338312 eV

  atomic forces [eV/Ang]:
  -----------------------
  atom #    1
   Hellmann-Feynman              :  0.164475E+00 -0.410884E+00  0.102914E+01
   Ionic forces                  :  0.000000E+00  0.000000E+00  0.000000E+00
   Multipole                     :  0.418158E-01  0.126598E+00 -0.261794E+00
   Pulay + GGA                   : -0.827302E+00  0.381770E+00 -0.139172E+01
   Van der Waals                 :  0.246418E-02  0.469674E-02 -0.644211E-03
   ----------------------------------------------------------------
   Total forces(   1)            : -0.618547E+00  0.102181E+00 -0.625015E+00
  atom #    2
   Hellmann-Feynman              :  0.302082E+00  0.603355E-01 -0.125341E+00
   Ionic forces                  :  0.000000E+00  0.000000E+00  0.000000E+00
   Multipole                     :  0.176510E+00  0.279610E-01 -0.155277E-01
   Pulay + GGA                   : -0.147349E+00  0.433521E-01  0.315094E-01
   Van der Waals                 :  0.337723E-02 -0.491563E-02 -0.632223E-02
   ----------------------------------------------------------------
   Total forces(   2)            :  0.334620E+00  0.126733E+00 -0.115681E+00
  atom #    3
   Hellmann-Feynman              :  0.377465E+01  0.105282E+02 -0.389131E+01
   Ionic forces                  :  0.000000E+00  0.000000E+00  0.000000E+00
   Multipole                     : -0.141047E+00  0.165081E+00 -0.899084E+00
   Pulay + GGA                   : -0.271011E+01 -0.100696E+02  0.543835E+01
   Van der Waals                 :  0.329669E-02  0.323490E-03 -0.102715E-01
   ----------------------------------------------------------------
   Total forces(   3)            :  0.926791E+00  0.624027E+00  0.637682E+00
  atom #    4
   Hellmann-Feynman              : -0.212654E+00 -0.146021E+00 -0.158697E+00
   Ionic forces                  :  0.000000E+00  0.000000E+00  0.000000E+00
   Multipole                     : -0.901549E-02 -0.721123E-01 -0.811501E-01
   Pulay + GGA                   : -0.551770E-01  0.261190E+00  0.133610E-01
   Van der Waals                 :  0.695598E-03  0.840393E-02 -0.862286E-02
   ----------------------------------------------------------------
   Total forces(   4)            : -0.276151E+00  0.514610E-01 -0.235109E+00
  atom #    5
   Hellmann-Feynman              : -0.252652E+00 -0.272887E+00 -0.779331E-01
   Ionic forces                  :  0.000000E+00  0.000000E+00  0.000000E+00
   Multipole                     : -0.914636E-01 -0.391892E-01 -0.487256E-01
   Pulay + GGA                   :  0.233752E+00  0.710939E-01 -0.269193E-01
   Van der Waals                 : -0.107556E-02  0.216897E-02 -0.119379E-01
   ----------------------------------------------------------------
   Total forces(   5)            : -0.111440E+00 -0.238813E+00 -0.165516E+00
  atom #    6
   Hellmann-Feynman              :  0.214849E+00 -0.169026E+00  0.303942E+00
   Ionic forces                  :  0.000000E+00  0.000000E+00  0.000000E+00
   Multipole                     : -0.150922E+00  0.653737E+00  0.255482E+00
   Pulay + GGA                   :  0.155082E+00 -0.830049E+00 -0.545516E+00
   Van der Waals                 :  0.134178E-03  0.633134E-02 -0.162836E-02
   ----------------------------------------------------------------
   Total forces(   6)            :  0.219144E+00 -0.339006E+00  0.122798E-01
  atom #    7
   Hellmann-Feynman              : -0.242540E+00 -0.579766E-01 -0.391082E-01
   Ionic forces                  :  0.000000E+00  0.000000E+00  0.000000E+00
   Multipole                     : -0.118541E+00  0.497021E-01  0.340242E-01
   Pulay + GGA                   :  0.115011E+00  0.239389E-01  0.233663E-01
   Van der Waals                 : -0.224083E-02  0.541649E-02  0.901260E-02
   ----------------------------------------------------------------
   Total forces(   7)            : -0.248310E+00  0.210809E-01  0.272949E-01
  atom #    8
   Hellmann-Feynman              :  0.293585E-01 -0.859475E-01  0.131322E+00
   Ionic forces                  :  0.000000E+00  0.000000E+00  0.000000E+00
   Multipole                     :  0.165839E-01  0.679513E-01  0.127224E+00
   Pulay + GGA                   : -0.442687E-01 -0.392645E-01 -0.941304E-01
   Van der Waals                 : -0.283973E-02  0.113944E-01  0.142924E-02
   ----------------------------------------------------------------
   Total forces(   8)            : -0.116609E-02 -0.458663E-01  0.165844E+00
  atom #    9
   Hellmann-Feynman              :  0.808909E-01  0.229790E-01 -0.181596E+00
   Ionic forces                  :  0.000000E+00  0.000000E+00  0.000000E+00
   Multipole                     :  0.217330E-01  0.131148E+00 -0.850011E-02
   Pulay + GGA                   : -0.439685E-01 -0.108241E+00  0.184407E-01
   Van der Waals                 : -0.316981E-02  0.198497E-02  0.321708E-02
   ----------------------------------------------------------------
   Total forces(   9)            :  0.554856E-01  0.478713E-01 -0.168438E+00
  atom #   10
   Hellmann-Feynman              :  0.370478E+01  0.542850E+01  0.231483E+01
   Ionic forces                  :  0.000000E+00  0.000000E+00  0.000000E+00
   Multipole                     :  0.364022E-01 -0.164670E-01  0.256806E+00
   Pulay + GGA                   : -0.238600E+01 -0.303103E+01  0.799240E-01
   Van der Waals                 :  0.415301E-02 -0.160921E-01  0.943098E-02
   ----------------------------------------------------------------
   Total forces(  10)            :  0.135933E+01  0.236492E+01  0.266099E+01
  atom #   11
   Hellmann-Feynman              :  0.418828E+01 -0.250055E+01  0.137119E+02
   Ionic forces                  :  0.000000E+00  0.000000E+00  0.000000E+00
   Multipole                     :  0.531932E-01 -0.558788E+00  0.767464E+00
   Pulay + GGA                   : -0.368594E+01  0.377763E+01 -0.133708E+02
   Van der Waals                 : -0.325670E-02 -0.102470E-01  0.516609E-02
   ----------------------------------------------------------------
   Total forces(  11)            :  0.552278E+00  0.708048E+00  0.111379E+01
  atom #   12
   Hellmann-Feynman              : -0.145886E+02 -0.561965E+01 -0.955629E+00
   Ionic forces                  :  0.000000E+00  0.000000E+00  0.000000E+00
   Multipole                     : -0.101175E+01 -0.135667E+01 -0.186172E+00
   Pulay + GGA                   :  0.139840E+02  0.428892E+01 -0.121590E+01
   Van der Waals                 : -0.129651E-02 -0.157318E-02  0.117740E-01
   ----------------------------------------------------------------
   Total forces(  12)            : -0.161767E+01 -0.268898E+01 -0.234593E+01
  atom #   13
   Hellmann-Feynman              : -0.287898E+00 -0.775620E+00 -0.122330E+01
   Ionic forces                  :  0.000000E+00  0.000000E+00  0.000000E+00
   Multipole                     :  0.511647E-01 -0.435941E-01 -0.222612E-01
   Pulay + GGA                   : -0.336773E+00  0.882103E-01  0.278641E+00
   Van der Waals                 : -0.241744E-03 -0.789243E-02 -0.602977E-03
   ----------------------------------------------------------------
   Total forces(  13)            : -0.573748E+00 -0.738896E+00 -0.967526E+00

  Timings for VdW correction (Tkatchenko-Scheffler 2009 or later):
  | CPU time:        0.089 s, Wall clock time:        0.090 s.
  Removing unitary transformations (pure translations, rotations) from forces on atoms.
  Atomic forces before filtering:
  | Net force on center of mass :   0.612079E-03 -0.524370E-02 -0.532895E-02 eV/A
  | Net torque on center of mass:   0.185045E-02  0.250009E-02  0.101352E-01 eV
  Atomic forces after filtering:
  | Net force on center of mass :  -0.892031E-16 -0.178406E-15  0.000000E+00 eV/A
  | Net torque on center of mass:  -0.660859E-15  0.510396E-15  0.755268E-15 eV

  Energy and forces in a compact form:
  | Total energy uncorrected      :         -0.880234398060162E+04 eV
  | Total energy corrected        :         -0.880234398060162E+04 eV  <-- do not rely on this value for anything but (periodic) metals
  | Electronic free energy        :         -0.880234398060162E+04 eV
  Total atomic forces (unitary forces cleaned) [eV/Ang]:
  |   1         -0.618517241210097E+00          0.102435769679759E+00         -0.624544984025969E+00
  |   2          0.334649528000652E+00          0.126599489253565E+00         -0.115022962194740E+00
  |   3          0.927064235780600E+00          0.624374264398985E+00          0.638069412488972E+00
  |   4         -0.276075174606424E+00          0.516315879838631E-01         -0.234604987093151E+00
  |   5         -0.111196709015519E+00         -0.238106009458173E+00         -0.165298540917995E+00
  |   6          0.219496287289236E+00         -0.338534346807985E+00          0.125943123577038E-01
  |   7         -0.247950761785508E+00          0.219412779874641E-01          0.274198673783212E-01
  |   8         -0.986622445628048E-03         -0.454661015526662E-01          0.166220281199202E+00
  |   9          0.562444929354362E-01          0.481862256834430E-01         -0.168111252680090E+00
  |  10          0.135877331816319E+01          0.236535130557768E+01          0.266146808546327E+01
  |  11          0.551427356437237E+00          0.708443491557669E+00          0.111432424760009E+01
  |  12         -0.161841523652573E+01         -0.268832920162610E+01         -0.234552643523808E+01
  |  13         -0.574513473017443E+00         -0.738527752677504E+00         -0.966987044337534E+00

  ------------------------------------ 
  Start decomposition of the XC Energy 
  ------------------------------------ 
  X and C from original XC functional choice 
  Hartree-Fock Energy :          0.000000000 Ha              0.000000000 eV
  X Energy            :        -41.040339079 Ha          -1116.764446676 eV
  C Energy            :         -1.600859666 Ha            -43.561607913 eV
  Total XC Energy     :        -42.641198745 Ha          -1160.326054589 eV
  ------------------------------------ 
  LDA X and C from self-consistent density 
  X Energy LDA        :        -37.259022874 Ha          -1013.869597519 eV
  C Energy LDA        :         -3.138776642 Ha            -85.410458072 eV
  ------------------------------------ 
  End decomposition of the XC Energy 
  ------------------------------------ 

------------------------------------------------------------

------------------------------------------------------------------------------
  Final output of selected total energy values:

  The following output summarizes some interesting total energy values
  at the end of a run (AFTER all relaxation, molecular dynamics, etc.).

  | Total energy of the DFT / Hartree-Fock s.c.f. calculation      :          -8802.343980602 eV
  | Final zero-broadening corrected energy (caution - metals only) :          -8802.343980602 eV
  | For reference only, the value of 1 Hartree used in FHI-aims is :             27.211384500 eV

  Before relying on these values, please be sure to understand exactly which
  total energy value is referred to by a given number. Different objects may
  all carry the same name 'total energy'. Definitions:

  Total energy of the DFT / Hartree-Fock s.c.f. calculation:
  | Note that this energy does not include ANY quantities calculated after the
  | s.c.f. cycle, in particular not ANY RPA, MP2, etc. many-body perturbation terms.

  Final zero-broadening corrected energy:
  | For metallic systems only, a broadening of the occupation numbers at the Fermi
  | level can be extrapolated back to zero broadening by an electron-gas inspired
  | formula. For all systems that are not real metals, this value can be
  | meaningless and should be avoided.

------------------------------------------------------------------------------
  Methods described in the following list of references were used in this FHI-aims run.
  If you publish the results, please make sure to cite these reference if they apply.
  FHI-aims is an academic code, and for our developers (often, Ph.D. students
  and postdocs), scientific credit in the community is essential.
  Thank you for helping us!

  For any use of FHI-aims, please cite:

    Volker Blum, Ralf Gehrke, Felix Hanke, Paula Havu, Ville Havu,
    Xinguo Ren, Karsten Reuter, and Matthias Scheffler
    'Ab initio molecular simulations with numeric atom-centered orbitals'
    Computer Physics Communications 180, 2175-2196 (2009)
    http://dx.doi.org/10.1016/j.cpc.2009.06.022


  The scalable eigensolver library ELPA was used in your run.
  ELPA is essential especially for large systems on hundreds or thousands of CPUs.
  For ELPA, please cite:

    Andreas Marek, Volker Blum, Rainer Johanni, Ville Havu, Bruno Lang,
    Thomas Auckenthaler, Alexander Heinecke, Hans-Joachim Bungartz, and Hermann Lederer,
    'The ELPA Library - Scalable Parallel Eigenvalue Solutions
    for Electronic Structure Theory and Computational Science'
    The Journal of Physics: Condensed Matter 26, 213201 (2014).
    http://dx.doi.org/10.1088/0953-8984/26/21/213201


  The ELSI infrastructure was used in your run to solve the Kohn-Sham electronic structure.
  Please check out http://elsi-interchange.org to learn more.
  If scalability is important for your project, please acknowledge ELSI by citing:

    V. W-z. Yu, F. Corsetti, A. Garcia, W. P. Huhn, M. Jacquelin, W. Jia,
    B. Lange, L. Lin, J. Lu, W. Mi, A. Seifitokaldani, A. Vazquez-Mayagoitia,
    C. Yang, H. Yang, and V. Blum
    'ELSI: A unified software interface for Kohn-Sham electronic structure solvers'
    Computer Physics Communications 222, 267-285 (2018).
    http://dx.doi.org/10.1016/j.cpc.2017.09.007


  For the real-space grid partitioning and parallelization used in this calculation, please cite:

    Ville Havu, Volker Blum, Paula Havu, and Matthias Scheffler,
    'Efficient O(N) integration for all-electron electronic structure calculation'
    'using numerically tabulated basis functions'
    Journal of Computational Physics 228, 8367-8379 (2009).
    http://dx.doi.org/10.1016/j.jcp.2009.08.008

  Of course, there are many other important community references, e.g., those cited in the
  above references. Our list is limited to references that describe implementations in the
  FHI-aims code. The reason is purely practical (length of this list) - please credit others as well.

------------------------------------------------------------
          Leaving FHI-aims.
          Date     :  20200710, Time     :  145227.625

          Computational steps:
          | Number of self-consistency cycles          :           16
          | Number of SCF (re)initializations          :            1

          Detailed time accounting                     :  max(cpu_time)    wall_clock(cpu1)
          | Total time                                 :       22.646 s          22.710 s
          | Preparation time                           :        0.151 s           0.157 s
          | Boundary condition initalization           :        0.000 s           0.000 s
          | Grid partitioning                          :        0.114 s           0.114 s
          | Preloading free-atom quantities on grid    :        0.002 s           0.002 s
          | Free-atom superposition energy             :        0.085 s           0.086 s
          | Total time for integrations                :        8.597 s           8.608 s
          | Total time for solution of K.-S. equations :        0.036 s           0.036 s
          | Total time for density & force components  :        7.148 s           7.163 s
          | Total time for mixing                      :        0.212 s           0.214 s
          | Total time for Hartree multipole update    :        0.141 s           0.144 s
          | Total time for Hartree multipole sum       :        5.747 s           5.747 s
          | Total time for total energy evaluation     :        0.003 s           0.006 s
          | Total time for vdW correction              :        0.089 s           0.090 s

          Partial memory accounting:
          | Residual value for overall tracked memory usage across tasks :           0.000 MB (should be 0.000 MB)
          | Peak values for overall tracked memory usage (after allocating hessian_basis_wave):
          |   Minimum:        1.622 MB (on task 1)
          |   Maximum:        1.622 MB (on task 1)
          |   Average:        1.622 MB
          | Largest tracked array allocation (hessian_basis_wave):
          |   Minimum:        0.794 MB (on task 1)
          |   Maximum:        0.794 MB (on task 1)
          |   Average:        0.794 MB
          Note:  These values currently only include a subset of arrays which are explicitly tracked.
          The "true" memory usage will be greater.

          Have a nice day.
------------------------------------------------------------
