  MPI-parallelism will be employed.
------------------------------------------------------------
          Invoking FHI-aims ...
          Version 171221_1
          Compiled on 2019/09/09 at 14:39:39 on host puhti-login2.bullx.

          When using FHI-aims, please cite the following reference:

          Volker Blum, Ralf Gehrke, Felix Hanke, Paula Havu,
          Ville Havu, Xinguo Ren, Karsten Reuter, and Matthias Scheffler,
          'Ab Initio Molecular Simulations with Numeric Atom-Centered Orbitals',
          Computer Physics Communications 180, 2175-2196 (2009)

          For any questions about FHI-aims, please visit the aimsclub website
          with its forums and wiki. Contributions to both the forums and the
          wiki are warmly encouraged - they are for you, and everyone is welcome there.

------------------------------------------------------------



  Date     :  20200805, Time     :  182743.964
  Time zero on CPU 1             :   0.114260000000000E-01  s.
  Internal wall clock time zero  :           365884063.964  s.

  FHI-aims created a unique identifier for this run for later identification
  aims_uuid : FE3F3444-3C98-40A8-A2CA-0D997EC2BA08

  Using        1 parallel tasks.
  Task        0 on host r13c16.bullx reporting.

  Performing system and environment tests:
  | Environment variable OMP_NUM_THREADS correctly set to 1.
  | Stacksize not measured: no C compiler
  | Checking for scalapack...
  | Testing pdtran()...
  | All pdtran() tests passed.

  Obtaining array dimensions for all initial allocations:
  
  -----------------------------------------------------------------------
  Parsing control.in (first pass over file, find array dimensions only).
  The contents of control.in will be repeated verbatim below
  unless switched off by setting 'verbatim_writeout .false.' .
  in the first line of control.in .
  -----------------------------------------------------------------------
  
  #########################################################################################
  #
  #  Volker Blum, FHI 2009 : Test run input file control.in for simple H2O
  #
  #########################################################################################
  #
  #  Physical model
  #
    xc                 pbe
    vdw_correction_hirshfeld
    spin               none
    relativistic       none
    charge             0.
  #
  #  SCF convergence
  #
    occupation_type    gaussian 0.01
    mixer              pulay
      n_max_pulay        10
      charge_mix_param   0.2
    sc_accuracy_rho    1E-5
    sc_accuracy_eev    1E-3
    sc_accuracy_etot   1E-6
    sc_accuracy_forces 1E-4
    sc_iter_limit      100
  #
  #  Relaxation
  #
  #  relax_geometry   bfgs 1.e-3
  #
  ################################################################################
  #
  #  FHI-aims code project
  #  VB, Fritz-Haber Institut, 2009
  #
  #  Suggested "light" defaults for H atom (to be pasted into control.in file)
  #  Be sure to double-check any results obtained with these settings for post-processing,
  #  e.g., with the "tight" defaults and larger basis sets.
  #
  ################################################################################
    species        H
  #     global species definitions
      nucleus             1
      mass                1.00794
  #
      l_hartree           4
  #
      cut_pot             3.5  1.5  1.0
      basis_dep_cutoff    1e-4
  #
      radial_base         24 5.0
      radial_multiplier   1
      angular_grids       specified
        division   0.2421   50
        division   0.3822  110
        division   0.4799  194
        division   0.5341  302
  #      division   0.5626  434
  #      division   0.5922  590
  #      division   0.6542  770
  #      division   0.6868 1202
  #      outer_grid  770
        outer_grid  302
  ################################################################################
  #
  #  Definition of "minimal" basis
  #
  ################################################################################
  #     valence basis states
      valence      1  s   1.
  #     ion occupancy
      ion_occ      1  s   0.5
  ################################################################################
  #
  #  Suggested additional basis functions. For production calculations,
  #  uncomment them one after another (the most important basis functions are
  #  listed first).
  #
  #  Basis constructed for dimers: 0.5 A, 0.7 A, 1.0 A, 1.5 A, 2.5 A
  #
  ################################################################################
  #  "First tier" - improvements: -1014.90 meV to -62.69 meV
       hydro 2 s 2.1
       hydro 2 p 3.5
  #  "Second tier" - improvements: -12.89 meV to -1.83 meV
  #     hydro 1 s 0.85
  #     hydro 2 p 3.7
  #     hydro 2 s 1.2
  #     hydro 3 d 7
  #  "Third tier" - improvements: -0.25 meV to -0.12 meV
  #     hydro 4 f 11.2
  #     hydro 3 p 4.8
  #     hydro 4 d 9
  #     hydro 3 s 3.2
  ################################################################################
  #
  #  FHI-aims code project
  #  VB, Fritz-Haber Institut, 2009
  #
  #  Suggested "light" defaults for C atom (to be pasted into control.in file)
  #  Be sure to double-check any results obtained with these settings for post-processing,
  #  e.g., with the "tight" defaults and larger basis sets.
  #
  ################################################################################
    species        C
  #     global species definitions
      nucleus             6
      mass                12.0107
  #
      l_hartree           4
  #
      cut_pot             3.5  1.5  1.0
      basis_dep_cutoff    1e-4
  #
      radial_base         34 5.0
      radial_multiplier   1
      angular_grids specified
        division   0.3326   50
        division   0.5710  110
        division   0.7727  194
        division   0.8772  302
  #      division   0.9334  434
  #      division   0.9625  590
  #      division   0.9924  770
  #      division   1.0230  974
  #      division   1.4589 1202
  #     outer_grid  974
       outer_grid 302
  ################################################################################
  #
  #  Definition of "minimal" basis
  #
  ################################################################################
  #     valence basis states
      valence      2  s   2.
      valence      2  p   2.
  #     ion occupancy
      ion_occ      2  s   1.
      ion_occ      2  p   1.
  ################################################################################
  #
  #  Suggested additional basis functions. For production calculations,
  #  uncomment them one after another (the most important basis functions are
  #  listed first).
  #
  #  Constructed for dimers: 1.0 A, 1.25 A, 1.5 A, 2.0 A, 3.0 A
  #
  ################################################################################
  #  "First tier" - improvements: -1214.57 meV to -155.61 meV
       hydro 2 p 1.7
       hydro 3 d 6
       hydro 2 s 4.9
  #  "Second tier" - improvements: -67.75 meV to -5.23 meV
  #     hydro 4 f 9.8
  #     hydro 3 p 5.2
  #     hydro 3 s 4.3
  #     hydro 5 g 14.4
  #     hydro 3 d 6.2
  #  "Third tier" - improvements: -2.43 meV to -0.60 meV
  #     hydro 2 p 5.6
  #     hydro 2 s 1.4
  #     hydro 3 d 4.9
  #     hydro 4 f 11.2
  #  "Fourth tier" - improvements: -0.39 meV to -0.18 meV
  #     hydro 2 p 2.1
  #     hydro 5 g 16.4
  #     hydro 4 d 13.2
  #     hydro 3 s 13.6
  #     hydro 4 f 17.6
  #  Further basis functions - improvements: -0.08 meV and below
  #     hydro 3 s 2
  #     hydro 3 p 6
  #     hydro 4 d 20
  ################################################################################
  #
  #  FHI-aims code project
  #  VB, Fritz-Haber Institut, 2009
  #
  #  Suggested "light" defaults for N atom (to be pasted into control.in file)
  #  Be sure to double-check any results obtained with these settings for post-processing,
  #  e.g., with the "tight" defaults and larger basis sets.
  #
  ################################################################################
    species        N
  #     global species definitions
      nucleus             7
      mass                14.0067
  #
      l_hartree           4
  #
      cut_pot             3.5  1.5  1.0
      basis_dep_cutoff    1e-4
  #
      radial_base         35 5.0
      radial_multiplier   1
      angular_grids       specified
        division   0.2599   50
        division   0.4601  110
        division   0.5885  194
        division   0.6503  302
  #      division   0.6939  434
  #      division   0.7396  590
  #      division   0.7632  770
  #      division   0.8122  974
  #      division   1.1604 1202
  #      outer_grid  974
        outer_grid  302
  ################################################################################
  #
  #  Definition of "minimal" basis
  #
  ################################################################################
  #     valence basis states
      valence      2  s   2.
      valence      2  p   3.
  #     ion occupancy
      ion_occ      2  s   1.
      ion_occ      2  p   2.
  ################################################################################
  #
  #  Suggested additional basis functions. For production calculations,
  #  uncomment them one after another (the most important basis functions are
  #  listed first).
  #
  #  Constructed for dimers: 1.0 A, 1.1 A, 1.5 A, 2.0 A, 3.0 A
  #
  ################################################################################
  #  "First tier" - improvements: -1193.42 meV to -220.60 meV
       hydro 2 p 1.8
       hydro 3 d 6.8
       hydro 3 s 5.8
  #  "Second tier" - improvements: -80.21 meV to -6.86 meV
  #     hydro 4 f 10.8
  #     hydro 3 p 5.8
  #     hydro 1 s 0.8
  #     hydro 5 g 16
  #     hydro 3 d 4.9
  #  "Third tier" - improvements: -4.29 meV to -0.53 meV
  #     hydro 3 s 16
  #     ionic 2 p auto
  #     hydro 3 d 6.6
  #     hydro 4 f 11.6
  #  "Fourth tier" - improvements: -0.75 meV to -0.25 meV
  #     hydro 2 p 4.5
  #     hydro 2 s 2.4
  #     hydro 5 g 14.4
  #     hydro 4 d 14.4
  #     hydro 4 f 16.8
  # Further basis functions - -0.21 meV and below
  #     hydro 3 p 14.8
  #     hydro 3 s 4.4
  #     hydro 3 d 19.6
  #     hydro 5 g 12.8
  ################################################################################
  #
  #  FHI-aims code project
  #  VB, Fritz-Haber Institut, 2009
  #
  #  Suggested "light" defaults for O atom (to be pasted into control.in file)
  #  Be sure to double-check any results obtained with these settings for post-processing,
  #  e.g., with the "tight" defaults and larger basis sets.
  #
  ################################################################################
    species        O
  #     global species definitions
      nucleus             8
      mass                15.9994
  #
      l_hartree           4
  #
      cut_pot             3.5  1.5  1.0
      basis_dep_cutoff    1e-4
  #
      radial_base         36 5.0
      radial_multiplier   1
       angular_grids specified
        division   0.2659   50
        division   0.4451  110
        division   0.6052  194
        division   0.7543  302
  #      division   0.8014  434
  #      division   0.8507  590
  #      division   0.8762  770
  #      division   0.9023  974
  #      division   1.2339 1202
  #      outer_grid 974
        outer_grid 302
  ################################################################################
  #
  #  Definition of "minimal" basis
  #
  ################################################################################
  #     valence basis states
      valence      2  s   2.
      valence      2  p   4.
  #     ion occupancy
      ion_occ      2  s   1.
      ion_occ      2  p   3.
  ################################################################################
  #
  #  Suggested additional basis functions. For production calculations,
  #  uncomment them one after another (the most important basis functions are
  #  listed first).
  #
  #  Constructed for dimers: 1.0 A, 1.208 A, 1.5 A, 2.0 A, 3.0 A
  #
  ################################################################################
  #  "First tier" - improvements: -699.05 meV to -159.38 meV
       hydro 2 p 1.8
       hydro 3 d 7.6
       hydro 3 s 6.4
  #  "Second tier" - improvements: -49.91 meV to -5.39 meV
  #     hydro 4 f 11.6
  #     hydro 3 p 6.2
  #     hydro 3 d 5.6
  #     hydro 5 g 17.6
  #     hydro 1 s 0.75
  #  "Third tier" - improvements: -2.83 meV to -0.50 meV
  #     ionic 2 p auto
  #     hydro 4 f 10.8
  #     hydro 4 d 4.7
  #     hydro 2 s 6.8
  #  "Fourth tier" - improvements: -0.40 meV to -0.12 meV
  #     hydro 3 p 5
  #     hydro 3 s 3.3
  #     hydro 5 g 15.6
  #     hydro 4 f 17.6
  #     hydro 4 d 14
  # Further basis functions - -0.08 meV and below
  #     hydro 3 s 2.1
  #     hydro 4 d 11.6
  #     hydro 3 p 16
  #     hydro 2 s 17.2
  
  -----------------------------------------------------------------------
  Completed first pass over input file control.in .
  -----------------------------------------------------------------------
  
  
  -----------------------------------------------------------------------
  Parsing geometry.in (first pass over file, find array dimensions only).
  The contents of geometry.in will be repeated verbatim below
  unless switched off by setting 'verbatim_writeout .false.' .
  in the first line of geometry.in .
  -----------------------------------------------------------------------
  
  atom  0.00000 0.00000 0.00000 C
  atom  1.09300 0.00000 0.00000 H
  atom  -0.47961 0.00000 -1.41207 N
  atom  -1.38098 -0.47730 -1.45136 H
  atom  -0.57805 0.96397 -1.72383 H
  atom  -0.49584 1.26211 0.72868 C
  atom  -1.58789 1.28919 0.74431 H
  atom  -0.13407 1.27425 1.75947 H
  atom  -0.13407 2.16087 0.22380 H
  atom  -0.39425 -1.28861 0.74398 C
  atom  -0.10189 -1.56493 1.88303 O
  atom  -1.10210 -2.13717 0.06896 O
  atom  -0.53259 -2.91710 0.18011 H
  
  -----------------------------------------------------------------------
  Completed first pass over input file geometry.in .
  -----------------------------------------------------------------------
  

  Basic array size parameters:
  | Number of species                 :        4
  | Number of atoms                   :       13
  | Max. basis fn. angular momentum   :        2
  | Max. atomic/ionic basis occupied n:        2
  | Max. number of basis fn. types    :        2
  | Max. radial fns per species/type  :        3
  | Max. logarithmic grid size        :     1301
  | Max. radial integration grid size :       36
  | Max. angular integration grid size:      302
  | Max. angular grid division number :        8
  | Radial grid for Hartree potential :     1301
  | Number of spin channels           :        1

------------------------------------------------------------
          Reading file control.in.
------------------------------------------------------------
  XC: Using PBE gradient-corrected functionals.
  Spin treatment: No spin polarisation.
  Non-relativistic treatment of kinetic energy.
  Charge =   0.000000E+00: Neutral system requested explicitly.
  Occupation type: Gaussian broadening, width =   0.100000E-01 eV.
  Using pulay charge density mixing.
  Pulay mixing - number of memorized iterations:   10
  Charge density mixing - mixing parameter:     0.2000
  Convergence accuracy of self-consistent charge density:  0.1000E-04
  Convergence accuracy of sum of eigenvalues:  0.1000E-02
  Convergence accuracy of total energy:  0.1000E-05
  Convergence accuracy of forces:  0.1000E-03
  Maximum number of s.-c. iterations  :   100
 
  Reading configuration options for species H                   .
  | Found nuclear charge :   1.0000
  | Found atomic mass :    1.00794000000000      amu
  | Found l_max for Hartree potential  :   4
  | Found cutoff potl. onset [A], width [A], scale factor :    3.50000    1.50000    1.00000
  | Threshold for basis-dependent cutoff potential is   0.100000E-03
  | Found data for basic radial integration grid :    24 points, outermost radius =    5.000 A
  | Found multiplier for basic radial grid :   1
  | Found angular grid specification: user-specified.
  | Specified grid contains     5 separate shells.
  | Check grid settings after all constraints further below.
  | Found free-atom valence shell :  1 s   1.000
  | No ionic wave fns used. Skipping ion_occ.
  | Found hydrogenic basis function :  2 s   2.100
  | Found hydrogenic basis function :  2 p   3.500
  Species H                   : Missing cutoff potential type.
  Defaulting to exp(1/x)/(1-x)^2 type cutoff potential.
  Species H : No 'logarithmic' tag. Using default grid for free atom:
  | Default logarithmic grid data [bohr] : 0.1000E-03 0.1000E+03 0.1012E+01
  Species H : On-site basis accuracy parameter (for Gram-Schmidt orthonormalisation) not specified.
  Using default value basis_acc =  0.1000000E-03.
  Species H                   : Using default innermost maximum threshold i_radial=  2 for radial functions.
  Species H                   : Default cutoff onset for free atom density etc. : 0.35000000E+01 AA.
  Species H                   : Basic radial grid will be enhanced according to radial_multiplier =   1, to contain    24 grid points.
 
  Reading configuration options for species C                   .
  | Found nuclear charge :   6.0000
  | Found atomic mass :    12.0107000000000      amu
  | Found l_max for Hartree potential  :   4
  | Found cutoff potl. onset [A], width [A], scale factor :    3.50000    1.50000    1.00000
  | Threshold for basis-dependent cutoff potential is   0.100000E-03
  | Found data for basic radial integration grid :    34 points, outermost radius =    5.000 A
  | Found multiplier for basic radial grid :   1
  | Found angular grid specification: user-specified.
  | Specified grid contains     5 separate shells.
  | Check grid settings after all constraints further below.
  | Found free-atom valence shell :  2 s   2.000
  | Found free-atom valence shell :  2 p   2.000
  | No ionic wave fns used. Skipping ion_occ.
  | No ionic wave fns used. Skipping ion_occ.
  | Found hydrogenic basis function :  2 p   1.700
  | Found hydrogenic basis function :  3 d   6.000
  | Found hydrogenic basis function :  2 s   4.900
  Species C                   : Missing cutoff potential type.
  Defaulting to exp(1/x)/(1-x)^2 type cutoff potential.
  Species C : No 'logarithmic' tag. Using default grid for free atom:
  | Default logarithmic grid data [bohr] : 0.1000E-03 0.1000E+03 0.1012E+01
  Species C : On-site basis accuracy parameter (for Gram-Schmidt orthonormalisation) not specified.
  Using default value basis_acc =  0.1000000E-03.
  Species C                   : Using default innermost maximum threshold i_radial=  2 for radial functions.
  Species C                   : Default cutoff onset for free atom density etc. : 0.35000000E+01 AA.
  Species C                   : Basic radial grid will be enhanced according to radial_multiplier =   1, to contain    34 grid points.
 
  Reading configuration options for species N                   .
  | Found nuclear charge :   7.0000
  | Found atomic mass :    14.0067000000000      amu
  | Found l_max for Hartree potential  :   4
  | Found cutoff potl. onset [A], width [A], scale factor :    3.50000    1.50000    1.00000
  | Threshold for basis-dependent cutoff potential is   0.100000E-03
  | Found data for basic radial integration grid :    35 points, outermost radius =    5.000 A
  | Found multiplier for basic radial grid :   1
  | Found angular grid specification: user-specified.
  | Specified grid contains     5 separate shells.
  | Check grid settings after all constraints further below.
  | Found free-atom valence shell :  2 s   2.000
  | Found free-atom valence shell :  2 p   3.000
  | No ionic wave fns used. Skipping ion_occ.
  | No ionic wave fns used. Skipping ion_occ.
  | Found hydrogenic basis function :  2 p   1.800
  | Found hydrogenic basis function :  3 d   6.800
  | Found hydrogenic basis function :  3 s   5.800
  Species N                   : Missing cutoff potential type.
  Defaulting to exp(1/x)/(1-x)^2 type cutoff potential.
  Species N : No 'logarithmic' tag. Using default grid for free atom:
  | Default logarithmic grid data [bohr] : 0.1000E-03 0.1000E+03 0.1012E+01
  Species N : On-site basis accuracy parameter (for Gram-Schmidt orthonormalisation) not specified.
  Using default value basis_acc =  0.1000000E-03.
  Species N                   : Using default innermost maximum threshold i_radial=  2 for radial functions.
  Species N                   : Default cutoff onset for free atom density etc. : 0.35000000E+01 AA.
  Species N                   : Basic radial grid will be enhanced according to radial_multiplier =   1, to contain    35 grid points.
 
  Reading configuration options for species O                   .
  | Found nuclear charge :   8.0000
  | Found atomic mass :    15.9994000000000      amu
  | Found l_max for Hartree potential  :   4
  | Found cutoff potl. onset [A], width [A], scale factor :    3.50000    1.50000    1.00000
  | Threshold for basis-dependent cutoff potential is   0.100000E-03
  | Found data for basic radial integration grid :    36 points, outermost radius =    5.000 A
  | Found multiplier for basic radial grid :   1
  | Found angular grid specification: user-specified.
  | Specified grid contains     5 separate shells.
  | Check grid settings after all constraints further below.
  | Found free-atom valence shell :  2 s   2.000
  | Found free-atom valence shell :  2 p   4.000
  | No ionic wave fns used. Skipping ion_occ.
  | No ionic wave fns used. Skipping ion_occ.
  | Found hydrogenic basis function :  2 p   1.800
  | Found hydrogenic basis function :  3 d   7.600
  | Found hydrogenic basis function :  3 s   6.400
  Species O                   : Missing cutoff potential type.
  Defaulting to exp(1/x)/(1-x)^2 type cutoff potential.
  Species O : No 'logarithmic' tag. Using default grid for free atom:
  | Default logarithmic grid data [bohr] : 0.1000E-03 0.1000E+03 0.1012E+01
  Species O : On-site basis accuracy parameter (for Gram-Schmidt orthonormalisation) not specified.
  Using default value basis_acc =  0.1000000E-03.
  Species O                   : Using default innermost maximum threshold i_radial=  2 for radial functions.
  Species O                   : Default cutoff onset for free atom density etc. : 0.35000000E+01 AA.
  Species O                   : Basic radial grid will be enhanced according to radial_multiplier =   1, to contain    36 grid points.
 
  Finished reading input file 'control.in'. Consistency checks are next.
 
  MPI_IN_PLACE appears to work with this MPI implementation.
  | Keeping use_mpi_in_place .true. (see manual).
  Target number of points in a grid batch is not set. Defaulting to  100
  Method for grid partitioning is not set. Defaulting to parallel hash+maxmin partitioning.
  Batch size limit is not set. Defaulting to    200
  By default, will store active basis functions for each batch.
  If in need of memory, prune_basis_once .false. can be used to disable this option.
  communication_type for Hartree potential was not specified.
  Defaulting to calc_hartree .
  Pulay mixer: Number of initial linear mixing iterations not set.
  Defaulting to    0 iterations.
  Work space size for distributed Hartree potential not set.
  Defaulting to   0.200000E+03 MB.
  Algorithm-dependent basis array size parameters:
  | n_max_pulay                         :       10
  Presetting      1001 iterations before the initial mixing cycle
  is restarted anyway using the sc_init_iter criterion / keyword.
  Presetting a factor      1.000 between actual scf density residual
  and density convergence criterion sc_accuracy_rho below which sc_init_iter
  takes no effect.
  Geometry relaxation not requested: no relaxation will be performed.
  Handling of forces: Unphysical translation and rotation will be removed from forces.
  No accuracy limit for integral partition fn. given. Defaulting to  0.1000E-14.
  No threshold value for u(r) in integrations given. Defaulting to  0.1000E-05.
  No accuracy for occupation numbers given. Defaulting to  0.1000E-12.
  No threshold value for occupation numbers given. Defaulting to  0.0000E+00.
  No accuracy for fermi level given. Defaulting to  0.1000E-19.
  Maximum # of iterations to find E_F not set. Defaulting to  200.
  Preferred method for the eigenvalue solver ('KS_method') not specified in 'control.in'.
  Defaulting to serial version, 'lapack_fast'.
  Will not use alltoall communication since running on < 1024 CPUs.
  Threshold for basis singularities not set.
  Default threshold for basis singularities:  0.1000E-04
  partition_type (choice of integration weights) for integrals was not specified.
  | Using a version of the partition function of Stratmann and coworkers ('stratmann_smoother').
  | At each grid point, the set of atoms used to build the partition table is smoothly restricted to
  | only those atoms whose free-atom density would be non-zero at that grid point.
  Partitioning for Hartree potential was not defined. Using partition_type for integrals.
  | Adjusted default value of keyword multip_moments_threshold to:       0.10000000E-11
  | This value may affect high angular momentum components of the Hartree potential in periodic systems.
  No q(lm)/r^(l+1) cutoff set for long-range Hartree potential.
  | Using default value of  0.100000E-09 .
  | Verify using the multipole_threshold keyword.
  Defaulting to new monopole extrapolation.
  Density update method: automatic selection selected.
------------------------------------------------------------


------------------------------------------------------------
          Reading geometry description geometry.in.
------------------------------------------------------------
  Input structure read successfully.
  The structure contains       13 atoms,  and a total of         48.000 electrons.

  Input geometry:
  | No unit cell requested.
  | Atomic structure:
  |       Atom                x [A]            y [A]            z [A]
  |    1: Species C             0.00000000        0.00000000        0.00000000
  |    2: Species H             1.09300000        0.00000000        0.00000000
  |    3: Species N            -0.47961000        0.00000000       -1.41207000
  |    4: Species H            -1.38098000       -0.47730000       -1.45136000
  |    5: Species H            -0.57805000        0.96397000       -1.72383000
  |    6: Species C            -0.49584000        1.26211000        0.72868000
  |    7: Species H            -1.58789000        1.28919000        0.74431000
  |    8: Species H            -0.13407000        1.27425000        1.75947000
  |    9: Species H            -0.13407000        2.16087000        0.22380000
  |   10: Species C            -0.39425000       -1.28861000        0.74398000
  |   11: Species O            -0.10189000       -1.56493000        1.88303000
  |   12: Species O            -1.10210000       -2.13717000        0.06896000
  |   13: Species H            -0.53259000       -2.91710000        0.18011000
  |

  | The smallest distance between any two atoms is         0.97210430 AA.
  |
  | The first atom of this pair is atom number                     12 .
  | The second atom of this pair is atom number                    13 .

  Number of empty states per atom not set in control.in - providing a guess from actual geometry.
  | Total number of empty states used during s.c.f. cycle:       29
  If you use a very high smearing, use empty_states (per atom!) in control.in to increase this value.

  Structure-dependent array size parameters: 
  | Maximum number of distinct radial functions  :       21
  | Maximum number of basis functions            :      119
  | Number of Kohn-Sham states (occupied + empty):       53
------------------------------------------------------------

------------------------------------------------------------
          Preparing all fixed parts of the calculation.
------------------------------------------------------------
  Determining machine precision:
    2.225073858507201E-308
  Setting up grids for atomic and cluster calculations.

  Creating wave function, potential, and density for free atoms.

  Species: H

  List of occupied orbitals and eigenvalues:
    n    l              occ      energy [Ha]    energy [eV]
    1    0           1.0000        -0.237589        -6.4651


  Species: C

  List of occupied orbitals and eigenvalues:
    n    l              occ      energy [Ha]    energy [eV]
    1    0           2.0000       -10.038835      -273.1706
    2    0           2.0000        -0.502696       -13.6791
    2    1           2.0000        -0.191971        -5.2238


  Species: N

  List of occupied orbitals and eigenvalues:
    n    l              occ      energy [Ha]    energy [eV]
    1    0           2.0000       -14.128000      -384.4424
    2    0           2.0000        -0.681077       -18.5330
    2    1           3.0000        -0.259788        -7.0692


  Species: O

  List of occupied orbitals and eigenvalues:
    n    l              occ      energy [Ha]    energy [eV]
    1    0           2.0000       -18.898188      -514.2459
    2    0           2.0000        -0.878505       -23.9053
    2    1           4.0000        -0.331779        -9.0282

  Creating fixed part of basis set: Ionic, confined, hydrogenic.
 
  H                    hydrogenic:
 
  List of hydrogenic basis orbitals: 
    n    l      effective z      eigenvalue [eV]  inner max. [A]     outer max. [A]     outer radius [A]   
    2    0         2.100000       -14.9728           0.193243           1.317208           4.583499
    2    1         3.500000       -41.6669           0.602369           0.602369           3.723403
 
 
  C                    hydrogenic:
 
  List of hydrogenic basis orbitals: 
    n    l      effective z      eigenvalue [eV]  inner max. [A]     outer max. [A]     outer radius [A]   
    2    1         1.700000        -9.7616           1.230570           1.230570           4.607917
    3    2         6.000000       -54.4224           0.792453           0.792453           3.883070
    2    0         4.900000       -81.6679           0.082559           0.562749           3.078220
 
 
  N                    hydrogenic:
 
  List of hydrogenic basis orbitals: 
    n    l      effective z      eigenvalue [eV]  inner max. [A]     outer max. [A]     outer radius [A]   
    2    1         1.800000       -10.9749           1.177451           1.177451           4.573712
    3    2         6.800000       -69.9026           0.704619           0.704619           3.538137
    3    0         5.800000       -50.8545           0.067388           1.191934           4.250239
 
 
  O                    hydrogenic:
 
  List of hydrogenic basis orbitals: 
    n    l      effective z      eigenvalue [eV]  inner max. [A]     outer max. [A]     outer radius [A]   
    2    1         1.800000       -10.9749           1.164242           1.164242           4.578029
    3    2         7.600000       -87.3180           0.624125           0.624125           3.251020
    3    0         6.400000       -61.9207           0.061167           1.081902           4.001998
 

  Adding cutoff potential to free-atom effective potential.
  Creating atomic-like basis functions for current effective potential.

  Species H                   :

  List of atomic basis orbitals and eigenvalues:
    n    l      energy [Ha]    energy [eV]    outer radius [A]
    1    0        -0.237589        -6.4651       4.527807


  Species C                   :

  List of atomic basis orbitals and eigenvalues:
    n    l      energy [Ha]    energy [eV]    outer radius [A]
    1    0       -10.038835      -273.1706       1.934409
    2    0        -0.502696       -13.6791       4.496620
    2    1        -0.191971        -5.2238       4.551928


  Species N                   :

  List of atomic basis orbitals and eigenvalues:
    n    l      energy [Ha]    energy [eV]    outer radius [A]
    1    0       -14.128000      -384.4424       1.637919
    2    0        -0.681077       -18.5330       4.463241
    2    1        -0.259788        -7.0692       4.518138


  Species O                   :

  List of atomic basis orbitals and eigenvalues:
    n    l      energy [Ha]    energy [eV]    outer radius [A]
    1    0       -18.898188      -514.2459       1.415765
    2    0        -0.878505       -23.9053       4.413171
    2    1        -0.331779        -9.0282       4.522403

  Assembling full basis from fixed parts.
  | Species H :   atomic orbital   1 s accepted.
  | Species H :    hydro orbital   2 s accepted.
  | Species H :    hydro orbital   2 p accepted.
  | Species C :   atomic orbital   1 s accepted.
  | Species C :    hydro orbital   2 s accepted.
  | Species C :   atomic orbital   2 s accepted.
  | Species C :   atomic orbital   2 p accepted.
  | Species C :    hydro orbital   2 p accepted.
  | Species C :    hydro orbital   3 d accepted.
  | Species N :   atomic orbital   1 s accepted.
  | Species N :    hydro orbital   3 s accepted.
  | Species N :   atomic orbital   2 s accepted.
  | Species N :   atomic orbital   2 p accepted.
  | Species N :    hydro orbital   2 p accepted.
  | Species N :    hydro orbital   3 d accepted.
  | Species O :   atomic orbital   1 s accepted.
  | Species O :    hydro orbital   3 s accepted.
  | Species O :   atomic orbital   2 s accepted.
  | Species O :   atomic orbital   2 p accepted.
  | Species O :    hydro orbital   2 p accepted.
  | Species O :    hydro orbital   3 d accepted.
 
  Basis size parameters after reduction:
  | Total number of radial functions:       21
  | Total number of basis functions :      119
 
  Per-task memory consumption for arrays in subroutine allocate_ext:
  |           5.250512MB.
  Testing on-site integration grid accuracy.
  |  Species  Function  <phi|h_atom|phi> (log., in eV)  <phi|h_atom|phi> (rad., in eV)
           1        1                 -6.4663192853                 -6.4651273558
           1        2                 13.7111246313                 13.7170609718
           1        3                 25.2673269279                 25.2674696378
           2        4               -273.1705927641               -273.1705631568
           2        5                -10.7109323383                -10.7107120029
           2        6                 17.4381822266                 17.4352413244
           2        7                 -5.2255326521                 -5.2270484734
           2        8                  8.6835629259                  8.6603288385
           2        9                 27.4952418996                 27.4953360207
           3       10               -384.4424306495               -384.4423701208
           3       11                 12.5842251816                 12.5842222903
           3       12                -15.7264628251                -15.7264433455
           3       13                 -7.0696854293                 -7.0701769954
           3       14                  8.8090390882                  8.7901077751
           3       15                 35.9586762123                 35.9588528632
           4       16               -514.2458688638               -514.2457643834
           4       17                 15.1795651126                 15.1795290741
           4       18                -21.5359799773                -21.5360846186
           4       19                 -9.0283069236                 -9.0284644067
           4       20                  8.3027758564                  8.2834874195
           4       21                 45.8339351984                 45.8338762259

  Preparing densities etc. for the partition functions (integrals / Hartree potential).

  Preparations completed.
  max(cpu_time)          :      0.145 s.
  Wall clock time (cpu1) :      0.146 s.
------------------------------------------------------------

------------------------------------------------------------
          Begin self-consistency loop: Initialization.

          Date     :  20200805, Time     :  182744.127
------------------------------------------------------------

  Initializing index lists of integration centers etc. from given atomic structure:
  | Number of centers in hartree potential         :        13
  | Number of centers in hartree multipole         :        13
  | Number of centers in electron density summation:        13
  | Number of centers in basis integrals           :        13
  | Number of centers in integrals                 :        13
  | Number of centers in hamiltonian               :        13
  Partitioning the integration grid into batches with parallel hashing+maxmin method.
  | Number of batches:      959
  | Maximal batch size:     138
  | Minimal batch size:      66
  | Average batch size:      72.624
  | Standard deviation of batch sizes:      17.165

  Integration load balanced across     1 MPI tasks.
  Work distribution over tasks is as follows:
  Task     0 has      69646 integration points.
  Initializing partition tables, free-atom densities, potentials, etc. across the integration grid (initialize_grid_storage).
  | initialize_grid_storage: Actual outermost partition radius vs. multipole_radius_free
  | (-- VB: in principle, multipole_radius_free should be larger, hence this output)
  | Species        1: Confinement radius =              4.999999999999999 AA, multipole_radius_free =              5.054417573612229 AA.
  | Species        1: outer_partition_radius set to              5.054417573612229 AA .
  | Species        2: Confinement radius =              4.999999999999999 AA, multipole_radius_free =              5.019602836301480 AA.
  | Species        2: outer_partition_radius set to              5.019602836301480 AA .
  | Species        3: Confinement radius =              4.999999999999999 AA, multipole_radius_free =              5.043624274424571 AA.
  | Species        3: outer_partition_radius set to              5.043624274424571 AA .
  | Species        4: Confinement radius =              4.999999999999999 AA, multipole_radius_free =              5.048384829883283 AA.
  | Species        4: outer_partition_radius set to              5.048384829883283 AA .
  | Original list of interatomic distances with          13 x         13 entries is created.
  | Net number of integration points:    69646
  | of which are non-zero points    :    59500
  Renormalizing the initial density to the exact electron count on the 3D integration grid.
  | Initial density: Formal number of electrons (from input files) :      48.0000000000
  | Integrated number of electrons on 3D grid     :      47.9998947202
  | Charge integration error                      :      -0.0001052798
  | Normalization factor for density and gradient :       1.0000021933
  Obtaining max. number of non-zero basis functions in each batch (get_n_compute_maxes).
  | Maximal number of non-zero basis functions:      119 in task     0
  Selecting the method for density update.
  Loop over occupied states selected for charge density update.
  Allocating        0.050 MB for KS_eigenvector
  Integrating Hamiltonian matrix: batch-based integration.
  Time summed over all CPUs for integration: real work        0.490 s, elapsed        0.490 s
  Integrating overlap matrix.
  Time summed over all CPUs for integration: real work        0.209 s, elapsed        0.209 s

  Updating Kohn-Sham eigenvalues and eigenvectors using ELSI and the ELPA eigensolver.
  Overlap matrix is nonsingular
  | Lowest eigenvalue of overlap  :  0.52E-02
  | Highest eigenvalue of overlap :  0.62E+01
  Finished singularity check of overlap matrix
  | Time :     0.002 s
  Finished Cholesky decomposition
  | Time :     0.000 s
  Finished transformation to standard eigenproblem
  | Time :     0.000 s
  Starting LAPACK eigensolver
  Finished solving standard eigenproblem
  | Time :     0.002 s
  Finished back-transformation of eigenvectors
  | Time :     0.000 s

  Obtaining occupation numbers and chemical potential using ELSI.
  | Chemical potential (Fermi level):    -9.36988906eV
  Writing Kohn-Sham eigenvalues.

  State    Occupation    Eigenvalue [Ha]    Eigenvalue [eV]
      1       2.00000         -19.008001         -517.23401
      2       2.00000         -18.977695         -516.40934
      3       2.00000         -14.245794         -387.64777
      4       2.00000         -10.166850         -276.65407
      5       2.00000         -10.141255         -275.95760
      6       2.00000         -10.132060         -275.70738
      7       2.00000          -1.186045          -32.27393
      8       2.00000          -1.094951          -29.79515
      9       2.00000          -0.992134          -26.99733
     10       2.00000          -0.858584          -23.36325
     11       2.00000          -0.760850          -20.70378
     12       2.00000          -0.684602          -18.62897
     13       2.00000          -0.624095          -16.98248
     14       2.00000          -0.601378          -16.36433
     15       2.00000          -0.580995          -15.80967
     16       2.00000          -0.570111          -15.51351
     17       2.00000          -0.550200          -14.97171
     18       2.00000          -0.539021          -14.66751
     19       2.00000          -0.527098          -14.34307
     20       2.00000          -0.493212          -13.42098
     21       2.00000          -0.466211          -12.68625
     22       2.00000          -0.428637          -11.66382
     23       2.00000          -0.400007          -10.88474
     24       2.00000          -0.389852          -10.60842
     25       0.00000          -0.159419           -4.33800
     26       0.00000          -0.059663           -1.62351
     27       0.00000          -0.027022           -0.73530
     28       0.00000          -0.026072           -0.70944
     29       0.00000          -0.002396           -0.06520
     30       0.00000           0.008190            0.22285
     31       0.00000           0.027059            0.73633
     32       0.00000           0.033734            0.91795
     33       0.00000           0.040745            1.10873
     34       0.00000           0.060791            1.65420
     35       0.00000           0.083931            2.28387
     36       0.00000           0.133280            3.62672
     37       0.00000           0.162368            4.41826
     38       0.00000           0.203001            5.52394
     39       0.00000           0.211015            5.74202
     40       0.00000           0.229683            6.25000
     41       0.00000           0.254332            6.92071
     42       0.00000           0.279379            7.60230
     43       0.00000           0.292942            7.97136
     44       0.00000           0.313909            8.54190
     45       0.00000           0.328010            8.92560
     46       0.00000           0.346494            9.42858
     47       0.00000           0.377997           10.28581
     48       0.00000           0.385350           10.48592
     49       0.00000           0.423909           11.53514
     50       0.00000           0.477881           13.00380
     51       0.00000           0.528185           14.37265
     52       0.00000           0.550619           14.98310
     53       0.00000           0.573548           15.60704

  Highest occupied state (VBM) at    -10.60841721 eV
  | Occupation number:      2.00000000

  Lowest unoccupied state (CBM) at    -4.33800282 eV
  | Occupation number:      0.00000000

  Overall HOMO-LUMO gap:      6.27041439 eV.
  Calculating total energy contributions from superposition of free atom densities.

  Total energy components:
  | Sum of eigenvalues            :        -188.83927633 Ha       -5138.57815701 eV
  | XC energy correction          :         -41.78876569 Ha       -1137.13017094 eV
  | XC potential correction       :          53.72010692 Ha        1461.79848486 eV
  | Free-atom electrostatic energy:        -146.85377456 Ha       -3996.09452494 eV
  | Hartree energy correction     :           0.00000000 Ha           0.00000000 eV
  | vdW energy correction         :           0.00000000 Ha           0.00000000 eV
  | Entropy correction            :           0.00000000 Ha           0.00000000 eV
  | ---------------------------
  | Total energy                  :        -323.76170966 Ha       -8810.00436802 eV
  | Total energy, T -> 0          :        -323.76170966 Ha       -8810.00436802 eV  <-- do not rely on this value for anything but (periodic) metals
  | Electronic free energy        :        -323.76170966 Ha       -8810.00436802 eV

  Derived energy quantities:
  | Kinetic energy                :         320.49486895 Ha        8721.10910916 eV
  | Electrostatic energy          :        -602.46781292 Ha      -16393.98330624 eV
  | Energy correction for multipole
  | error in Hartree potential    :           0.00000000 Ha           0.00000000 eV
  | Sum of eigenvalues per atom                           :        -395.27524285 eV
  | Total energy (T->0) per atom                          :        -677.69264369 eV  <-- do not rely on this value for anything but (periodic) metals
  | Electronic free energy per atom                       :        -677.69264369 eV
  Initialize hartree_potential_storage
  Max. number of atoms included in rho_multipole:           13

  End scf initialization - timings             :  max(cpu_time)    wall_clock(cpu1)
  | Time for scf. initialization               :        1.140 s           1.142 s
  | Boundary condition initialization          :        0.000 s           0.000 s
  | Integration                                :        0.699 s           0.699 s
  | Solution of K.-S. eqns.                    :        0.004 s           0.004 s
  | Grid partitioning                          :        0.110 s           0.111 s
  | Preloading free-atom quantities on grid    :        0.002 s           0.002 s
  | Free-atom superposition energy             :        0.084 s           0.085 s
  | Total energy evaluation                    :        0.000 s           0.000 s

  Partial memory accounting:
  | Current value for overall tracked memory usage on task 0  :           0.165 MB
  | Peak value for overall tracked memory usage on task 0     :           0.676 MB after allocating wave
  | Largest tracked array allocation on task 0 so far         :           0.131 MB  when allocating H_times_psi
  Note:  These values currently only include a subset of arrays which are explicitly tracked.
  The "true" memory usage will be greater.
------------------------------------------------------------

------------------------------------------------------------
          Begin self-consistency iteration #    1

  Date     :  20200805, Time     :  182745.269
------------------------------------------------------------
  Evaluating new KS density.
  Integration grid: deviation in total charge (<rho> - N_e) =   3.552714E-14
  Pulay mixing of updated and previous charge densities.

  Evaluating partitioned Hartree potential by multipole expansion.
  | Analytical far-field extrapolation by fixed multipoles:
  | Hartree multipole sum: apparent total charge =  -0.216111E-03
  Summing up the Hartree potential.
  Time summed over all CPUs for potential: real work        0.281 s, elapsed        0.281 s
  | RMS charge density error from multipole expansion :   0.587704E-02

  Integrating Hamiltonian matrix: batch-based integration.
  Time summed over all CPUs for integration: real work        0.491 s, elapsed        0.491 s

  Updating Kohn-Sham eigenvalues and eigenvectors using ELSI and the ELPA eigensolver.
  Finished Cholesky decomposition
  | Time :     0.000 s
  Finished transformation to standard eigenproblem
  | Time :     0.000 s
  Starting LAPACK eigensolver
  Finished solving standard eigenproblem
  | Time :     0.001 s
  Finished back-transformation of eigenvectors
  | Time :     0.000 s

  Obtaining occupation numbers and chemical potential using ELSI.
  | Chemical potential (Fermi level):    -8.22737470eV
  Writing Kohn-Sham eigenvalues.

  State    Occupation    Eigenvalue [Ha]    Eigenvalue [eV]
      1       2.00000         -18.902038         -514.35062
      2       2.00000         -18.840142         -512.66636
      3       2.00000         -14.094104         -383.52009
      4       2.00000         -10.118215         -275.33064
      5       2.00000         -10.062033         -273.80185
      6       2.00000         -10.031357         -272.96711
      7       2.00000          -1.137276          -30.94686
      8       2.00000          -1.033326          -28.11822
      9       2.00000          -0.920835          -25.05720
     10       2.00000          -0.792029          -21.55219
     11       2.00000          -0.709837          -19.31565
     12       2.00000          -0.638951          -17.38674
     13       2.00000          -0.567765          -15.44966
     14       2.00000          -0.540687          -14.71285
     15       2.00000          -0.523704          -14.25070
     16       2.00000          -0.510669          -13.89602
     17       2.00000          -0.491123          -13.36413
     18       2.00000          -0.476029          -12.95341
     19       2.00000          -0.464427          -12.63769
     20       2.00000          -0.436784          -11.88548
     21       2.00000          -0.408678          -11.12069
     22       2.00000          -0.371231          -10.10170
     23       2.00000          -0.329791           -8.97407
     24       2.00000          -0.313629           -8.53429
     25       0.00000          -0.125050           -3.40279
     26       0.00000          -0.034976           -0.95176
     27       0.00000          -0.003921           -0.10669
     28       0.00000           0.016699            0.45441
     29       0.00000           0.028854            0.78515
     30       0.00000           0.045828            1.24704
     31       0.00000           0.062869            1.71075
     32       0.00000           0.071187            1.93708
     33       0.00000           0.082591            2.24742
     34       0.00000           0.102943            2.80121
     35       0.00000           0.125071            3.40337
     36       0.00000           0.160448            4.36601
     37       0.00000           0.188253            5.12262
     38       0.00000           0.232131            6.31661
     39       0.00000           0.240390            6.54134
     40       0.00000           0.267082            7.26767
     41       0.00000           0.289332            7.87312
     42       0.00000           0.312922            8.51505
     43       0.00000           0.329951            8.97843
     44       0.00000           0.354419            9.64422
     45       0.00000           0.366049            9.96071
     46       0.00000           0.380586           10.35628
     47       0.00000           0.421518           11.47010
     48       0.00000           0.424048           11.53894
     49       0.00000           0.456297           12.41646
     50       0.00000           0.515541           14.02858
     51       0.00000           0.566872           15.42538
     52       0.00000           0.581784           15.83115
     53       0.00000           0.612388           16.66393

  Highest occupied state (VBM) at     -8.53429257 eV
  | Occupation number:      2.00000000

  Lowest unoccupied state (CBM) at    -3.40279192 eV
  | Occupation number:      0.00000000

  Overall HOMO-LUMO gap:      5.13150065 eV.

  Total energy components:
  | Sum of eigenvalues            :        -185.42931874 Ha       -5045.78848967 eV
  | XC energy correction          :         -42.11802852 Ha       -1146.08986835 eV
  | XC potential correction       :          54.14835925 Ha        1473.45182346 eV
  | Free-atom electrostatic energy:        -146.85377456 Ha       -3996.09452494 eV
  | Hartree energy correction     :          -3.32613602 Ha         -90.50876620 eV
  | vdW energy correction         :           0.00000000 Ha           0.00000000 eV
  | Entropy correction            :           0.00000000 Ha           0.00000000 eV
  | ---------------------------
  | Total energy                  :        -323.57889859 Ha       -8805.02982569 eV
  | Total energy, T -> 0          :        -323.57889859 Ha       -8805.02982569 eV  <-- do not rely on this value for anything but (periodic) metals
  | Electronic free energy        :        -323.57889859 Ha       -8805.02982569 eV

  Derived energy quantities:
  | Kinetic energy                :         322.29116265 Ha        8769.98874773 eV
  | Electrostatic energy          :        -603.75203272 Ha      -16428.92870508 eV
  | Energy correction for multipole
  | error in Hartree potential    :           0.01202788 Ha           0.32729514 eV
  | Sum of eigenvalues per atom                           :        -388.13757613 eV
  | Total energy (T->0) per atom                          :        -677.30998659 eV  <-- do not rely on this value for anything but (periodic) metals
  | Electronic free energy per atom                       :        -677.30998659 eV

  Self-consistency convergence accuracy:
  | Change of charge density      :  0.5865E+00
  | Change of sum of eigenvalues  :  0.9279E+02 eV
  | Change of total energy        :  0.4975E+01 eV

  End self-consistency iteration #     1       :  max(cpu_time)    wall_clock(cpu1)
  | Time for this iteration                    :        1.180 s           1.181 s
  | Charge density update                      :        0.391 s           0.391 s
  | Density mixing                             :        0.005 s           0.006 s
  | Hartree multipole update                   :        0.009 s           0.008 s
  | Hartree multipole summation                :        0.282 s           0.282 s
  | Integration                                :        0.491 s           0.491 s
  | Solution of K.-S. eqns.                    :        0.002 s           0.002 s
  | Total energy evaluation                    :        0.000 s           0.000 s

  Partial memory accounting:
  | Current value for overall tracked memory usage on task 0  :           0.165 MB
  | Peak value for overall tracked memory usage on task 0     :           0.691 MB after allocating gradient_basis_wave
  | Largest tracked array allocation on task 0 so far         :           0.394 MB  when allocating gradient_basis_wave
  Note:  These values currently only include a subset of arrays which are explicitly tracked.
  The "true" memory usage will be greater.
------------------------------------------------------------

------------------------------------------------------------
          Begin self-consistency iteration #    2

  Date     :  20200805, Time     :  182746.453
------------------------------------------------------------
  Evaluating new KS density.
  Integration grid: deviation in total charge (<rho> - N_e) =  -2.842171E-14
  Pulay mixing of updated and previous charge densities.

  Evaluating partitioned Hartree potential by multipole expansion.
  | Analytical far-field extrapolation by fixed multipoles:
  | Hartree multipole sum: apparent total charge =  -0.357103E-03
  Summing up the Hartree potential.
  Time summed over all CPUs for potential: real work        0.281 s, elapsed        0.281 s
  | RMS charge density error from multipole expansion :   0.140039E-01

  Integrating Hamiltonian matrix: batch-based integration.
  Time summed over all CPUs for integration: real work        0.488 s, elapsed        0.488 s

  Updating Kohn-Sham eigenvalues and eigenvectors using ELSI and the ELPA eigensolver.
  Finished Cholesky decomposition
  | Time :     0.000 s
  Finished transformation to standard eigenproblem
  | Time :     0.000 s
  Starting LAPACK eigensolver
  Finished solving standard eigenproblem
  | Time :     0.002 s
  Finished back-transformation of eigenvectors
  | Time :     0.000 s

  Obtaining occupation numbers and chemical potential using ELSI.
  | Chemical potential (Fermi level):    -2.92907310eV
  Highest occupied state (VBM) at     -6.40727002 eV
  | Occupation number:      2.00000000

  Lowest unoccupied state (CBM) at    -2.21588105 eV
  | Occupation number:      0.00000000

  Overall HOMO-LUMO gap:      4.19138897 eV.

  Checking to see if s.c.f. parameters should be adjusted.

  Total energy components:
  | Sum of eigenvalues            :        -181.83196155 Ha       -4947.89942004 eV
  | XC energy correction          :         -42.48007226 Ha       -1155.94157977 eV
  | XC potential correction       :          54.61770470 Ha        1486.22336302 eV
  | Free-atom electrostatic energy:        -146.85377456 Ha       -3996.09452494 eV
  | Hartree energy correction     :          -6.95174097 Ha        -189.16649661 eV
  | vdW energy correction         :           0.00000000 Ha           0.00000000 eV
  | Entropy correction            :           0.00000000 Ha           0.00000000 eV
  | ---------------------------
  | Total energy                  :        -323.49984465 Ha       -8802.87865834 eV
  | Total energy, T -> 0          :        -323.49984465 Ha       -8802.87865834 eV  <-- do not rely on this value for anything but (periodic) metals
  | Electronic free energy        :        -323.49984465 Ha       -8802.87865834 eV

  Derived energy quantities:
  | Kinetic energy                :         323.61906721 Ha        8806.12286927 eV
  | Electrostatic energy          :        -604.63883959 Ha      -16453.05994784 eV
  | Energy correction for multipole
  | error in Hartree potential    :           0.02663235 Ha           0.72470302 eV
  | Sum of eigenvalues per atom                           :        -380.60764770 eV
  | Total energy (T->0) per atom                          :        -677.14451218 eV  <-- do not rely on this value for anything but (periodic) metals
  | Electronic free energy per atom                       :        -677.14451218 eV

  Self-consistency convergence accuracy:
  | Change of charge density      :  0.3665E+00
  | Change of sum of eigenvalues  :  0.9789E+02 eV
  | Change of total energy        :  0.2151E+01 eV

  End self-consistency iteration #     2       :  max(cpu_time)    wall_clock(cpu1)
  | Time for this iteration                    :        1.170 s           1.171 s
  | Charge density update                      :        0.383 s           0.383 s
  | Density mixing                             :        0.007 s           0.007 s
  | Hartree multipole update                   :        0.009 s           0.009 s
  | Hartree multipole summation                :        0.281 s           0.281 s
  | Integration                                :        0.488 s           0.488 s
  | Solution of K.-S. eqns.                    :        0.002 s           0.002 s
  | Total energy evaluation                    :        0.000 s           0.001 s

  Partial memory accounting:
  | Current value for overall tracked memory usage on task 0  :           0.166 MB
  | Peak value for overall tracked memory usage on task 0     :           0.691 MB after allocating gradient_basis_wave
  | Largest tracked array allocation on task 0 so far         :           0.394 MB  when allocating gradient_basis_wave
  Note:  These values currently only include a subset of arrays which are explicitly tracked.
  The "true" memory usage will be greater.
------------------------------------------------------------

------------------------------------------------------------
          Begin self-consistency iteration #    3

  Date     :  20200805, Time     :  182747.626
------------------------------------------------------------
  Evaluating new KS density.
  Integration grid: deviation in total charge (<rho> - N_e) =   2.131628E-14
  Pulay mixing of updated and previous charge densities.

  Evaluating partitioned Hartree potential by multipole expansion.
  | Analytical far-field extrapolation by fixed multipoles:
  | Hartree multipole sum: apparent total charge =  -0.453022E-03
  Summing up the Hartree potential.
  Time summed over all CPUs for potential: real work        0.281 s, elapsed        0.281 s
  | RMS charge density error from multipole expansion :   0.220776E-01

  Integrating Hamiltonian matrix: batch-based integration.
  Time summed over all CPUs for integration: real work        0.488 s, elapsed        0.488 s

  Updating Kohn-Sham eigenvalues and eigenvectors using ELSI and the ELPA eigensolver.
  Finished Cholesky decomposition
  | Time :     0.000 s
  Finished transformation to standard eigenproblem
  | Time :     0.000 s
  Starting LAPACK eigensolver
  Finished solving standard eigenproblem
  | Time :     0.001 s
  Finished back-transformation of eigenvectors
  | Time :     0.000 s

  Obtaining occupation numbers and chemical potential using ELSI.
  | Chemical potential (Fermi level):    -2.40969145eV
  Highest occupied state (VBM) at     -5.71423727 eV
  | Occupation number:      2.00000000

  Lowest unoccupied state (CBM) at    -1.56510414 eV
  | Occupation number:      0.00000000

  Overall HOMO-LUMO gap:      4.14913313 eV.

  Total energy components:
  | Sum of eigenvalues            :        -180.56015252 Ha       -4913.29173552 eV
  | XC energy correction          :         -42.62881778 Ha       -1159.98915144 eV
  | XC potential correction       :          54.80731897 Ha        1491.38303002 eV
  | Free-atom electrostatic energy:        -146.85377456 Ha       -3996.09452494 eV
  | Hartree energy correction     :          -8.25187696 Ha        -224.54499678 eV
  | vdW energy correction         :           0.00000000 Ha           0.00000000 eV
  | Entropy correction            :           0.00000000 Ha           0.00000000 eV
  | ---------------------------
  | Total energy                  :        -323.48730285 Ha       -8802.53737866 eV
  | Total energy, T -> 0          :        -323.48730285 Ha       -8802.53737866 eV  <-- do not rely on this value for anything but (periodic) metals
  | Electronic free energy        :        -323.48730285 Ha       -8802.53737866 eV

  Derived energy quantities:
  | Kinetic energy                :         323.18398709 Ha        8794.28373687 eV
  | Electrostatic energy          :        -604.04247215 Ha      -16436.83196409 eV
  | Energy correction for multipole
  | error in Hartree potential    :           0.03773772 Ha           1.02689549 eV
  | Sum of eigenvalues per atom                           :        -377.94551812 eV
  | Total energy (T->0) per atom                          :        -677.11825990 eV  <-- do not rely on this value for anything but (periodic) metals
  | Electronic free energy per atom                       :        -677.11825990 eV

  Self-consistency convergence accuracy:
  | Change of charge density      :  0.2040E+00
  | Change of sum of eigenvalues  :  0.3461E+02 eV
  | Change of total energy        :  0.3413E+00 eV

  End self-consistency iteration #     3       :  max(cpu_time)    wall_clock(cpu1)
  | Time for this iteration                    :        1.172 s           1.173 s
  | Charge density update                      :        0.384 s           0.384 s
  | Density mixing                             :        0.008 s           0.008 s
  | Hartree multipole update                   :        0.009 s           0.009 s
  | Hartree multipole summation                :        0.281 s           0.282 s
  | Integration                                :        0.488 s           0.488 s
  | Solution of K.-S. eqns.                    :        0.002 s           0.002 s
  | Total energy evaluation                    :        0.000 s           0.000 s

  Partial memory accounting:
  | Current value for overall tracked memory usage on task 0  :           0.166 MB
  | Peak value for overall tracked memory usage on task 0     :           0.692 MB after allocating gradient_basis_wave
  | Largest tracked array allocation on task 0 so far         :           0.394 MB  when allocating gradient_basis_wave
  Note:  These values currently only include a subset of arrays which are explicitly tracked.
  The "true" memory usage will be greater.
------------------------------------------------------------

------------------------------------------------------------
          Begin self-consistency iteration #    4

  Date     :  20200805, Time     :  182748.802
------------------------------------------------------------
  Evaluating new KS density.
  Integration grid: deviation in total charge (<rho> - N_e) =   2.131628E-14
  Pulay mixing of updated and previous charge densities.

  Evaluating partitioned Hartree potential by multipole expansion.
  | Analytical far-field extrapolation by fixed multipoles:
  | Hartree multipole sum: apparent total charge =  -0.484186E-03
  Summing up the Hartree potential.
  Time summed over all CPUs for potential: real work        0.280 s, elapsed        0.280 s
  | RMS charge density error from multipole expansion :   0.254565E-01

  Integrating Hamiltonian matrix: batch-based integration.
  Time summed over all CPUs for integration: real work        0.487 s, elapsed        0.487 s

  Updating Kohn-Sham eigenvalues and eigenvectors using ELSI and the ELPA eigensolver.
  Finished Cholesky decomposition
  | Time :     0.000 s
  Finished transformation to standard eigenproblem
  | Time :     0.000 s
  Starting LAPACK eigensolver
  Finished solving standard eigenproblem
  | Time :     0.001 s
  Finished back-transformation of eigenvectors
  | Time :     0.000 s

  Obtaining occupation numbers and chemical potential using ELSI.
  | Chemical potential (Fermi level):    -2.31118484eV
  Highest occupied state (VBM) at     -5.56163121 eV
  | Occupation number:      2.00000000

  Lowest unoccupied state (CBM) at    -1.47944188 eV
  | Occupation number:      0.00000000

  Overall HOMO-LUMO gap:      4.08218933 eV.

  Total energy components:
  | Sum of eigenvalues            :        -180.41354426 Ha       -4909.30232174 eV
  | XC energy correction          :         -42.66633173 Ha       -1161.00995791 eV
  | XC potential correction       :          54.85455618 Ha        1492.66841986 eV
  | Free-atom electrostatic energy:        -146.85377456 Ha       -3996.09452494 eV
  | Hartree energy correction     :          -8.40733441 Ha        -228.77520923 eV
  | vdW energy correction         :           0.00000000 Ha           0.00000000 eV
  | Entropy correction            :           0.00000000 Ha           0.00000000 eV
  | ---------------------------
  | Total energy                  :        -323.48642878 Ha       -8802.51359395 eV
  | Total energy, T -> 0          :        -323.48642878 Ha       -8802.51359395 eV  <-- do not rely on this value for anything but (periodic) metals
  | Electronic free energy        :        -323.48642878 Ha       -8802.51359395 eV

  Derived energy quantities:
  | Kinetic energy                :         322.80747118 Ha        8784.03821782 eV
  | Electrostatic energy          :        -603.62756823 Ha      -16425.54185386 eV
  | Energy correction for multipole
  | error in Hartree potential    :           0.04191885 Ha           1.14066997 eV
  | Sum of eigenvalues per atom                           :        -377.63864013 eV
  | Total energy (T->0) per atom                          :        -677.11643030 eV  <-- do not rely on this value for anything but (periodic) metals
  | Electronic free energy per atom                       :        -677.11643030 eV

  Self-consistency convergence accuracy:
  | Change of charge density      :  0.6408E-01
  | Change of sum of eigenvalues  :  0.3989E+01 eV
  | Change of total energy        :  0.2378E-01 eV

  End self-consistency iteration #     4       :  max(cpu_time)    wall_clock(cpu1)
  | Time for this iteration                    :        1.173 s           1.179 s
  | Charge density update                      :        0.384 s           0.391 s
  | Density mixing                             :        0.009 s           0.009 s
  | Hartree multipole update                   :        0.009 s           0.009 s
  | Hartree multipole summation                :        0.281 s           0.281 s
  | Integration                                :        0.487 s           0.487 s
  | Solution of K.-S. eqns.                    :        0.002 s           0.002 s
  | Total energy evaluation                    :        0.000 s           0.000 s

  Partial memory accounting:
  | Current value for overall tracked memory usage on task 0  :           0.166 MB
  | Peak value for overall tracked memory usage on task 0     :           0.692 MB after allocating gradient_basis_wave
  | Largest tracked array allocation on task 0 so far         :           0.394 MB  when allocating gradient_basis_wave
  Note:  These values currently only include a subset of arrays which are explicitly tracked.
  The "true" memory usage will be greater.
------------------------------------------------------------

------------------------------------------------------------
          Begin self-consistency iteration #    5

  Date     :  20200805, Time     :  182749.984
------------------------------------------------------------
  Evaluating new KS density.
  Integration grid: deviation in total charge (<rho> - N_e) =   0.000000E+00
  Pulay mixing of updated and previous charge densities.

  Evaluating partitioned Hartree potential by multipole expansion.
  | Analytical far-field extrapolation by fixed multipoles:
  | Hartree multipole sum: apparent total charge =  -0.477697E-03
  Summing up the Hartree potential.
  Time summed over all CPUs for potential: real work        0.281 s, elapsed        0.281 s
  | RMS charge density error from multipole expansion :   0.252162E-01

  Integrating Hamiltonian matrix: batch-based integration.
  Time summed over all CPUs for integration: real work        0.488 s, elapsed        0.488 s

  Updating Kohn-Sham eigenvalues and eigenvectors using ELSI and the ELPA eigensolver.
  Finished Cholesky decomposition
  | Time :     0.000 s
  Finished transformation to standard eigenproblem
  | Time :     0.000 s
  Starting LAPACK eigensolver
  Finished solving standard eigenproblem
  | Time :     0.002 s
  Finished back-transformation of eigenvectors
  | Time :     0.000 s

  Obtaining occupation numbers and chemical potential using ELSI.
  | Chemical potential (Fermi level):    -2.36453100eV
  Highest occupied state (VBM) at     -5.63851448 eV
  | Occupation number:      2.00000000

  Lowest unoccupied state (CBM) at    -1.56535082 eV
  | Occupation number:      0.00000000

  Overall HOMO-LUMO gap:      4.07316365 eV.

  Total energy components:
  | Sum of eigenvalues            :        -180.61389924 Ha       -4914.75425823 eV
  | XC energy correction          :         -42.64183516 Ha       -1160.34337221 eV
  | XC potential correction       :          54.82278207 Ha        1491.80380234 eV
  | Free-atom electrostatic energy:        -146.85377456 Ha       -3996.09452494 eV
  | Hartree energy correction     :          -8.19941480 Ha        -223.11742885 eV
  | vdW energy correction         :           0.00000000 Ha           0.00000000 eV
  | Entropy correction            :           0.00000000 Ha           0.00000000 eV
  | ---------------------------
  | Total energy                  :        -323.48614169 Ha       -8802.50578188 eV
  | Total energy, T -> 0          :        -323.48614169 Ha       -8802.50578188 eV  <-- do not rely on this value for anything but (periodic) metals
  | Electronic free energy        :        -323.48614169 Ha       -8802.50578188 eV

  Derived energy quantities:
  | Kinetic energy                :         322.69253243 Ha        8780.91057527 eV
  | Electrostatic energy          :        -603.53683896 Ha      -16423.07298495 eV
  | Energy correction for multipole
  | error in Hartree potential    :           0.04129025 Ha           1.12356486 eV
  | Sum of eigenvalues per atom                           :        -378.05801986 eV
  | Total energy (T->0) per atom                          :        -677.11582938 eV  <-- do not rely on this value for anything but (periodic) metals
  | Electronic free energy per atom                       :        -677.11582938 eV

  Self-consistency convergence accuracy:
  | Change of charge density      :  0.2016E-01
  | Change of sum of eigenvalues  : -0.5452E+01 eV
  | Change of total energy        :  0.7812E-02 eV

  End self-consistency iteration #     5       :  max(cpu_time)    wall_clock(cpu1)
  | Time for this iteration                    :        1.175 s           1.175 s
  | Charge density update                      :        0.384 s           0.384 s
  | Density mixing                             :        0.011 s           0.011 s
  | Hartree multipole update                   :        0.009 s           0.009 s
  | Hartree multipole summation                :        0.281 s           0.281 s
  | Integration                                :        0.488 s           0.488 s
  | Solution of K.-S. eqns.                    :        0.002 s           0.002 s
  | Total energy evaluation                    :        0.000 s           0.000 s

  Partial memory accounting:
  | Current value for overall tracked memory usage on task 0  :           0.166 MB
  | Peak value for overall tracked memory usage on task 0     :           0.692 MB after allocating gradient_basis_wave
  | Largest tracked array allocation on task 0 so far         :           0.394 MB  when allocating gradient_basis_wave
  Note:  These values currently only include a subset of arrays which are explicitly tracked.
  The "true" memory usage will be greater.
------------------------------------------------------------

------------------------------------------------------------
          Begin self-consistency iteration #    6

  Date     :  20200805, Time     :  182751.162
------------------------------------------------------------
  Evaluating new KS density.
  Integration grid: deviation in total charge (<rho> - N_e) =  -2.842171E-14
  Pulay mixing of updated and previous charge densities.

  Evaluating partitioned Hartree potential by multipole expansion.
  | Analytical far-field extrapolation by fixed multipoles:
  | Hartree multipole sum: apparent total charge =  -0.481247E-03
  Summing up the Hartree potential.
  Time summed over all CPUs for potential: real work        0.281 s, elapsed        0.281 s
  | RMS charge density error from multipole expansion :   0.256596E-01

  Integrating Hamiltonian matrix: batch-based integration.
  Time summed over all CPUs for integration: real work        0.488 s, elapsed        0.488 s

  Updating Kohn-Sham eigenvalues and eigenvectors using ELSI and the ELPA eigensolver.
  Finished Cholesky decomposition
  | Time :     0.000 s
  Finished transformation to standard eigenproblem
  | Time :     0.000 s
  Starting LAPACK eigensolver
  Finished solving standard eigenproblem
  | Time :     0.001 s
  Finished back-transformation of eigenvectors
  | Time :     0.000 s

  Obtaining occupation numbers and chemical potential using ELSI.
  | Chemical potential (Fermi level):    -2.35316173eV
  Highest occupied state (VBM) at     -5.59946950 eV
  | Occupation number:      2.00000000

  Lowest unoccupied state (CBM) at    -1.57389557 eV
  | Occupation number:      0.00000000

  Overall HOMO-LUMO gap:      4.02557393 eV.

  Total energy components:
  | Sum of eigenvalues            :        -180.60587117 Ha       -4914.53580348 eV
  | XC energy correction          :         -42.64204764 Ha       -1160.34915406 eV
  | XC potential correction       :          54.82303215 Ha        1491.81060735 eV
  | Free-atom electrostatic energy:        -146.85377456 Ha       -3996.09452494 eV
  | Hartree energy correction     :          -8.20744109 Ha        -223.33583522 eV
  | vdW energy correction         :           0.00000000 Ha           0.00000000 eV
  | Entropy correction            :           0.00000000 Ha           0.00000000 eV
  | ---------------------------
  | Total energy                  :        -323.48610231 Ha       -8802.50471035 eV
  | Total energy, T -> 0          :        -323.48610231 Ha       -8802.50471035 eV  <-- do not rely on this value for anything but (periodic) metals
  | Electronic free energy        :        -323.48610231 Ha       -8802.50471035 eV

  Derived energy quantities:
  | Kinetic energy                :         322.61824397 Ha        8778.88908326 eV
  | Electrostatic energy          :        -603.46229864 Ha      -16421.04463955 eV
  | Energy correction for multipole
  | error in Hartree potential    :           0.04170551 Ha           1.13486464 eV
  | Sum of eigenvalues per atom                           :        -378.04121565 eV
  | Total energy (T->0) per atom                          :        -677.11574695 eV  <-- do not rely on this value for anything but (periodic) metals
  | Electronic free energy per atom                       :        -677.11574695 eV

  Self-consistency convergence accuracy:
  | Change of charge density      :  0.1043E-01
  | Change of sum of eigenvalues  :  0.2185E+00 eV
  | Change of total energy        :  0.1072E-02 eV

  End self-consistency iteration #     6       :  max(cpu_time)    wall_clock(cpu1)
  | Time for this iteration                    :        1.176 s           1.177 s
  | Charge density update                      :        0.384 s           0.384 s
  | Density mixing                             :        0.012 s           0.012 s
  | Hartree multipole update                   :        0.009 s           0.009 s
  | Hartree multipole summation                :        0.281 s           0.282 s
  | Integration                                :        0.488 s           0.488 s
  | Solution of K.-S. eqns.                    :        0.002 s           0.002 s
  | Total energy evaluation                    :        0.000 s           0.000 s

  Partial memory accounting:
  | Current value for overall tracked memory usage on task 0  :           0.166 MB
  | Peak value for overall tracked memory usage on task 0     :           0.692 MB after allocating gradient_basis_wave
  | Largest tracked array allocation on task 0 so far         :           0.394 MB  when allocating gradient_basis_wave
  Note:  These values currently only include a subset of arrays which are explicitly tracked.
  The "true" memory usage will be greater.
------------------------------------------------------------

------------------------------------------------------------
          Begin self-consistency iteration #    7

  Date     :  20200805, Time     :  182752.341
------------------------------------------------------------
  Evaluating new KS density.
  Integration grid: deviation in total charge (<rho> - N_e) =   6.394885E-14
  Pulay mixing of updated and previous charge densities.

  Evaluating partitioned Hartree potential by multipole expansion.
  | Analytical far-field extrapolation by fixed multipoles:
  | Hartree multipole sum: apparent total charge =  -0.481912E-03
  Summing up the Hartree potential.
  Time summed over all CPUs for potential: real work        0.280 s, elapsed        0.280 s
  | RMS charge density error from multipole expansion :   0.257788E-01

  Integrating Hamiltonian matrix: batch-based integration.
  Time summed over all CPUs for integration: real work        0.488 s, elapsed        0.488 s

  Updating Kohn-Sham eigenvalues and eigenvectors using ELSI and the ELPA eigensolver.
  Finished Cholesky decomposition
  | Time :     0.000 s
  Finished transformation to standard eigenproblem
  | Time :     0.000 s
  Starting LAPACK eigensolver
  Finished solving standard eigenproblem
  | Time :     0.002 s
  Finished back-transformation of eigenvectors
  | Time :     0.000 s

[...]
  |   Hirshfeld dipole moment :      0.06050345
  |   Hirshfeld second moments:      0.00590020      -0.02767210      -0.01986830
  |                                 -0.02767210      -0.01083824       0.01249161
  |                                 -0.01986830       0.01249161      -0.01470902
  ----------------------------------------------------------------------
  | Atom    12: O
  |   Hirshfeld charge        :     -0.14758774
  |   Free atom volume        :     23.61338643
  |   Hirshfeld volume        :     20.61031143
  |   Hirshfeld dipole vector :      0.02937726       0.00920145       0.01595139
  |   Hirshfeld dipole moment :      0.03467184
  |   Hirshfeld second moments:      0.05535667      -0.02265337      -0.00429977
  |                                 -0.02265337       0.10641847       0.00957817
  |                                 -0.00429977       0.00957817       0.03583196
  ----------------------------------------------------------------------
  | Atom    13: H
  |   Hirshfeld charge        :      0.18782521
  |   Free atom volume        :      9.95071624
  |   Hirshfeld volume        :      6.10069141
  |   Hirshfeld dipole vector :      0.06894178      -0.10657712      -0.00795759
  |   Hirshfeld dipole moment :      0.12718087
  |   Hirshfeld second moments:      0.12038878       0.00105591      -0.00631226
  |                                  0.00105591       0.12819823       0.00283771
  |                                 -0.00631226       0.00283771       0.10085228
  ----------------------------------------------------------------------


  Total energy components:
  | Sum of eigenvalues            :        -180.60504815 Ha       -4914.51340778 eV
  | XC energy correction          :         -42.63879557 Ha       -1160.26066082 eV
  | XC potential correction       :          54.81890549 Ha        1491.69831514 eV
  | Free-atom electrostatic energy:        -146.85377456 Ha       -3996.09452494 eV
  | Hartree energy correction     :          -8.20736610 Ha        -223.33379467 eV
  | vdW energy correction         :          -0.00323819 Ha          -0.08811553 eV
  | Entropy correction            :           0.00000000 Ha           0.00000000 eV
  | ---------------------------
  | Total energy                  :        -323.48931708 Ha       -8802.59218860 eV
  | Total energy, T -> 0          :        -323.48931708 Ha       -8802.59218860 eV  <-- do not rely on this value for anything but (periodic) metals
  | Electronic free energy        :        -323.48931708 Ha       -8802.59218860 eV

  Derived energy quantities:
  | Kinetic energy                :         322.57816080 Ha        8777.79836485 eV
  | Electrostatic energy          :        -603.42544412 Ha      -16420.04177710 eV
  | Energy correction for multipole
  | error in Hartree potential    :           0.04176453 Ha           1.13647075 eV
  | Sum of eigenvalues per atom                           :        -378.03949291 eV
  | Total energy (T->0) per atom                          :        -677.12247605 eV  <-- do not rely on this value for anything but (periodic) metals
  | Electronic free energy per atom                       :        -677.12247605 eV

  atomic forces [eV/Ang]:
  -----------------------
  atom #    1
   Hellmann-Feynman              : -0.253976E+00  0.706288E+00  0.110683E+01
   Ionic forces                  :  0.000000E+00  0.000000E+00  0.000000E+00
   Multipole                     :  0.253547E-02  0.349718E+00 -0.281294E+00
   Pulay + GGA                   : -0.790758E+00 -0.532936E+00 -0.129818E+01
   Van der Waals                 :  0.292359E-02  0.599687E-02 -0.184285E-02
   ----------------------------------------------------------------
   Total forces(   1)            : -0.103928E+01  0.529066E+00 -0.474487E+00
  atom #    2
   Hellmann-Feynman              :  0.340856E+00 -0.503480E-01  0.939158E-01
   Ionic forces                  :  0.000000E+00  0.000000E+00  0.000000E+00
   Multipole                     :  0.172040E+00  0.116545E-01 -0.401412E-01
   Pulay + GGA                   : -0.148214E+00  0.722001E-02 -0.924684E-02
   Van der Waals                 :  0.589055E-02 -0.748578E-02 -0.506955E-02
   ----------------------------------------------------------------
   Total forces(   2)            :  0.370572E+00 -0.389593E-01  0.394582E-01
  atom #    3
   Hellmann-Feynman              :  0.773573E+01 -0.659017E+01 -0.566765E+01
   Ionic forces                  :  0.000000E+00  0.000000E+00  0.000000E+00
   Multipole                     : -0.242025E+00  0.174399E+00 -0.103315E+01
   Pulay + GGA                   : -0.694964E+01  0.581881E+01  0.716994E+01
   Van der Waals                 :  0.344201E-02 -0.896788E-02 -0.610661E-02
   ----------------------------------------------------------------
   Total forces(   3)            :  0.547506E+00 -0.605923E+00  0.463026E+00
  atom #    4
   Hellmann-Feynman              : -0.216290E+00  0.183566E+00 -0.656559E-01
   Ionic forces                  :  0.000000E+00  0.000000E+00  0.000000E+00
   Multipole                     : -0.910701E-01 -0.185042E-01 -0.593127E-01
   Pulay + GGA                   :  0.243596E+00  0.514005E-02 -0.412920E-01
   Van der Waals                 :  0.108234E-03 -0.292501E-02 -0.283397E-02
   ----------------------------------------------------------------
   Total forces(   4)            : -0.636555E-01  0.167277E+00 -0.169095E+00
  atom #    5
   Hellmann-Feynman              : -0.187385E+00  0.205771E+00 -0.101831E-01
   Ionic forces                  :  0.000000E+00  0.000000E+00  0.000000E+00
   Multipole                     : -0.542175E-01  0.530835E-01 -0.685175E-01
   Pulay + GGA                   :  0.706694E-01 -0.228381E+00  0.169802E-01
   Van der Waals                 : -0.293013E-02 -0.563733E-02 -0.576498E-02
   ----------------------------------------------------------------
   Total forces(   5)            : -0.173863E+00  0.248359E-01 -0.674854E-01
  atom #    6
   Hellmann-Feynman              :  0.147675E+00 -0.896471E+00  0.641679E+00
   Ionic forces                  :  0.000000E+00  0.000000E+00  0.000000E+00
   Multipole                     : -0.999326E-01  0.602592E+00  0.217898E+00
   Pulay + GGA                   :  0.189275E+00 -0.110714E+00 -0.470149E+00
   Van der Waals                 : -0.689199E-03  0.108656E-01  0.533925E-02
   ----------------------------------------------------------------
   Total forces(   6)            :  0.236327E+00 -0.393727E+00  0.394768E+00
  atom #    7
   Hellmann-Feynman              : -0.216307E+00 -0.538843E-01 -0.394234E-01
   Ionic forces                  :  0.000000E+00  0.000000E+00  0.000000E+00
   Multipole                     : -0.118348E+00  0.492081E-01  0.289821E-01
   Pulay + GGA                   :  0.111216E+00  0.127728E-02  0.241101E-02
   Van der Waals                 : -0.335741E-02  0.334170E-02  0.743594E-02
   ----------------------------------------------------------------
   Total forces(   7)            : -0.226797E+00 -0.571906E-04 -0.594362E-03
  atom #    8
   Hellmann-Feynman              :  0.863743E-01  0.638695E-01  0.231519E+00
   Ionic forces                  :  0.000000E+00  0.000000E+00  0.000000E+00
   Multipole                     :  0.142296E-01  0.609487E-01  0.121331E+00
   Pulay + GGA                   : -0.456949E-01 -0.393188E-01 -0.104781E+00
   Van der Waals                 : -0.287934E-02  0.114457E-01  0.541887E-03
   ----------------------------------------------------------------
   Total forces(   8)            :  0.520297E-01  0.969452E-01  0.248612E+00
  atom #    9
   Hellmann-Feynman              :  0.125522E+00  0.574050E-01 -0.191395E+00
   Ionic forces                  :  0.000000E+00  0.000000E+00  0.000000E+00
   Multipole                     :  0.184035E-01  0.131880E+00 -0.714849E-02
   Pulay + GGA                   : -0.341749E-01 -0.691914E-01  0.819086E-01
   Van der Waals                 : -0.192673E-02  0.559053E-02  0.747966E-02
   ----------------------------------------------------------------
   Total forces(   9)            :  0.107824E+00  0.125684E+00 -0.109156E+00
  atom #   10
   Hellmann-Feynman              :  0.297126E+01  0.559913E+01  0.137437E+01
   Ionic forces                  :  0.000000E+00  0.000000E+00  0.000000E+00
   Multipole                     : -0.651403E-01 -0.943246E-01  0.310240E+00
   Pulay + GGA                   : -0.188674E+01 -0.276757E+01 -0.218093E+00
   Van der Waals                 :  0.357176E-02 -0.106811E-01 -0.149637E-02
   ----------------------------------------------------------------
   Total forces(  10)            :  0.102294E+01  0.272656E+01  0.146502E+01
  atom #   11
   Hellmann-Feynman              :  0.406947E+01 -0.214793E+01  0.139617E+02
   Ionic forces                  :  0.000000E+00  0.000000E+00  0.000000E+00
   Multipole                     :  0.818423E-01 -0.704099E+00  0.786683E+00
   Pulay + GGA                   : -0.299551E+01  0.339546E+01 -0.136044E+02
   Van der Waals                 : -0.381966E-02 -0.112434E-01  0.206504E-02
   ----------------------------------------------------------------
   Total forces(  11)            :  0.115198E+01  0.532194E+00  0.114611E+01
  atom #   12
   Hellmann-Feynman              : -0.123147E+02  0.126491E+01 -0.108400E+02
   Ionic forces                  :  0.000000E+00  0.000000E+00  0.000000E+00
   Multipole                     : -0.103251E+01 -0.105698E+01 -0.438885E+00
   Pulay + GGA                   :  0.121693E+02 -0.231529E+01  0.830709E+01
   Van der Waals                 :  0.768106E-03  0.630223E-02  0.437947E-02
   ----------------------------------------------------------------
   Total forces(  12)            : -0.117718E+01 -0.210106E+01 -0.296741E+01
  atom #   13
   Hellmann-Feynman              : -0.623030E+00 -0.131640E+01  0.940296E-01
   Ionic forces                  :  0.000000E+00  0.000000E+00  0.000000E+00
   Multipole                     :  0.517602E-01 -0.672138E-01 -0.245678E-01
   Pulay + GGA                   : -0.235458E+00  0.312990E+00 -0.361046E-01
   Van der Waals                 : -0.110178E-02  0.339787E-02 -0.412691E-02
   ----------------------------------------------------------------
   Total forces(  13)            : -0.807829E+00 -0.106722E+01  0.292303E-01

  Timings for VdW correction (Tkatchenko-Scheffler 2009 or later):
  | CPU time:        0.089 s, Wall clock time:        0.090 s.
  Removing unitary transformations (pure translations, rotations) from forces on atoms.
  Atomic forces before filtering:
  | Net force on center of mass :   0.587595E-03 -0.439502E-02 -0.200136E-02 eV/A
  | Net torque on center of mass:  -0.689752E-02  0.193208E-02  0.153368E-02 eV
  Atomic forces after filtering:
  | Net force on center of mass :   0.356812E-15  0.178406E-15  0.133805E-15 eV/A
  | Net torque on center of mass:  -0.153414E-15 -0.590422E-15  0.000000E+00 eV

  Energy and forces in a compact form:
  | Total energy uncorrected      :         -0.880259218860177E+04 eV
  | Total energy corrected        :         -0.880259218860177E+04 eV  <-- do not rely on this value for anything but (periodic) metals
  | Electronic free energy        :         -0.880259218860177E+04 eV
  Total atomic forces (unitary forces cleaned) [eV/Ang]:
  |   1         -0.103930526928841E+01          0.529409788266794E+00         -0.474277577899784E+00
  |   2          0.370542559971170E+00         -0.386537006353986E-01          0.397607570604083E-01
  |   3          0.547596004659883E+00         -0.605341149865948E+00          0.463194902887476E+00
  |   4         -0.635784837806494E-01          0.167896936056947E+00         -0.169077686487271E+00
  |   5         -0.173712481159935E+00          0.254706045940370E-01         -0.671735814999508E-01
  |   6          0.236279334688856E+00         -0.393480941519003E+00          0.395133303956841E+00
  |   7         -0.226845261093352E+00          0.224587700266495E-03         -0.317355174381340E-03
  |   8          0.518943007442239E-01          0.970167593291405E-01          0.249010147179926E+00
  |   9          0.107849667847581E+00          0.125997022529416E+00         -0.108617710182961E+00
  |  10          0.102280692464795E+01          0.272679687782369E+01          0.146499453049258E+01
  |  11          0.115173897819571E+01          0.532245087019349E+00          0.114606082948433E+01
  |  12         -0.117729018295315E+01         -0.210069093204334E+01         -0.296762633458112E+01
  |  13         -0.807976092479881E+00         -0.106689093925594E+01          0.289357747639100E-01

  ------------------------------------ 
  Start decomposition of the XC Energy 
  ------------------------------------ 
  X and C from original XC functional choice 
  Hartree-Fock Energy :          0.000000000 Ha              0.000000000 eV
  X Energy            :        -41.038292200 Ha          -1116.708748285 eV
  C Energy            :         -1.600503368 Ha            -43.551912534 eV
  Total XC Energy     :        -42.638795568 Ha          -1160.260660819 eV
  ------------------------------------ 
  LDA X and C from self-consistent density 
  X Energy LDA        :        -37.257156568 Ha          -1013.818812755 eV
  C Energy LDA        :         -3.138596338 Ha            -85.405551733 eV
  ------------------------------------ 
  End decomposition of the XC Energy 
  ------------------------------------ 

------------------------------------------------------------

------------------------------------------------------------------------------
  Final output of selected total energy values:

  The following output summarizes some interesting total energy values
  at the end of a run (AFTER all relaxation, molecular dynamics, etc.).

  | Total energy of the DFT / Hartree-Fock s.c.f. calculation      :          -8802.592188602 eV
  | Final zero-broadening corrected energy (caution - metals only) :          -8802.592188602 eV
  | For reference only, the value of 1 Hartree used in FHI-aims is :             27.211384500 eV

  Before relying on these values, please be sure to understand exactly which
  total energy value is referred to by a given number. Different objects may
  all carry the same name 'total energy'. Definitions:

  Total energy of the DFT / Hartree-Fock s.c.f. calculation:
  | Note that this energy does not include ANY quantities calculated after the
  | s.c.f. cycle, in particular not ANY RPA, MP2, etc. many-body perturbation terms.

  Final zero-broadening corrected energy:
  | For metallic systems only, a broadening of the occupation numbers at the Fermi
  | level can be extrapolated back to zero broadening by an electron-gas inspired
  | formula. For all systems that are not real metals, this value can be
  | meaningless and should be avoided.

------------------------------------------------------------------------------
  Methods described in the following list of references were used in this FHI-aims run.
  If you publish the results, please make sure to cite these reference if they apply.
  FHI-aims is an academic code, and for our developers (often, Ph.D. students
  and postdocs), scientific credit in the community is essential.
  Thank you for helping us!

  For any use of FHI-aims, please cite:

    Volker Blum, Ralf Gehrke, Felix Hanke, Paula Havu, Ville Havu,
    Xinguo Ren, Karsten Reuter, and Matthias Scheffler
    'Ab initio molecular simulations with numeric atom-centered orbitals'
    Computer Physics Communications 180, 2175-2196 (2009)
    http://dx.doi.org/10.1016/j.cpc.2009.06.022


  The scalable eigensolver library ELPA was used in your run.
  ELPA is essential especially for large systems on hundreds or thousands of CPUs.
  For ELPA, please cite:

    Andreas Marek, Volker Blum, Rainer Johanni, Ville Havu, Bruno Lang,
    Thomas Auckenthaler, Alexander Heinecke, Hans-Joachim Bungartz, and Hermann Lederer,
    'The ELPA Library - Scalable Parallel Eigenvalue Solutions
    for Electronic Structure Theory and Computational Science'
    The Journal of Physics: Condensed Matter 26, 213201 (2014).
    http://dx.doi.org/10.1088/0953-8984/26/21/213201


  The ELSI infrastructure was used in your run to solve the Kohn-Sham electronic structure.
  Please check out http://elsi-interchange.org to learn more.
  If scalability is important for your project, please acknowledge ELSI by citing:

    V. W-z. Yu, F. Corsetti, A. Garcia, W. P. Huhn, M. Jacquelin, W. Jia,
    B. Lange, L. Lin, J. Lu, W. Mi, A. Seifitokaldani, A. Vazquez-Mayagoitia,
    C. Yang, H. Yang, and V. Blum
    'ELSI: A unified software interface for Kohn-Sham electronic structure solvers'
    Computer Physics Communications 222, 267-285 (2018).
    http://dx.doi.org/10.1016/j.cpc.2017.09.007


  For the real-space grid partitioning and parallelization used in this calculation, please cite:

    Ville Havu, Volker Blum, Paula Havu, and Matthias Scheffler,
    'Efficient O(N) integration for all-electron electronic structure calculation'
    'using numerically tabulated basis functions'
    Journal of Computational Physics 228, 8367-8379 (2009).
    http://dx.doi.org/10.1016/j.jcp.2009.08.008

  Of course, there are many other important community references, e.g., those cited in the
  above references. Our list is limited to references that describe implementations in the
  FHI-aims code. The reason is purely practical (length of this list) - please credit others as well.

------------------------------------------------------------
          Leaving FHI-aims.
          Date     :  20200805, Time     :  182806.509

          Computational steps:
          | Number of self-consistency cycles          :           16
          | Number of SCF (re)initializations          :            1

          Detailed time accounting                     :  max(cpu_time)    wall_clock(cpu1)
          | Total time                                 :       22.469 s          22.545 s
          | Preparation time                           :        0.145 s           0.146 s
          | Boundary condition initalization           :        0.000 s           0.000 s
          | Grid partitioning                          :        0.110 s           0.111 s
          | Preloading free-atom quantities on grid    :        0.002 s           0.002 s
          | Free-atom superposition energy             :        0.084 s           0.085 s
          | Total time for integrations                :        8.518 s           8.524 s
          | Total time for solution of K.-S. equations :        0.036 s           0.039 s
          | Total time for density & force components  :        7.084 s           7.096 s
          | Total time for mixing                      :        0.214 s           0.217 s
          | Total time for Hartree multipole update    :        0.141 s           0.140 s
          | Total time for Hartree multipole sum       :        5.737 s           5.740 s
          | Total time for total energy evaluation     :        0.003 s           0.002 s
          | Total time for vdW correction              :        0.089 s           0.090 s

          Partial memory accounting:
          | Residual value for overall tracked memory usage across tasks :           0.000 MB (should be 0.000 MB)
          | Peak values for overall tracked memory usage (after allocating hessian_basis_wave):
          |   Minimum:        1.612 MB (on task 1)
          |   Maximum:        1.612 MB (on task 1)
          |   Average:        1.612 MB
          | Largest tracked array allocation (hessian_basis_wave):
          |   Minimum:        0.788 MB (on task 1)
          |   Maximum:        0.788 MB (on task 1)
          |   Average:        0.788 MB
          Note:  These values currently only include a subset of arrays which are explicitly tracked.
          The "true" memory usage will be greater.

          Have a nice day.
------------------------------------------------------------
