  MPI-parallelism will be employed.
------------------------------------------------------------
          Invoking FHI-aims ...
          Version 171221_1
          Compiled on 2019/09/09 at 14:39:39 on host puhti-login2.bullx.

          When using FHI-aims, please cite the following reference:

          Volker Blum, Ralf Gehrke, Felix Hanke, Paula Havu,
          Ville Havu, Xinguo Ren, Karsten Reuter, and Matthias Scheffler,
          'Ab Initio Molecular Simulations with Numeric Atom-Centered Orbitals',
          Computer Physics Communications 180, 2175-2196 (2009)

          For any questions about FHI-aims, please visit the aimsclub website
          with its forums and wiki. Contributions to both the forums and the
          wiki are warmly encouraged - they are for you, and everyone is welcome there.

------------------------------------------------------------



  Date     :  20200902, Time     :  143417.220
  Time zero on CPU 1             :   0.216180000000000E-01  s.
  Internal wall clock time zero  :           368289257.220  s.

  FHI-aims created a unique identifier for this run for later identification
  aims_uuid : A2C23BAE-F4E8-4DB1-AC2E-DB183717539F

  Using        1 parallel tasks.
  Task        0 on host r18c48.bullx reporting.

  Performing system and environment tests:
  | Environment variable OMP_NUM_THREADS correctly set to 1.
  | Stacksize not measured: no C compiler
  | Checking for scalapack...
  | Testing pdtran()...
  | All pdtran() tests passed.

  Obtaining array dimensions for all initial allocations:
  
  -----------------------------------------------------------------------
  Parsing control.in (first pass over file, find array dimensions only).
  The contents of control.in will be repeated verbatim below
  unless switched off by setting 'verbatim_writeout .false.' .
  in the first line of control.in .
  -----------------------------------------------------------------------
  
  #########################################################################################
  #
  #  Volker Blum, FHI 2009 : Test run input file control.in for simple H2O
  #
  #########################################################################################
  #
  #  Physical model
  #
    xc                 pbe0
    many_body_dispersion
    spin               none
    relativistic       none
    charge             0.
  #
  #  SCF convergence
  #
    occupation_type    gaussian 0.01
    mixer              pulay
      n_max_pulay        10
      charge_mix_param   0.2
    sc_accuracy_rho    1E-5
    sc_accuracy_eev    1E-3
    sc_accuracy_etot   1E-6
    sc_accuracy_forces 1E-4
    sc_iter_limit      100
  #
  #  Relaxation
  #
  #  relax_geometry   bfgs 1.e-3
  #
  ################################################################################
  #
  #  FHI-aims code project
  #  VB, Fritz-Haber Institut, 2009
  #
  #  Suggested "light" defaults for H atom (to be pasted into control.in file)
  #  Be sure to double-check any results obtained with these settings for post-processing,
  #  e.g., with the "tight" defaults and larger basis sets.
  #
  ################################################################################
    species        H
  #     global species definitions
      nucleus             1
      mass                1.00794
  #
      l_hartree           4
  #
      cut_pot             3.5  1.5  1.0
      basis_dep_cutoff    1e-4
  #
      radial_base         24 5.0
      radial_multiplier   1
      angular_grids       specified
        division   0.2421   50
        division   0.3822  110
        division   0.4799  194
        division   0.5341  302
  #      division   0.5626  434
  #      division   0.5922  590
  #      division   0.6542  770
  #      division   0.6868 1202
  #      outer_grid  770
        outer_grid  302
  ################################################################################
  #
  #  Definition of "minimal" basis
  #
  ################################################################################
  #     valence basis states
      valence      1  s   1.
  #     ion occupancy
      ion_occ      1  s   0.5
  ################################################################################
  #
  #  Suggested additional basis functions. For production calculations,
  #  uncomment them one after another (the most important basis functions are
  #  listed first).
  #
  #  Basis constructed for dimers: 0.5 A, 0.7 A, 1.0 A, 1.5 A, 2.5 A
  #
  ################################################################################
  #  "First tier" - improvements: -1014.90 meV to -62.69 meV
       hydro 2 s 2.1
       hydro 2 p 3.5
  #  "Second tier" - improvements: -12.89 meV to -1.83 meV
  #     hydro 1 s 0.85
  #     hydro 2 p 3.7
  #     hydro 2 s 1.2
  #     hydro 3 d 7
  #  "Third tier" - improvements: -0.25 meV to -0.12 meV
  #     hydro 4 f 11.2
  #     hydro 3 p 4.8
  #     hydro 4 d 9
  #     hydro 3 s 3.2
  ################################################################################
  #
  #  FHI-aims code project
  #  VB, Fritz-Haber Institut, 2009
  #
  #  Suggested "light" defaults for C atom (to be pasted into control.in file)
  #  Be sure to double-check any results obtained with these settings for post-processing,
  #  e.g., with the "tight" defaults and larger basis sets.
  #
  ################################################################################
    species        C
  #     global species definitions
      nucleus             6
      mass                12.0107
  #
      l_hartree           4
  #
      cut_pot             3.5  1.5  1.0
      basis_dep_cutoff    1e-4
  #
      radial_base         34 5.0
      radial_multiplier   1
      angular_grids specified
        division   0.3326   50
        division   0.5710  110
        division   0.7727  194
        division   0.8772  302
  #      division   0.9334  434
  #      division   0.9625  590
  #      division   0.9924  770
  #      division   1.0230  974
  #      division   1.4589 1202
  #     outer_grid  974
       outer_grid 302
  ################################################################################
  #
  #  Definition of "minimal" basis
  #
  ################################################################################
  #     valence basis states
      valence      2  s   2.
      valence      2  p   2.
  #     ion occupancy
      ion_occ      2  s   1.
      ion_occ      2  p   1.
  ################################################################################
  #
  #  Suggested additional basis functions. For production calculations,
  #  uncomment them one after another (the most important basis functions are
  #  listed first).
  #
  #  Constructed for dimers: 1.0 A, 1.25 A, 1.5 A, 2.0 A, 3.0 A
  #
  ################################################################################
  #  "First tier" - improvements: -1214.57 meV to -155.61 meV
       hydro 2 p 1.7
       hydro 3 d 6
       hydro 2 s 4.9
  #  "Second tier" - improvements: -67.75 meV to -5.23 meV
  #     hydro 4 f 9.8
  #     hydro 3 p 5.2
  #     hydro 3 s 4.3
  #     hydro 5 g 14.4
  #     hydro 3 d 6.2
  #  "Third tier" - improvements: -2.43 meV to -0.60 meV
  #     hydro 2 p 5.6
  #     hydro 2 s 1.4
  #     hydro 3 d 4.9
  #     hydro 4 f 11.2
  #  "Fourth tier" - improvements: -0.39 meV to -0.18 meV
  #     hydro 2 p 2.1
  #     hydro 5 g 16.4
  #     hydro 4 d 13.2
  #     hydro 3 s 13.6
  #     hydro 4 f 17.6
  #  Further basis functions - improvements: -0.08 meV and below
  #     hydro 3 s 2
  #     hydro 3 p 6
  #     hydro 4 d 20
  ################################################################################
  #
  #  FHI-aims code project
  #  VB, Fritz-Haber Institut, 2009
  #
  #  Suggested "light" defaults for N atom (to be pasted into control.in file)
  #  Be sure to double-check any results obtained with these settings for post-processing,
  #  e.g., with the "tight" defaults and larger basis sets.
  #
  ################################################################################
    species        N
  #     global species definitions
      nucleus             7
      mass                14.0067
  #
      l_hartree           4
  #
      cut_pot             3.5  1.5  1.0
      basis_dep_cutoff    1e-4
  #
      radial_base         35 5.0
      radial_multiplier   1
      angular_grids       specified
        division   0.2599   50
        division   0.4601  110
        division   0.5885  194
        division   0.6503  302
  #      division   0.6939  434
  #      division   0.7396  590
  #      division   0.7632  770
  #      division   0.8122  974
  #      division   1.1604 1202
  #      outer_grid  974
        outer_grid  302
  ################################################################################
  #
  #  Definition of "minimal" basis
  #
  ################################################################################
  #     valence basis states
      valence      2  s   2.
      valence      2  p   3.
  #     ion occupancy
      ion_occ      2  s   1.
      ion_occ      2  p   2.
  ################################################################################
  #
  #  Suggested additional basis functions. For production calculations,
  #  uncomment them one after another (the most important basis functions are
  #  listed first).
  #
  #  Constructed for dimers: 1.0 A, 1.1 A, 1.5 A, 2.0 A, 3.0 A
  #
  ################################################################################
  #  "First tier" - improvements: -1193.42 meV to -220.60 meV
       hydro 2 p 1.8
       hydro 3 d 6.8
       hydro 3 s 5.8
  #  "Second tier" - improvements: -80.21 meV to -6.86 meV
  #     hydro 4 f 10.8
  #     hydro 3 p 5.8
  #     hydro 1 s 0.8
  #     hydro 5 g 16
  #     hydro 3 d 4.9
  #  "Third tier" - improvements: -4.29 meV to -0.53 meV
  #     hydro 3 s 16
  #     ionic 2 p auto
  #     hydro 3 d 6.6
  #     hydro 4 f 11.6
  #  "Fourth tier" - improvements: -0.75 meV to -0.25 meV
  #     hydro 2 p 4.5
  #     hydro 2 s 2.4
  #     hydro 5 g 14.4
  #     hydro 4 d 14.4
  #     hydro 4 f 16.8
  # Further basis functions - -0.21 meV and below
  #     hydro 3 p 14.8
  #     hydro 3 s 4.4
  #     hydro 3 d 19.6
  #     hydro 5 g 12.8
  ################################################################################
  #
  #  FHI-aims code project
  #  VB, Fritz-Haber Institut, 2009
  #
  #  Suggested "light" defaults for O atom (to be pasted into control.in file)
  #  Be sure to double-check any results obtained with these settings for post-processing,
  #  e.g., with the "tight" defaults and larger basis sets.
  #
  ################################################################################
    species        O
  #     global species definitions
      nucleus             8
      mass                15.9994
  #
      l_hartree           4
  #
      cut_pot             3.5  1.5  1.0
      basis_dep_cutoff    1e-4
  #
      radial_base         36 5.0
      radial_multiplier   1
       angular_grids specified
        division   0.2659   50
        division   0.4451  110
        division   0.6052  194
        division   0.7543  302
  #      division   0.8014  434
  #      division   0.8507  590
  #      division   0.8762  770
  #      division   0.9023  974
  #      division   1.2339 1202
  #      outer_grid 974
        outer_grid 302
  ################################################################################
  #
  #  Definition of "minimal" basis
  #
  ################################################################################
  #     valence basis states
      valence      2  s   2.
      valence      2  p   4.
  #     ion occupancy
      ion_occ      2  s   1.
      ion_occ      2  p   3.
  ################################################################################
  #
  #  Suggested additional basis functions. For production calculations,
  #  uncomment them one after another (the most important basis functions are
  #  listed first).
  #
  #  Constructed for dimers: 1.0 A, 1.208 A, 1.5 A, 2.0 A, 3.0 A
  #
  ################################################################################
  #  "First tier" - improvements: -699.05 meV to -159.38 meV
       hydro 2 p 1.8
       hydro 3 d 7.6
       hydro 3 s 6.4
  #  "Second tier" - improvements: -49.91 meV to -5.39 meV
  #     hydro 4 f 11.6
  #     hydro 3 p 6.2
  #     hydro 3 d 5.6
  #     hydro 5 g 17.6
  #     hydro 1 s 0.75
  #  "Third tier" - improvements: -2.83 meV to -0.50 meV
  #     ionic 2 p auto
  #     hydro 4 f 10.8
  #     hydro 4 d 4.7
  #     hydro 2 s 6.8
  #  "Fourth tier" - improvements: -0.40 meV to -0.12 meV
  #     hydro 3 p 5
  #     hydro 3 s 3.3
  #     hydro 5 g 15.6
  #     hydro 4 f 17.6
  #     hydro 4 d 14
  # Further basis functions - -0.08 meV and below
  #     hydro 3 s 2.1
  #     hydro 4 d 11.6
  #     hydro 3 p 16
  #     hydro 2 s 17.2
  
  -----------------------------------------------------------------------
  Completed first pass over input file control.in .
  -----------------------------------------------------------------------
  
  
  -----------------------------------------------------------------------
  Parsing geometry.in (first pass over file, find array dimensions only).
  The contents of geometry.in will be repeated verbatim below
  unless switched off by setting 'verbatim_writeout .false.' .
  in the first line of geometry.in .
  -----------------------------------------------------------------------
  
  atom  0.00000 0.00000 0.00000 C
  atom  1.09300 0.00000 0.00000 H
  atom  -0.47961 0.00000 -1.41207 N
  atom  0.32744 -0.08164 -2.03162 H
  atom  -1.10624 -0.79116 -1.54444 H
  atom  -0.49584 1.26211 0.72868 C
  atom  0.27163 1.63477 1.41108 H
  atom  -0.73207 2.04973 0.00937 H
  atom  -1.39558 1.03980 1.30713 H
  atom  -0.39425 -1.28861 0.74398 C
  atom  -0.72701 -2.32907 0.22825 O
  atom  -0.35866 -1.22839 2.03699 O
  atom  -0.05076 -2.13354 2.21272 H
  
  -----------------------------------------------------------------------
  Completed first pass over input file geometry.in .
  -----------------------------------------------------------------------
  

  Basic array size parameters:
  | Number of species                 :        4
  | Number of atoms                   :       13
  | Max. basis fn. angular momentum   :        2
  | Max. atomic/ionic basis occupied n:        2
  | Max. number of basis fn. types    :        2
  | Max. radial fns per species/type  :        3
  | Max. logarithmic grid size        :     1301
  | Max. radial integration grid size :       36
  | Max. angular integration grid size:      302
  | Max. angular grid division number :        8
  | Radial grid for Hartree potential :     1301
  | Number of spin channels           :        1

------------------------------------------------------------
          Reading file control.in.
------------------------------------------------------------
  XC: Using hybrid-PBE0 functionals.
  Using the default MBD implementation with analytical forces
  Spin treatment: No spin polarisation.
  Non-relativistic treatment of kinetic energy.
  Charge =   0.000000E+00: Neutral system requested explicitly.
  Occupation type: Gaussian broadening, width =   0.100000E-01 eV.
  Using pulay charge density mixing.
  Pulay mixing - number of memorized iterations:   10
  Charge density mixing - mixing parameter:     0.2000
  Convergence accuracy of self-consistent charge density:  0.1000E-04
  Convergence accuracy of sum of eigenvalues:  0.1000E-02
  Convergence accuracy of total energy:  0.1000E-05
  Convergence accuracy of forces:  0.1000E-03
  Maximum number of s.-c. iterations  :   100
 
  Reading configuration options for species H                   .
  | Found nuclear charge :   1.0000
  | Found atomic mass :    1.00794000000000      amu
  | Found l_max for Hartree potential  :   4
  | Found cutoff potl. onset [A], width [A], scale factor :    3.50000    1.50000    1.00000
  | Threshold for basis-dependent cutoff potential is   0.100000E-03
  | Found data for basic radial integration grid :    24 points, outermost radius =    5.000 A
  | Found multiplier for basic radial grid :   1
  | Found angular grid specification: user-specified.
  | Specified grid contains     5 separate shells.
  | Check grid settings after all constraints further below.
  | Found free-atom valence shell :  1 s   1.000
  | No ionic wave fns used. Skipping ion_occ.
  | Found hydrogenic basis function :  2 s   2.100
  | Found hydrogenic basis function :  2 p   3.500
  Species H                   : Missing cutoff potential type.
  Defaulting to exp(1/x)/(1-x)^2 type cutoff potential.
  Species H : No 'logarithmic' tag. Using default grid for free atom:
  | Default logarithmic grid data [bohr] : 0.1000E-03 0.1000E+03 0.1012E+01
  Species H : On-site basis accuracy parameter (for Gram-Schmidt orthonormalisation) not specified.
  Using default value basis_acc =  0.1000000E-03.
  Species H                   : Using default innermost maximum threshold i_radial=  2 for radial functions.
  Species H                   : Default cutoff onset for free atom density etc. : 0.35000000E+01 AA.
  Species H                   : Basic radial grid will be enhanced according to radial_multiplier =   1, to contain    24 grid points.
 
  Reading configuration options for species C                   .
  | Found nuclear charge :   6.0000
  | Found atomic mass :    12.0107000000000      amu
  | Found l_max for Hartree potential  :   4
  | Found cutoff potl. onset [A], width [A], scale factor :    3.50000    1.50000    1.00000
  | Threshold for basis-dependent cutoff potential is   0.100000E-03
  | Found data for basic radial integration grid :    34 points, outermost radius =    5.000 A
  | Found multiplier for basic radial grid :   1
  | Found angular grid specification: user-specified.
  | Specified grid contains     5 separate shells.
  | Check grid settings after all constraints further below.
  | Found free-atom valence shell :  2 s   2.000
  | Found free-atom valence shell :  2 p   2.000
  | No ionic wave fns used. Skipping ion_occ.
  | No ionic wave fns used. Skipping ion_occ.
  | Found hydrogenic basis function :  2 p   1.700
  | Found hydrogenic basis function :  3 d   6.000
  | Found hydrogenic basis function :  2 s   4.900
  Species C                   : Missing cutoff potential type.
  Defaulting to exp(1/x)/(1-x)^2 type cutoff potential.
  Species C : No 'logarithmic' tag. Using default grid for free atom:
  | Default logarithmic grid data [bohr] : 0.1000E-03 0.1000E+03 0.1012E+01
  Species C : On-site basis accuracy parameter (for Gram-Schmidt orthonormalisation) not specified.
  Using default value basis_acc =  0.1000000E-03.
  Species C                   : Using default innermost maximum threshold i_radial=  2 for radial functions.
  Species C                   : Default cutoff onset for free atom density etc. : 0.35000000E+01 AA.
  Species C                   : Basic radial grid will be enhanced according to radial_multiplier =   1, to contain    34 grid points.
 
  Reading configuration options for species N                   .
  | Found nuclear charge :   7.0000
  | Found atomic mass :    14.0067000000000      amu
  | Found l_max for Hartree potential  :   4
  | Found cutoff potl. onset [A], width [A], scale factor :    3.50000    1.50000    1.00000
  | Threshold for basis-dependent cutoff potential is   0.100000E-03
  | Found data for basic radial integration grid :    35 points, outermost radius =    5.000 A
  | Found multiplier for basic radial grid :   1
  | Found angular grid specification: user-specified.
  | Specified grid contains     5 separate shells.
  | Check grid settings after all constraints further below.
  | Found free-atom valence shell :  2 s   2.000
  | Found free-atom valence shell :  2 p   3.000
  | No ionic wave fns used. Skipping ion_occ.
  | No ionic wave fns used. Skipping ion_occ.
  | Found hydrogenic basis function :  2 p   1.800
  | Found hydrogenic basis function :  3 d   6.800
  | Found hydrogenic basis function :  3 s   5.800
  Species N                   : Missing cutoff potential type.
  Defaulting to exp(1/x)/(1-x)^2 type cutoff potential.
  Species N : No 'logarithmic' tag. Using default grid for free atom:
  | Default logarithmic grid data [bohr] : 0.1000E-03 0.1000E+03 0.1012E+01
  Species N : On-site basis accuracy parameter (for Gram-Schmidt orthonormalisation) not specified.
  Using default value basis_acc =  0.1000000E-03.
  Species N                   : Using default innermost maximum threshold i_radial=  2 for radial functions.
  Species N                   : Default cutoff onset for free atom density etc. : 0.35000000E+01 AA.
  Species N                   : Basic radial grid will be enhanced according to radial_multiplier =   1, to contain    35 grid points.
 
  Reading configuration options for species O                   .
  | Found nuclear charge :   8.0000
  | Found atomic mass :    15.9994000000000      amu
  | Found l_max for Hartree potential  :   4
  | Found cutoff potl. onset [A], width [A], scale factor :    3.50000    1.50000    1.00000
  | Threshold for basis-dependent cutoff potential is   0.100000E-03
  | Found data for basic radial integration grid :    36 points, outermost radius =    5.000 A
  | Found multiplier for basic radial grid :   1
  | Found angular grid specification: user-specified.
  | Specified grid contains     5 separate shells.
  | Check grid settings after all constraints further below.
  | Found free-atom valence shell :  2 s   2.000
  | Found free-atom valence shell :  2 p   4.000
  | No ionic wave fns used. Skipping ion_occ.
  | No ionic wave fns used. Skipping ion_occ.
  | Found hydrogenic basis function :  2 p   1.800
  | Found hydrogenic basis function :  3 d   7.600
  | Found hydrogenic basis function :  3 s   6.400
  Species O                   : Missing cutoff potential type.
  Defaulting to exp(1/x)/(1-x)^2 type cutoff potential.
  Species O : No 'logarithmic' tag. Using default grid for free atom:
  | Default logarithmic grid data [bohr] : 0.1000E-03 0.1000E+03 0.1012E+01
  Species O : On-site basis accuracy parameter (for Gram-Schmidt orthonormalisation) not specified.
  Using default value basis_acc =  0.1000000E-03.
  Species O                   : Using default innermost maximum threshold i_radial=  2 for radial functions.
  Species O                   : Default cutoff onset for free atom density etc. : 0.35000000E+01 AA.
  Species O                   : Basic radial grid will be enhanced according to radial_multiplier =   1, to contain    36 grid points.
 
  Finished reading input file 'control.in'. Consistency checks are next.
 
  MPI_IN_PLACE appears to work with this MPI implementation.
  | Keeping use_mpi_in_place .true. (see manual).
  Explicit treatment of the Coulomb operator is needed, but the RI method is not specified.
  Coulomb operator: Defaulting to 'LVL fast' resolution of identity - RI_type = LVL_fast 
  Species H: Using default value for prodbas_acc =   1.000000E-04.
  Species H: Using default value max_l_prodbas =    20.
  Explicit treatment of the Coulomb operator is needed, but the RI method is not specified.
  Coulomb operator: Defaulting to 'LVL fast' resolution of identity - RI_type = LVL_fast 
  Species C: Using default value for prodbas_acc =   1.000000E-04.
  Species C: Using default value max_l_prodbas =    20.
  Explicit treatment of the Coulomb operator is needed, but the RI method is not specified.
  Coulomb operator: Defaulting to 'LVL fast' resolution of identity - RI_type = LVL_fast 
  Species N: Using default value for prodbas_acc =   1.000000E-04.
  Species N: Using default value max_l_prodbas =    20.
  Explicit treatment of the Coulomb operator is needed, but the RI method is not specified.
  Coulomb operator: Defaulting to 'LVL fast' resolution of identity - RI_type = LVL_fast 
  Species O: Using default value for prodbas_acc =   1.000000E-04.
  Species O: Using default value max_l_prodbas =    20.
  Target number of points in a grid batch is not set. Defaulting to  100
  Method for grid partitioning is not set. Defaulting to parallel hash+maxmin partitioning.
  Batch size limit is not set. Defaulting to    200
  By default, will store active basis functions for each batch.
  If in need of memory, prune_basis_once .false. can be used to disable this option.
  communication_type for Hartree potential was not specified.
  Defaulting to calc_hartree .
  Pulay mixer: Number of initial linear mixing iterations not set.
  Defaulting to    0 iterations.
  Work space size for distributed Hartree potential not set.
  Defaulting to   0.200000E+03 MB.
  Algorithm-dependent basis array size parameters:
  | n_max_pulay                         :       10
  Presetting      1001 iterations before the initial mixing cycle
  is restarted anyway using the sc_init_iter criterion / keyword.
  Presetting a factor      1.000 between actual scf density residual
  and density convergence criterion sc_accuracy_rho below which sc_init_iter
  takes no effect.
  Geometry relaxation not requested: no relaxation will be performed.
  Handling of forces: Unphysical translation and rotation will be removed from forces.
  No accuracy limit for integral partition fn. given. Defaulting to  0.1000E-14.
  No threshold value for u(r) in integrations given. Defaulting to  0.1000E-05.
  No accuracy for occupation numbers given. Defaulting to  0.1000E-12.
  No threshold value for occupation numbers given. Defaulting to  0.0000E+00.
  No accuracy for fermi level given. Defaulting to  0.1000E-19.
  Maximum # of iterations to find E_F not set. Defaulting to  200.
  Preferred method for the eigenvalue solver ('KS_method') not specified in 'control.in'.
  Defaulting to serial version, 'lapack_fast'.
  Will not use alltoall communication since running on < 1024 CPUs.
  Threshold for basis singularities not set.
  Default threshold for basis singularities:  0.1000E-04
  partition_type (choice of integration weights) for integrals was not specified.
  | Using a version of the partition function of Stratmann and coworkers ('stratmann_smoother').
  | At each grid point, the set of atoms used to build the partition table is smoothly restricted to
  | only those atoms whose free-atom density would be non-zero at that grid point.
  Partitioning for Hartree potential was not defined. Using partition_type for integrals.
  | Adjusted default value of keyword multip_moments_threshold to:       0.10000000E-11
  | This value may affect high angular momentum components of the Hartree potential in periodic systems.
  Threshold for auxiliary basis singularities not set.
  Default threshold for auxiliary basis singularities:  0.1000E-04
  No q(lm)/r^(l+1) cutoff set for long-range Hartree potential.
  | Using default value of  0.100000E-09 .
  | Verify using the multipole_threshold keyword.
  Defaulting to new monopole extrapolation.
  Density update method: automatic selection selected.
  Coulomb operator: Defaulting to screening threshold for four-center integrals:   0.100000E-06
  Coulomb operator: Defaulting to screening threshold for Coulomb matrix:   0.100000E-09
  Coulomb operator: Defaulting to 'LVL_fast' resolution of identity - RI_type = LVL_fast 
  No other resolution of identity version is supported for periodic boundary conditions at present.
  Coulomb operator: Defaulting to logarithmic spherical Bessel transform integrals (use_logsbt .true.).
  LVL not implemented with density matrix yet
  -> switching to transformed overlap
  LVL probably works better with logsbt
  Default to 1D ("use_logsbt") integrations for auxiliary 2-center integrals.
  Default onset of logarithmic r-grid for SBT is-38.000000000000
  Default onset of logarithmic k-grid for SBT is-25.000000000000
  Default range of logarithmic r- and k-grid for SBT is 45.000000000000
  Default number of logarithmic r- and k-grid for SBT is  4096
------------------------------------------------------------


------------------------------------------------------------
          Reading geometry description geometry.in.
------------------------------------------------------------
  Input structure read successfully.
  The structure contains       13 atoms,  and a total of         48.000 electrons.

  Input geometry:
  | No unit cell requested.
  | Atomic structure:
  |       Atom                x [A]            y [A]            z [A]
  |    1: Species C             0.00000000        0.00000000        0.00000000
  |    2: Species H             1.09300000        0.00000000        0.00000000
  |    3: Species N            -0.47961000        0.00000000       -1.41207000
  |    4: Species H             0.32744000       -0.08164000       -2.03162000
  |    5: Species H            -1.10624000       -0.79116000       -1.54444000
  |    6: Species C            -0.49584000        1.26211000        0.72868000
  |    7: Species H             0.27163000        1.63477000        1.41108000
  |    8: Species H            -0.73207000        2.04973000        0.00937000
  |    9: Species H            -1.39558000        1.03980000        1.30713000
  |   10: Species C            -0.39425000       -1.28861000        0.74398000
  |   11: Species O            -0.72701000       -2.32907000        0.22825000
  |   12: Species O            -0.35866000       -1.22839000        2.03699000
  |   13: Species H            -0.05076000       -2.13354000        2.21272000
  |

  | The smallest distance between any two atoms is         0.97210080 AA.
  |
  | The first atom of this pair is atom number                     12 .
  | The second atom of this pair is atom number                    13 .

  Number of empty states per atom not set in control.in - providing a guess from actual geometry.
  | Total number of empty states used during s.c.f. cycle:       29
  If you use a very high smearing, use empty_states (per atom!) in control.in to increase this value.

  Structure-dependent array size parameters: 
  | Maximum number of distinct radial functions  :       21
  | Maximum number of basis functions            :      119
  | Number of Kohn-Sham states (occupied + empty):       53
------------------------------------------------------------
  Setting Coulomb cut-width to  1.091868692359 * rcut.
  Setting Coulomb cutting radius rcut to  8.000000000000 A.

------------------------------------------------------------
          Preparing all fixed parts of the calculation.
------------------------------------------------------------
  Determining machine precision:
    2.225073858507201E-308
  Setting up grids for atomic and cluster calculations.

  Creating wave function, potential, and density for free atoms.

  Species: H

  List of occupied orbitals and eigenvalues:
    n    l              occ      energy [Ha]    energy [eV]
    1    0           1.0000        -0.237589        -6.4651


  Species: C

  List of occupied orbitals and eigenvalues:
    n    l              occ      energy [Ha]    energy [eV]
    1    0           2.0000       -10.038835      -273.1706
    2    0           2.0000        -0.502696       -13.6791
    2    1           2.0000        -0.191971        -5.2238


  Species: N

  List of occupied orbitals and eigenvalues:
    n    l              occ      energy [Ha]    energy [eV]
    1    0           2.0000       -14.128000      -384.4424
    2    0           2.0000        -0.681077       -18.5330
    2    1           3.0000        -0.259788        -7.0692


  Species: O

  List of occupied orbitals and eigenvalues:
    n    l              occ      energy [Ha]    energy [eV]
    1    0           2.0000       -18.898188      -514.2459
    2    0           2.0000        -0.878505       -23.9053
    2    1           4.0000        -0.331779        -9.0282

  Creating fixed part of basis set: Ionic, confined, hydrogenic.
 
  H                    hydrogenic:
 
  List of hydrogenic basis orbitals: 
    n    l      effective z      eigenvalue [eV]  inner max. [A]     outer max. [A]     outer radius [A]   
    2    0         2.100000       -14.9728           0.193243           1.317208           4.583499
    2    1         3.500000       -41.6669           0.602369           0.602369           3.723403
 
 
  C                    hydrogenic:
 
  List of hydrogenic basis orbitals: 
    n    l      effective z      eigenvalue [eV]  inner max. [A]     outer max. [A]     outer radius [A]   
    2    1         1.700000        -9.7616           1.230570           1.230570           4.607917
    3    2         6.000000       -54.4224           0.792453           0.792453           3.883070
    2    0         4.900000       -81.6679           0.082559           0.562749           3.078220
 
 
  N                    hydrogenic:
 
  List of hydrogenic basis orbitals: 
    n    l      effective z      eigenvalue [eV]  inner max. [A]     outer max. [A]     outer radius [A]   
    2    1         1.800000       -10.9749           1.177451           1.177451           4.573712
    3    2         6.800000       -69.9026           0.704619           0.704619           3.538137
    3    0         5.800000       -50.8545           0.067388           1.191934           4.250239
 
 
  O                    hydrogenic:
 
  List of hydrogenic basis orbitals: 
    n    l      effective z      eigenvalue [eV]  inner max. [A]     outer max. [A]     outer radius [A]   
    2    1         1.800000       -10.9749           1.164242           1.164242           4.578029
    3    2         7.600000       -87.3180           0.624125           0.624125           3.251020
    3    0         6.400000       -61.9207           0.061167           1.081902           4.001998
 

  Adding cutoff potential to free-atom effective potential.
  Creating atomic-like basis functions for current effective potential.

  Species H                   :

  List of atomic basis orbitals and eigenvalues:
    n    l      energy [Ha]    energy [eV]    outer radius [A]
    1    0        -0.237589        -6.4651       4.527807


  Species C                   :

  List of atomic basis orbitals and eigenvalues:
    n    l      energy [Ha]    energy [eV]    outer radius [A]
    1    0       -10.038835      -273.1706       1.934409
    2    0        -0.502696       -13.6791       4.496620
    2    1        -0.191971        -5.2238       4.551928


  Species N                   :

  List of atomic basis orbitals and eigenvalues:
    n    l      energy [Ha]    energy [eV]    outer radius [A]
    1    0       -14.128000      -384.4424       1.637919
    2    0        -0.681077       -18.5330       4.463241
    2    1        -0.259788        -7.0692       4.518138


  Species O                   :

  List of atomic basis orbitals and eigenvalues:
    n    l      energy [Ha]    energy [eV]    outer radius [A]
    1    0       -18.898188      -514.2459       1.415765
    2    0        -0.878505       -23.9053       4.413171
    2    1        -0.331779        -9.0282       4.522403

  Assembling full basis from fixed parts.
  | Species H :   atomic orbital   1 s accepted.
  | Species H :    hydro orbital   2 s accepted.
  | Species H :    hydro orbital   2 p accepted.
  | Species C :   atomic orbital   1 s accepted.
  | Species C :    hydro orbital   2 s accepted.
  | Species C :   atomic orbital   2 s accepted.
  | Species C :   atomic orbital   2 p accepted.
  | Species C :    hydro orbital   2 p accepted.
  | Species C :    hydro orbital   3 d accepted.
  | Species N :   atomic orbital   1 s accepted.
  | Species N :    hydro orbital   3 s accepted.
  | Species N :   atomic orbital   2 s accepted.
  | Species N :   atomic orbital   2 p accepted.
  | Species N :    hydro orbital   2 p accepted.
  | Species N :    hydro orbital   3 d accepted.
  | Species O :   atomic orbital   1 s accepted.
  | Species O :    hydro orbital   3 s accepted.
  | Species O :   atomic orbital   2 s accepted.
  | Species O :   atomic orbital   2 p accepted.
  | Species O :    hydro orbital   2 p accepted.
  | Species O :    hydro orbital   3 d accepted.
 
  Basis size parameters after reduction:
  | Total number of radial functions:       21
  | Total number of basis functions :      119
 
  Per-task memory consumption for arrays in subroutine allocate_ext:
  |           5.250512MB.
  Testing on-site integration grid accuracy.
  |  Species  Function  <phi|h_atom|phi> (log., in eV)  <phi|h_atom|phi> (rad., in eV)
           1        1                 -6.4663192853                 -6.4651273558
           1        2                 13.7111246313                 13.7170609718
           1        3                 25.2673269279                 25.2674696378
           2        4               -273.1705927641               -273.1705631568
           2        5                -10.7109323383                -10.7107120029
           2        6                 17.4381822266                 17.4352413244
           2        7                 -5.2255326521                 -5.2270484734
           2        8                  8.6835629259                  8.6603288385
           2        9                 27.4952418996                 27.4953360207
           3       10               -384.4424306495               -384.4423701208
           3       11                 12.5842251816                 12.5842222903
           3       12                -15.7264628251                -15.7264433455
           3       13                 -7.0696854293                 -7.0701769954
           3       14                  8.8090390882                  8.7901077751
           3       15                 35.9586762123                 35.9588528632
           4       16               -514.2458688638               -514.2457643834
           4       17                 15.1795651126                 15.1795290741
           4       18                -21.5359799773                -21.5360846186
           4       19                 -9.0283069236                 -9.0284644067
           4       20                  8.3027758564                  8.2834874195
           4       21                 45.8339351984                 45.8338762259

  Preparing densities etc. for the partition functions (integrals / Hartree potential).

  Preparations completed.
  max(cpu_time)          :      0.151 s.
  Wall clock time (cpu1) :      0.152 s.
------------------------------------------------------------

------------------------------------------------------------
          Begin self-consistency loop: Initialization.

          Date     :  20200902, Time     :  143417.395
------------------------------------------------------------

  Initializing index lists of integration centers etc. from given atomic structure:
  | Number of centers in hartree potential         :        13
  | Number of centers in hartree multipole         :        13
  | Number of centers in electron density summation:        13
  | Number of centers in basis integrals           :        13
  | Number of centers in integrals                 :        13
  | Number of centers in hamiltonian               :        13
  Partitioning the integration grid into batches with parallel hashing+maxmin method.
  | Number of batches:      951
  | Maximal batch size:     139
  | Minimal batch size:      66
  | Average batch size:      73.234
  | Standard deviation of batch sizes:      18.146

  Integration load balanced across     1 MPI tasks.
  Work distribution over tasks is as follows:
  Task     0 has      69646 integration points.
  Initializing partition tables, free-atom densities, potentials, etc. across the integration grid (initialize_grid_storage).
  | initialize_grid_storage: Actual outermost partition radius vs. multipole_radius_free
  | (-- VB: in principle, multipole_radius_free should be larger, hence this output)
  | Species        1: Confinement radius =              4.999999999999999 AA, multipole_radius_free =              5.054417573612229 AA.
  | Species        1: outer_partition_radius set to              5.054417573612229 AA .
  | Species        2: Confinement radius =              4.999999999999999 AA, multipole_radius_free =              5.019602836301480 AA.
  | Species        2: outer_partition_radius set to              5.019602836301480 AA .
  | Species        3: Confinement radius =              4.999999999999999 AA, multipole_radius_free =              5.043624274424571 AA.
  | Species        3: outer_partition_radius set to              5.043624274424571 AA .
  | Species        4: Confinement radius =              4.999999999999999 AA, multipole_radius_free =              5.048384829883283 AA.
  | Species        4: outer_partition_radius set to              5.048384829883283 AA .
  | Original list of interatomic distances with          13 x         13 entries is created.
  | Net number of integration points:    69646
  | of which are non-zero points    :    59704
  Renormalizing the initial density to the exact electron count on the 3D integration grid.
  | Initial density: Formal number of electrons (from input files) :      48.0000000000
  | Integrated number of electrons on 3D grid     :      47.9998875729
  | Charge integration error                      :      -0.0001124271
  | Normalization factor for density and gradient :       1.0000023422
  Obtaining max. number of non-zero basis functions in each batch (get_n_compute_maxes).
  | Maximal number of non-zero basis functions:      119 in task     0
  Selecting the method for density update.
  Loop over occupied states selected for charge density update.
  Allocating        0.050 MB for KS_eigenvector
  Integrating Hamiltonian matrix: batch-based integration.
  Time summed over all CPUs for integration: real work        0.492 s, elapsed        0.492 s
  Integrating overlap matrix.
  Time summed over all CPUs for integration: real work        0.211 s, elapsed        0.211 s

  Updating Kohn-Sham eigenvalues and eigenvectors using ELSI and the ELPA eigensolver.
  Overlap matrix is nonsingular
  | Lowest eigenvalue of overlap  :  0.47E-02
  | Highest eigenvalue of overlap :  0.61E+01
  Finished singularity check of overlap matrix
  | Time :     0.002 s
  Finished Cholesky decomposition
  | Time :     0.000 s
  Finished transformation to standard eigenproblem
  | Time :     0.000 s
  Starting LAPACK eigensolver
  Finished solving standard eigenproblem
  | Time :     0.002 s
  Finished back-transformation of eigenvectors
  | Time :     0.000 s

  Obtaining occupation numbers and chemical potential using ELSI.
  | Chemical potential (Fermi level):   -10.25750620eV
  Writing Kohn-Sham eigenvalues.

  State    Occupation    Eigenvalue [Ha]    Eigenvalue [eV]
      1       2.00000         -19.007730         -517.22666
      2       2.00000         -18.978255         -516.42459
      3       2.00000         -14.245814         -387.64832
      4       2.00000         -10.166610         -276.64754
      5       2.00000         -10.141243         -275.95726
      6       2.00000         -10.132196         -275.71108
      7       2.00000          -1.187360          -32.30972
      8       2.00000          -1.094300          -29.77743
      9       2.00000          -0.990465          -26.95193
     10       2.00000          -0.863327          -23.49231
     11       2.00000          -0.756219          -20.57775
     12       2.00000          -0.681917          -18.55591
     13       2.00000          -0.626983          -17.06107
     14       2.00000          -0.601680          -16.37256
     15       2.00000          -0.595957          -16.21681
     16       2.00000          -0.564466          -15.35989
     17       2.00000          -0.541407          -14.73243
     18       2.00000          -0.538787          -14.66114
     19       2.00000          -0.516272          -14.04848
     20       2.00000          -0.492423          -13.39950
     21       2.00000          -0.476495          -12.96608
     22       2.00000          -0.428548          -11.66139
     23       2.00000          -0.400546          -10.89941
     24       2.00000          -0.394510          -10.73517
     25       0.00000          -0.153067           -4.16518
     26       0.00000          -0.054979           -1.49605
     27       0.00000          -0.042171           -1.14754
     28       0.00000          -0.026331           -0.71650
     29       0.00000          -0.003680           -0.10013
     30       0.00000           0.003971            0.10805
     31       0.00000           0.018267            0.49706
     32       0.00000           0.030364            0.82624
     33       0.00000           0.039892            1.08552
     34       0.00000           0.088570            2.41010
     35       0.00000           0.108260            2.94591
     36       0.00000           0.138671            3.77343
     37       0.00000           0.150885            4.10578
     38       0.00000           0.185760            5.05479
     39       0.00000           0.213639            5.81342
     40       0.00000           0.237994            6.47614
     41       0.00000           0.255768            6.95979
     42       0.00000           0.271984            7.40106
     43       0.00000           0.297029            8.08256
     44       0.00000           0.310480            8.44859
     45       0.00000           0.336218            9.14895
     46       0.00000           0.350608            9.54053
     47       0.00000           0.405155           11.02484
     48       0.00000           0.411903           11.20845
     49       0.00000           0.432122           11.75863
     50       0.00000           0.474041           12.89931
     51       0.00000           0.483324           13.15192
     52       0.00000           0.511850           13.92815
     53       0.00000           0.539311           14.67540

  Highest occupied state (VBM) at    -10.73516589 eV
  | Occupation number:      2.00000000

  Lowest unoccupied state (CBM) at    -4.16517856 eV
  | Occupation number:      0.00000000

  Overall HOMO-LUMO gap:      6.56998734 eV.
  Calculating total energy contributions from superposition of free atom densities.

  Total energy components:
  | Sum of eigenvalues            :        -188.84701931 Ha       -5138.78885409 eV
  | XC energy correction          :         -41.78770558 Ha       -1137.10132379 eV
  | XC potential correction       :          53.71849913 Ha        1461.75473470 eV
  | Free-atom electrostatic energy:        -146.85239452 Ha       -3996.05697195 eV
  | Hartree energy correction     :           0.00000000 Ha           0.00000000 eV
  | Entropy correction            :           0.00000000 Ha           0.00000000 eV
  | ---------------------------
  | Total energy                  :        -323.76862027 Ha       -8810.19241514 eV
  | Total energy, T -> 0          :        -323.76862027 Ha       -8810.19241514 eV  <-- do not rely on this value for anything but (periodic) metals
  | Electronic free energy        :        -323.76862027 Ha       -8810.19241514 eV

  Derived energy quantities:
  | Kinetic energy                :         320.48642089 Ha        8720.87922582 eV
  | Electrostatic energy          :        -602.46733558 Ha      -16393.97031717 eV
  | Energy correction for multipole
  | error in Hartree potential    :           0.00000000 Ha           0.00000000 eV
  | Sum of eigenvalues per atom                           :        -395.29145031 eV
  | Total energy (T->0) per atom                          :        -677.70710886 eV  <-- do not rely on this value for anything but (periodic) metals
  | Electronic free energy per atom                       :        -677.70710886 eV
  
  --------------------------------------------
  Constructing auxiliary basis (full product) ...
  
  Product basis:
  | charge radius: extent of product basis function
  | field radius: extent of its Coulomb potential
  | Species   l  charge radius    field radius  multipol momen
  |    H      1     3.910002 A      3.910002 A       -8.637898E-17 a.u.
  |    H      1     3.958095 A      3.958095 A        5.444185E-18 a.u.
  |    H      0     4.527807 A      4.527807 A        1.857189E-16 a.u.
  |    H      0     4.527807 A      4.583499 A       -4.742363E-16 a.u.
  |    H      0     4.527807 A      4.583499 A        1.511233E-16 a.u.
  |    H      2     3.678162 A  1.011968E+04 A            0.556529 a.u.
  |    H      1     3.958095 A  1.722617E+06 A            0.843268 a.u.
  |    H      0     4.527807 A  3.861131E+12 A            0.580635 a.u.
  |    C      0     2.562483 A      2.562483 A       -2.138868E-17 a.u.
  |    C      0     3.003870 A      3.003870 A       -2.366590E-16 a.u.
  |    C      0     3.003870 A      3.003870 A       -1.564494E-16 a.u.
  |    C      1     3.272245 A      3.272245 A        4.012921E-17 a.u.
  |    C      0     3.312494 A      3.312494 A        3.019301E-17 a.u.
  |    C      3     4.077671 A      4.077671 A        2.357139E-15 a.u.
  |    C      3     4.077671 A      4.077671 A       -2.191957E-15 a.u.
  |    C      1     4.496620 A      4.496620 A        1.978738E-16 a.u.
  |    C      0     4.496620 A      4.551928 A        6.453419E-16 a.u.
  |    C      2     4.551928 A      4.551928 A       -2.693861E-18 a.u.
  |    C      2     4.551928 A      4.551928 A       -9.212639E-16 a.u.
  |    C      2     4.551928 A      4.551928 A       -2.154936E-16 a.u.
  |    C      2     4.551928 A      4.551928 A       -7.280175E-16 a.u.
  |    C      0     4.551928 A      4.607917 A       -1.995377E-17 a.u.
  |    C      1     4.551928 A      4.607917 A       -1.059660E-16 a.u.
  |    C      1     4.551928 A      4.607917 A        2.862884E-16 a.u.
  |    C      1     4.607917 A      4.607917 A       -2.311442E-16 a.u.
  |    C      2     4.607917 A      4.607917 A        1.710533E-15 a.u.
  |    C      0     4.607917 A      4.664595 A        1.616681E-16 a.u.
  |    C      4     3.835889 A  2.962973E+02 A            4.379483 a.u.
  |    C      3     4.127827 A  1.728652E+03 A            9.061838 a.u.
  |    C      2     4.607917 A  2.473919E+04 A            8.130983 a.u.
  |    C      1     4.607917 A  2.511222E+06 A            1.792083 a.u.
  |    C      0     4.607917 A  4.248934E+12 A            0.638953 a.u.
  |    N      0     2.334858 A      2.334858 A       -1.253478E-16 a.u.
  |    N      3     3.761152 A      3.761152 A        9.033571E-16 a.u.
  |    N      3     3.761152 A      3.761152 A        1.070001E-15 a.u.
  |    N      0     4.198596 A      4.198596 A        2.842254E-16 a.u.
  |    N      0     4.198596 A      4.198596 A       -8.391597E-17 a.u.
  |    N      0     4.302517 A      4.302517 A       -6.361074E-17 a.u.
  |    N      1     4.302517 A      4.302517 A        6.508147E-17 a.u.
  |    N      0     4.409010 A      4.409010 A        3.012764E-16 a.u.
  |    N      1     4.463241 A      4.463241 A        1.251412E-16 a.u.
  |    N      2     4.518138 A      4.518138 A        6.542091E-16 a.u.
  |    N      1     4.518138 A      4.573712 A        6.274397E-17 a.u.
  |    N      1     4.573712 A      4.573712 A       -2.855156E-17 a.u.
  |    N      2     4.573712 A      4.573712 A       -1.160557E-15 a.u.
  |    N      2     4.573712 A      4.573712 A        5.995218E-16 a.u.
  |    N      2     4.573712 A      4.573712 A       -1.004528E-16 a.u.
  |    N      0     4.573712 A      4.629968 A        2.338215E-16 a.u.
  |    N      0     4.573712 A      4.629968 A        1.736370E-16 a.u.
  |    N      1     4.573712 A      4.629968 A        7.247547E-16 a.u.
  |    N      1     4.573712 A      4.629968 A        7.544402E-17 a.u.
  |    N      2     4.573712 A      4.629968 A       -2.369227E-15 a.u.
  |    N      4     3.495147 A  2.647627E+02 A            2.494988 a.u.
  |    N      3     3.807414 A  1.563407E+03 A            6.062801 a.u.
  |    N      2     4.573712 A  2.408066E+04 A            7.498801 a.u.
  |    N      1     4.573712 A  2.550503E+06 A            1.848585 a.u.
  |    N      0     4.573712 A  4.174725E+12 A            0.627794 a.u.
  |    O      0     2.043000 A      2.043000 A       -6.504041E-17 a.u.
  |    O      3     3.498446 A      3.498446 A        5.299668E-17 a.u.
  |    O      3     3.498446 A      3.498446 A       -6.746408E-17 a.u.
  |    O      0     3.905335 A      3.905335 A       -8.038405E-17 a.u.
  |    O      0     3.905335 A      3.905335 A        1.060111E-16 a.u.
  |    O      0     4.101052 A      4.101052 A        2.388574E-16 a.u.
  |    O      1     4.101052 A      4.101052 A       -6.369117E-17 a.u.
  |    O      0     4.359549 A      4.359549 A        3.605031E-18 a.u.
  |    O      1     4.413171 A      4.413171 A       -4.013949E-17 a.u.
  |    O      1     4.522403 A      4.522403 A       -3.476450E-16 a.u.
  |    O      1     4.522403 A      4.522403 A        4.075594E-16 a.u.
  |    O      2     4.522403 A      4.522403 A       -3.352378E-16 a.u.
  |    O      0     4.578029 A      4.578029 A       -3.822280E-16 a.u.
  |    O      1     4.578029 A      4.578029 A        1.755984E-16 a.u.
  |    O      2     4.578029 A      4.578029 A        6.729708E-16 a.u.
  |    O      2     4.522403 A      4.578029 A       -8.807366E-16 a.u.
  |    O      2     4.578029 A      4.578029 A       -1.384576E-15 a.u.
  |    O      2     4.578029 A      4.578029 A        9.488087E-16 a.u.
  |    O      0     4.578029 A      4.634338 A       -3.034683E-16 a.u.
  |    O      1     4.578029 A      4.634338 A        5.717587E-16 a.u.
  |    O      4     3.251020 A  2.395699E+02 A            1.513372 a.u.
  |    O      3     3.541477 A  1.435492E+03 A            4.309127 a.u.
  |    O      2     4.578029 A  2.336164E+04 A            6.846944 a.u.
  |    O      1     4.578029 A  2.655459E+06 A            2.003859 a.u.
  |    O      0     4.578029 A  4.136183E+12 A            0.621998 a.u.

  | Shrink_full_auxil_basis : there are       82  radial auxiliary wave functions
                            accepted and      31 rejected.
  | Shrink_full_auxil_basis : there are totally                 651 partial auxiliary wave functions.
  prodbas_tasks_distribution_pbc not up to date - distributing tasks.
 
  | Number of product basis functions per thread :   651
  Parallel distribution of product basis not up to date - distributing tasks.
 
  | Number of product basis functions per thread :   651
  | Minimal requirement for computer memory :           0.038 Gbs
  -----------------------------------------
  --- Initializing Fock matrix calculations
  -----------------------------------------
  screening_threshold (crit_val) =  0.000000100000
  coul_mat_threshold =  0.000000000100
  Number of super-cells in X Y Z:       0       0       0
  Number of atoms pairs total:          169
  Atom pair distribution:
  Cell:        0       0       0 atom pairs:      169
  Number of atoms pairs in BvK cells:          169
  Initializing work distribution for fock matrix calculation
  -----------------------------------------------------
  Dividing atoms among tasks for exact exchange energy:
  Atom:     1 Weight:   86.000
  Atom:     2 Weight:   18.000
  Atom:     3 Weight:   89.000
  Atom:     4 Weight:   18.000
  Atom:     5 Weight:   18.000
  Atom:     6 Weight:   86.000
  Atom:     7 Weight:   18.000
  Atom:     8 Weight:   18.000
  Atom:     9 Weight:   18.000
  Atom:    10 Weight:   86.000
  Atom:    11 Weight:   89.000
  Atom:    12 Weight:   89.000
  Atom:    13 Weight:   18.000

  Average weight per task:   651.00

  Number of "big" (above average) atoms  :     0
  Number of "small" (below average) atoms:    13

  All atoms have below average work per task
  No atom will be divided among tasks, atoms will be sorted to get best load distribution

  Atom division among tasks:
  Atom     1: (initial) task:     0, # of tasks:     1
  Atom     2: (initial) task:     0, # of tasks:     1
  Atom     3: (initial) task:     0, # of tasks:     1
  Atom     4: (initial) task:     0, # of tasks:     1
  Atom     5: (initial) task:     0, # of tasks:     1
  Atom     6: (initial) task:     0, # of tasks:     1
  Atom     7: (initial) task:     0, # of tasks:     1
  Atom     8: (initial) task:     0, # of tasks:     1
  Atom     9: (initial) task:     0, # of tasks:     1
  Atom    10: (initial) task:     0, # of tasks:     1
  Atom    11: (initial) task:     0, # of tasks:     1
  Atom    12: (initial) task:     0, # of tasks:     1
  Atom    13: (initial) task:     0, # of tasks:     1

  -----------------------------------------------------
  Task     0 : Coulomb matrix distribution changed.
  Overall Coulomb matrix distribution changed.
  Coulomb matrix subdivision:
  Task     0 works on full atoms (no Coulomb matrix division)
  Task      0: my_n_atoms:     13 my_atom_list:      1     2     3     4     5     6     7     8     9    10    11    12    13
  Task      0: my_n_atom_pairs:    169
  Memory needs for ovlp3fn and Coulomb matrix:
  For Coulomb matrix, this is the upper limit if no compression occurs
  ovlp3fn:       30.388 MB, Coulomb:       13.562 MB
  --- Initializing LVL triples
  | Storage requirements for basis-basbas products (processor-local):
  |   Species H: n_prodsfn:    28; storage:        0.88 MiB.
  |   Species C: n_prodsfn:   202; storage:        6.31 MiB.
  |   Species N: n_prodsfn:   211; storage:        6.59 MiB.
  |   Species O: n_prodsfn:   211; storage:        6.59 MiB.

  --- Initializing Coulomb matrix calculations
  Preparing TB like auxiliary 2-center Coulomb matrix
  SBT integration errors (all should be 'small'):
  large logFT aliasing -> increase N/lnrange
  large SBT aliasing -> decrease lnk0 & increase lnk0+lnrange
  large SBT ringing -> decrease lnr0 & increase lnr0+lnrange
  |            El't  L: logFT-al.   small-k   large-k   small-r   large-r
  | Need to store  5468 splines of   208 points taking       8976 KiB.
  | Spline reduction from  4096 to   208 points by (cutting and)     1 x coarsening gives error:  0.00E+00
  Finished with initialize_tb_auxmat/lvl_triples, time:        1.528
  --- Calculating OVLP3FN
  Allocating        0.279 MB for coeff_3fn
  Allocating        0.837 MB for d_coeff_3fn
  --- Done calculating OVLP3FN, time:       12.761
  Atomic logSBT for LVL-triples                :  max(cpu_time)    wall_clock(cpu1)
  | Multiplication with kernel                 :        0.099 s           0.094 s
  | Main matrix multiplication                 :        2.520 s           2.507 s
  | Analytic angular integration               :        0.066 s           0.069 s
  | Kernel construction                        :        0.214 s           0.223 s
  | Overall 2-center overlap time              :        3.071 s           3.080 s
  | 3-center preparation multiplications       :        0.153 s           0.138 s
  | 3-center preparation SBTs                  :        7.973 s           7.995 s
  | 3-center combinations                      :        3.260 s           3.259 s
  | Overal 3-center time                       :       11.403 s          11.413 s
  | LVL initialization                         :        0.068 s           0.069 s
  | Whole LVL-triples                          :        0.068 s           0.069 s

  --- Done getting norm of OVLP3FN, time:        0.005
  --- Calculating Coulomb matrices
  Allocating        0.063 MB for aux_mat
  Allocating        0.190 MB for d_aux_mat
  Time to calculate Coulomb Matrices   :        0.041
  Number of Coulomb matrix elements:
  | Task     0 total:        1695204, > threshold:        1459743, stored:        1550511
  --- Done init_fock_matrix_calculations
  Atomic logSBT for 2-center Coulomb matrix    :  max(cpu_time)    wall_clock(cpu1)
  | TB initialization                          :        1.458 s           1.459 s
  | TB usage                                   :        0.086 s           0.088 s

  Calculating non-local Hartree-Fock exchange by two-center RI (RI-LVL).
  screening_threshold (crit_val) =  0.000000100000
  Allocating        0.113 MB for dm_cols
  Allocating        0.169 MB for ovlp3fn_rcv
  Allocating        0.113 MB for fock_matrix
  Allocating        0.001 MB for fock_matrix_row
  Exact exchange progress report - outermost basis function loop i_basis_r1: 1 .. 119
  |        1         2         3         4         5         6         7         8         9        10
  |       11        12        13        14        15        16        17        18        19        20
  |       21        22        23        24        25        26        27        28        29        30
  |       31        32        33        34        35        36        37        38        39        40
  |       41        42        43        44        45        46        47        48        49        50
  |       51        52        53        54        55        56        57        58        59        60
  |       61        62        63        64        65        66        67        68        69        70
  |       71        72        73        74        75        76        77        78        79        80
  |       81        82        83        84        85        86        87        88        89        90
  |       91        92        93        94        95        96        97        98        99       100
  |      101       102       103       104       105       106       107       108       109       110
  |      111       112       113       114       115       116       117       118       119  
  Full exact exchange energy:    1142.922993533885 eV.
  Times            DM_x_o3fn   CM_x_o3fn    Products        Sync   Imbalance    Pre/Post       Other  Total calc
  | Times    0:        0.097       0.134       0.133       0.004       0.000       0.000       0.025       0.393
  | Times  sum:        0.097       0.134       0.133       0.004       0.000       0.000       0.025       0.393

  Decomposition of Other based on code block (only on MPI task 0):
  Times             Block #1    Block #2    Block #3    Block #4    Block #5    Block #6    Block #7    Block #8
  | Times    0:        0.000       0.000       0.003       0.000       0.001       0.001       0.006       0.000

  Times             Block #9   Block #10   Block #11   Block #12   Block #13   Block #14   Block #15   Block #16
  | Times    0:        0.002       0.002       0.001       0.004       0.004       0.000       0.000       0.000

  Times            Block Sum    Expected
  | Times    0:        0.024       0.025
  Initialize hartree_potential_storage
  Max. number of atoms included in rho_multipole:           13

  End scf initialization - timings             :  max(cpu_time)    wall_clock(cpu1)
  | Time for scf. initialization               :       15.924 s          15.961 s
  | Boundary condition initialization          :        0.000 s           0.000 s
  | Integration                                :        0.703 s           0.704 s
  | Solution of K.-S. eqns.                    :        0.004 s           0.005 s
  | Grid partitioning                          :        0.110 s           0.111 s
  | Preloading free-atom quantities on grid    :        0.002 s           0.002 s
  | Free-atom superposition energy             :        0.085 s           0.085 s
  | Total energy evaluation                    :        0.000 s           0.000 s
  | Product basis setup: Total time            :       14.778 s          14.813 s

  Partial memory accounting:
  | Current value for overall tracked memory usage on task 0  :          43.666 MB
  | Peak value for overall tracked memory usage on task 0     :          44.195 MB after allocating dm_tmp
  | Largest tracked array allocation on task 0 so far         :           1.186 MB  when allocating ovlp3fn for atom
  Note:  These values currently only include a subset of arrays which are explicitly tracked.
  The "true" memory usage will be greater.
------------------------------------------------------------

------------------------------------------------------------
          Begin self-consistency iteration #    1

  Date     :  20200902, Time     :  143433.356
------------------------------------------------------------
  Evaluating new KS density.
  Integration grid: deviation in total charge (<rho> - N_e) =   7.105427E-15
  Pulay mixing of updated and previous charge densities.

  Evaluating partitioned Hartree potential by multipole expansion.
  | Analytical far-field extrapolation by fixed multipoles:
  | Hartree multipole sum: apparent total charge =  -0.220337E-03
  Summing up the Hartree potential.
  Time summed over all CPUs for potential: real work        0.282 s, elapsed        0.282 s
  | RMS charge density error from multipole expansion :   0.585339E-02

  Integrating Hamiltonian matrix: batch-based integration.
  Time summed over all CPUs for integration: real work        0.493 s, elapsed        0.493 s
  Calculating non-local Hartree-Fock exchange by two-center RI (RI-LVL).
  screening_threshold (crit_val) =  0.000000100000
  Allocating        0.113 MB for dm_cols
  Allocating        0.169 MB for ovlp3fn_rcv
  Allocating        0.113 MB for fock_matrix
  Allocating        0.001 MB for fock_matrix_row
  Exact exchange progress report - outermost basis function loop i_basis_r1: 1 .. 119
  |        1         2         3         4         5         6         7         8         9        10
  |       11        12        13        14        15        16        17        18        19        20
  |       21        22        23        24        25        26        27        28        29        30
  |       31        32        33        34        35        36        37        38        39        40
  |       41        42        43        44        45        46        47        48        49        50
  |       51        52        53        54        55        56        57        58        59        60
  |       61        62        63        64        65        66        67        68        69        70
  |       71        72        73        74        75        76        77        78        79        80
  |       81        82        83        84        85        86        87        88        89        90
  |       91        92        93        94        95        96        97        98        99       100
  |      101       102       103       104       105       106       107       108       109       110
  |      111       112       113       114       115       116       117       118       119  
  Full exact exchange energy:    1142.922993533885 eV.
  Times            DM_x_o3fn   CM_x_o3fn    Products        Sync   Imbalance    Pre/Post       Other  Total calc
  | Times    0:        0.092       0.127       0.130       0.004       0.000       0.000       0.024       0.377
  | Times  sum:        0.092       0.127       0.130       0.004       0.000       0.000       0.024       0.377

  Decomposition of Other based on code block (only on MPI task 0):
  Times             Block #1    Block #2    Block #3    Block #4    Block #5    Block #6    Block #7    Block #8
  | Times    0:        0.000       0.000       0.003       0.000       0.001       0.001       0.006       0.000

  Times             Block #9   Block #10   Block #11   Block #12   Block #13   Block #14   Block #15   Block #16
  | Times    0:        0.002       0.002       0.001       0.004       0.004       0.000       0.000       0.000

  Times            Block Sum    Expected
  | Times    0:        0.023       0.024

  Updating Kohn-Sham eigenvalues and eigenvectors using ELSI and the ELPA eigensolver.
  Finished Cholesky decomposition
  | Time :     0.000 s
  Finished transformation to standard eigenproblem
  | Time :     0.000 s
  Starting LAPACK eigensolver
  Finished solving standard eigenproblem
  | Time :     0.001 s
  Finished back-transformation of eigenvectors
  | Time :     0.000 s

  Obtaining occupation numbers and chemical potential using ELSI.
  | Chemical potential (Fermi level):    -8.32597152eV
  Writing Kohn-Sham eigenvalues.

  State    Occupation    Eigenvalue [Ha]    Eigenvalue [eV]
      1       2.00000         -19.365767         -526.96934
      2       2.00000         -19.303433         -525.27314
      3       2.00000         -14.490467         -394.30568
      4       2.00000         -10.449551         -284.34674
      5       2.00000         -10.395364         -282.87224
      6       2.00000         -10.363040         -281.99267
      7       2.00000          -1.268387          -34.51458
      8       2.00000          -1.161653          -31.61020
      9       2.00000          -1.028535          -27.98785
     10       2.00000          -0.895825          -24.37664
     11       2.00000          -0.793013          -21.57899
     12       2.00000          -0.714621          -19.44584
     13       2.00000          -0.646013          -17.57891
     14       2.00000          -0.625865          -17.03066
     15       2.00000          -0.610728          -16.61874
     16       2.00000          -0.580539          -15.79727
     17       2.00000          -0.556371          -15.13963
     18       2.00000          -0.542477          -14.76154
     19       2.00000          -0.514417          -13.99799
     20       2.00000          -0.501394          -13.64362
     21       2.00000          -0.490051          -13.33497
     22       2.00000          -0.442399          -12.03829
     23       2.00000          -0.410254          -11.16359
     24       2.00000          -0.387268          -10.53810
     25       0.00000          -0.071151           -1.93611
     26       0.00000           0.012438            0.33845
     27       0.00000           0.025356            0.68996
     28       0.00000           0.053398            1.45304
     29       0.00000           0.070605            1.92127
     30       0.00000           0.083289            2.26641
     31       0.00000           0.112413            3.05891
     32       0.00000           0.118858            3.23430
     33       0.00000           0.126017            3.42911
     34       0.00000           0.177535            4.83097
     35       0.00000           0.190571            5.18570
     36       0.00000           0.209606            5.70368
     37       0.00000           0.229229            6.23764
     38       0.00000           0.266425            7.24979
     39       0.00000           0.287310            7.81811
     40       0.00000           0.324737            8.83654
     41       0.00000           0.340525            9.26615
     42       0.00000           0.352617            9.59519
     43       0.00000           0.385371           10.48648
     44       0.00000           0.408595           11.11844
     45       0.00000           0.434145           11.81368
     46       0.00000           0.444376           12.09208
     47       0.00000           0.498235           13.55766
     48       0.00000           0.507670           13.81440
     49       0.00000           0.535464           14.57073
     50       0.00000           0.567734           15.44883
     51       0.00000           0.580889           15.80678
     52       0.00000           0.617458           16.80189
     53       0.00000           0.631393           17.18108

  Highest occupied state (VBM) at    -10.53810230 eV
  | Occupation number:      2.00000000

  Lowest unoccupied state (CBM) at    -1.93611334 eV
  | Occupation number:      0.00000000

  Overall HOMO-LUMO gap:      8.60198897 eV.

  Total energy components:
  | Sum of eigenvalues            :        -193.07486847 Ha       -5253.83448311 eV
  | XC energy correction          :         -21.52115768 Ha        -585.62049640 eV
  | XC potential correction       :          41.14544868 Ha        1119.62462451 eV
  | Free-atom electrostatic energy:        -146.85239452 Ha       -3996.05697195 eV
  | Hartree energy correction     :          -3.34365253 Ha         -90.98541450 eV
  | Entropy correction            :           0.00000000 Ha           0.00000000 eV
  | ---------------------------
  | Total energy                  :        -323.64662450 Ha       -8806.87274145 eV
  | Total energy, T -> 0          :        -323.64662450 Ha       -8806.87274145 eV  <-- do not rely on this value for anything but (periodic) metals
  | Electronic free energy        :        -323.64662450 Ha       -8806.87274145 eV

  Derived energy quantities:
  | Kinetic energy                :         385.34326109 Ha       10485.72364205 eV
  | Electrostatic energy          :        -603.74863753 Ha      -16428.83631728 eV
  | Energy correction for multipole
  | error in Hartree potential    :           0.01213165 Ha           0.33011907 eV
  | Sum of eigenvalues per atom                           :        -404.14111409 eV
  | Total energy (T->0) per atom                          :        -677.45174934 eV  <-- do not rely on this value for anything but (periodic) metals
  | Electronic free energy per atom                       :        -677.45174934 eV

  Self-consistency convergence accuracy:
  | Change of charge density      :  0.5824E+00
  | Change of sum of eigenvalues  : -0.1150E+03 eV
  | Change of total energy        :  0.3320E+01 eV

  End self-consistency iteration #     1       :  max(cpu_time)    wall_clock(cpu1)
  | Time for this iteration                    :        1.553 s           1.559 s
  | Charge density update                      :        0.388 s           0.388 s
  | Density mixing                             :        0.005 s           0.006 s
  | Hartree multipole update                   :        0.009 s           0.009 s
  | Hartree multipole summation                :        0.283 s           0.283 s
  | Integration                                :        0.493 s           0.494 s
  | Fock matrix evaluation                     :        0.373 s           0.377 s
  | Solution of K.-S. eqns.                    :        0.002 s           0.002 s
  | Total energy evaluation                    :        0.000 s           0.000 s

  Partial memory accounting:
  | Current value for overall tracked memory usage on task 0  :          43.666 MB
  | Peak value for overall tracked memory usage on task 0     :          44.195 MB after allocating dm_tmp
  | Largest tracked array allocation on task 0 so far         :           1.186 MB  when allocating ovlp3fn for atom
  Note:  These values currently only include a subset of arrays which are explicitly tracked.
  The "true" memory usage will be greater.
------------------------------------------------------------

------------------------------------------------------------
          Begin self-consistency iteration #    2

  Date     :  20200902, Time     :  143434.918
------------------------------------------------------------
  Evaluating new KS density.
  Integration grid: deviation in total charge (<rho> - N_e) =  -7.105427E-15
  Pulay mixing of updated and previous charge densities.

  Evaluating partitioned Hartree potential by multipole expansion.
  | Analytical far-field extrapolation by fixed multipoles:
  | Hartree multipole sum: apparent total charge =  -0.412586E-03
  Summing up the Hartree potential.
  Time summed over all CPUs for potential: real work        0.282 s, elapsed        0.282 s
  | RMS charge density error from multipole expansion :   0.173733E-01

  Integrating Hamiltonian matrix: batch-based integration.
  Time summed over all CPUs for integration: real work        0.493 s, elapsed        0.493 s
  Calculating non-local Hartree-Fock exchange by two-center RI (RI-LVL).
  screening_threshold (crit_val) =  0.000000100000
  Allocating        0.113 MB for dm_cols
  Allocating        0.169 MB for ovlp3fn_rcv
  Allocating        0.113 MB for fock_matrix
  Allocating        0.001 MB for fock_matrix_row
  Exact exchange progress report - outermost basis function loop i_basis_r1: 1 .. 119
  |        1         2         3         4         5         6         7         8         9        10
  |       11        12        13        14        15        16        17        18        19        20
  |       21        22        23        24        25        26        27        28        29        30
  |       31        32        33        34        35        36        37        38        39        40
  |       41        42        43        44        45        46        47        48        49        50
  |       51        52        53        54        55        56        57        58        59        60
  |       61        62        63        64        65        66        67        68        69        70
  |       71        72        73        74        75        76        77        78        79        80
  |       81        82        83        84        85        86        87        88        89        90
  |       91        92        93        94        95        96        97        98        99       100
  |      101       102       103       104       105       106       107       108       109       110
  |      111       112       113       114       115       116       117       118       119  
  Full exact exchange energy:    1135.654034880175 eV.
  Times            DM_x_o3fn   CM_x_o3fn    Products        Sync   Imbalance    Pre/Post       Other  Total calc
  | Times    0:        0.094       0.133       0.133       0.004       0.000       0.000       0.025       0.389
  | Times  sum:        0.094       0.133       0.133       0.004       0.000       0.000       0.025       0.389

  Decomposition of Other based on code block (only on MPI task 0):
  Times             Block #1    Block #2    Block #3    Block #4    Block #5    Block #6    Block #7    Block #8
  | Times    0:        0.000       0.000       0.004       0.000       0.001       0.001       0.006       0.000

  Times             Block #9   Block #10   Block #11   Block #12   Block #13   Block #14   Block #15   Block #16
  | Times    0:        0.002       0.002       0.001       0.004       0.004       0.000       0.000       0.000

  Times            Block Sum    Expected
  | Times    0:        0.024       0.025

  Updating Kohn-Sham eigenvalues and eigenvectors using ELSI and the ELPA eigensolver.
  Finished Cholesky decomposition
  | Time :     0.000 s
  Finished transformation to standard eigenproblem
  | Time :     0.000 s
  Starting LAPACK eigensolver
  Finished solving standard eigenproblem
  | Time :     0.001 s
  Finished back-transformation of eigenvectors
  | Time :     0.000 s

  Obtaining occupation numbers and chemical potential using ELSI.
  | Chemical potential (Fermi level):    -6.49605577eV
  Highest occupied state (VBM) at     -7.20998492 eV
  | Occupation number:      2.00000000

  Lowest unoccupied state (CBM) at    -0.49435842 eV
  | Occupation number:      0.00000000

  Overall HOMO-LUMO gap:      6.71562650 eV.

  Checking to see if s.c.f. parameters should be adjusted.

  Total energy components:
  | Sum of eigenvalues            :        -187.69212798 Ha       -5107.36266209 eV
  | XC energy correction          :         -22.05075732 Ha        -600.03163608 eV
  | XC potential correction       :          41.68986560 Ha        1134.43896248 eV
  | Free-atom electrostatic energy:        -146.85239452 Ha       -3996.05697195 eV
  | Hartree energy correction     :          -8.70173094 Ha        -236.78614653 eV
  | Entropy correction            :           0.00000000 Ha           0.00000000 eV
  | ---------------------------
  | Total energy                  :        -323.60714517 Ha       -8805.79845418 eV
  | Total energy, T -> 0          :        -323.60714517 Ha       -8805.79845418 eV  <-- do not rely on this value for anything but (periodic) metals
  | Electronic free energy        :        -323.60714517 Ha       -8805.79845418 eV

  Derived energy quantities:
[...]
  | Electronic free energy        :        -323.50665983 Ha       -8803.06410891 eV

  Derived energy quantities:
  | Kinetic energy                :         384.17305984 Ha       10453.88084588 eV
  | Electrostatic energy          :        -603.39902239 Ha      -16419.32280521 eV
  | Energy correction for multipole
  | error in Hartree potential    :           0.04161183 Ha           1.13231542 eV
  | Sum of eigenvalues per atom                           :        -393.42896677 eV
  | Total energy (T->0) per atom                          :        -677.15877761 eV  <-- do not rely on this value for anything but (periodic) metals
  | Electronic free energy per atom                       :        -677.15877761 eV

  atomic forces [eV/Ang]:
  -----------------------
  atom #    1
   Hellmann-Feynman              : -0.130555E+00  0.596436E+00  0.944767E+00
   Ionic forces                  :  0.000000E+00  0.000000E+00  0.000000E+00
   Multipole                     :  0.242069E+00  0.761216E-01 -0.217901E+00
   Hartree-Fock exchange         :  0.113953E+01 -0.399594E+00 -0.445327E+00
   Pulay + GGA                   : -0.216707E+01 -0.193469E+00 -0.107778E+01
   Van der Waals                 :  0.539505E-02 -0.228220E-02 -0.629330E-03
   ----------------------------------------------------------------
   Total forces(   1)            : -0.910630E+00  0.772124E-01 -0.796865E+00
  atom #    2
   Hellmann-Feynman              :  0.103953E-01 -0.684420E-01  0.446514E-01
   Ionic forces                  :  0.000000E+00  0.000000E+00  0.000000E+00
   Multipole                     :  0.180794E+00 -0.527833E-02  0.767438E-02
   Hartree-Fock exchange         : -0.407190E+01 -0.662955E-01  0.496651E-01
   Pulay + GGA                   :  0.393921E+01  0.992146E-01 -0.434801E-01
   Van der Waals                 : -0.737197E-02 -0.851450E-03  0.316667E-02
   ----------------------------------------------------------------
   Total forces(   2)            :  0.511271E-01 -0.416527E-01  0.616775E-01
  atom #    3
   Hellmann-Feynman              : -0.575859E+01  0.101497E+02 -0.839959E+00
   Ionic forces                  :  0.000000E+00  0.000000E+00  0.000000E+00
   Multipole                     : -0.129187E+00  0.118515E+00 -0.955767E+00
   Hartree-Fock exchange         :  0.215656E+01 -0.471044E+01 -0.763167E+00
   Pulay + GGA                   :  0.427911E+01 -0.571988E+01  0.341651E+01
   Van der Waals                 : -0.215547E-02 -0.393069E-02  0.351243E-02
   ----------------------------------------------------------------
   Total forces(   3)            :  0.545736E+00 -0.166036E+00  0.861125E+00
  atom #    4
   Hellmann-Feynman              : -0.400954E+00 -0.325637E+00  0.132030E+00
   Ionic forces                  :  0.000000E+00  0.000000E+00  0.000000E+00
   Multipole                     :  0.398042E-01 -0.108103E-01 -0.110827E+00
   Hartree-Fock exchange         : -0.427127E+01  0.332846E+00  0.314015E+01
   Pulay + GGA                   :  0.406238E+01 -0.246077E+00 -0.301691E+01
   Van der Waals                 : -0.263849E-02  0.133075E-02  0.805461E-02
   ----------------------------------------------------------------
   Total forces(   4)            : -0.572673E+00 -0.248347E+00  0.152496E+00
  atom #    5
   Hellmann-Feynman              :  0.309019E+00 -0.885001E-01 -0.162041E+00
   Ionic forces                  :  0.000000E+00  0.000000E+00  0.000000E+00
   Multipole                     : -0.599626E-01 -0.725820E-01 -0.748899E-01
   Hartree-Fock exchange         :  0.324675E+01  0.416624E+01  0.601077E+00
   Pulay + GGA                   : -0.312809E+01 -0.395355E+01 -0.551723E+00
   Van der Waals                 :  0.290202E-02  0.523714E-02  0.622922E-02
   ----------------------------------------------------------------
   Total forces(   5)            :  0.370619E+00  0.568498E-01 -0.181347E+00
  atom #    6
   Hellmann-Feynman              :  0.710853E-01 -0.410479E+00  0.991288E-01
   Ionic forces                  :  0.000000E+00  0.000000E+00  0.000000E+00
   Multipole                     : -0.138069E+00  0.687115E+00  0.273154E+00
   Hartree-Fock exchange         : -0.512753E+00  0.147339E+01  0.824403E+00
   Pulay + GGA                   :  0.695553E+00 -0.188519E+01 -0.908012E+00
   Van der Waals                 : -0.473814E-02  0.480355E-03  0.114758E-02
   ----------------------------------------------------------------
   Total forces(   6)            :  0.111078E+00 -0.134686E+00  0.289821E+00
  atom #    7
   Hellmann-Feynman              : -0.135175E+00 -0.803572E-01  0.456271E-01
   Ionic forces                  :  0.000000E+00  0.000000E+00  0.000000E+00
   Multipole                     :  0.434891E-01  0.106378E+00  0.922481E-01
   Hartree-Fock exchange         : -0.281998E+01 -0.131903E+01 -0.238600E+01
   Pulay + GGA                   :  0.273480E+01  0.127186E+01  0.233539E+01
   Van der Waals                 :  0.458738E-03 -0.906735E-02 -0.293640E-02
   ----------------------------------------------------------------
   Total forces(   7)            : -0.176412E+00 -0.302186E-01  0.843334E-01
  atom #    8
   Hellmann-Feynman              :  0.151523E+00 -0.261350E+00 -0.127667E-01
   Ionic forces                  :  0.000000E+00  0.000000E+00  0.000000E+00
   Multipole                     : -0.475042E-01  0.150334E+00 -0.193428E-01
   Hartree-Fock exchange         :  0.938247E+00 -0.299954E+01  0.272591E+01
   Pulay + GGA                   : -0.931077E+00  0.285730E+01 -0.268884E+01
   Van der Waals                 :  0.233651E-02 -0.807359E-02 -0.213981E-02
   ----------------------------------------------------------------
   Total forces(   8)            :  0.113525E+00 -0.261326E+00  0.281872E-02
  atom #    9
   Hellmann-Feynman              :  0.490776E-01  0.990144E-01 -0.849447E-01
   Ionic forces                  :  0.000000E+00  0.000000E+00  0.000000E+00
   Multipole                     : -0.105208E+00  0.385337E-01  0.942020E-01
   Hartree-Fock exchange         :  0.327075E+01  0.903599E+00 -0.212766E+01
   Pulay + GGA                   : -0.317634E+01 -0.862278E+00  0.208894E+01
   Van der Waals                 :  0.447032E-02 -0.784008E-02 -0.383248E-02
   ----------------------------------------------------------------
   Total forces(   9)            :  0.427472E-01  0.171029E+00 -0.332932E-01
  atom #   10
   Hellmann-Feynman              : -0.150547E+00  0.179070E+01 -0.611680E+01
   Ionic forces                  :  0.000000E+00  0.000000E+00  0.000000E+00
   Multipole                     : -0.110231E+00 -0.315024E+00 -0.752966E-01
   Hartree-Fock exchange         : -0.195900E+01 -0.644495E+01  0.239490E+00
   Pulay + GGA                   :  0.154135E+01  0.510528E+01  0.323284E+01
   Van der Waals                 : -0.366651E-02 -0.597209E-02  0.230061E-02
   ----------------------------------------------------------------
   Total forces(  10)            : -0.682100E+00  0.130029E+00 -0.271747E+01
  atom #   11
   Hellmann-Feynman              : -0.384513E+01 -0.116348E+02 -0.708379E+01
   Ionic forces                  :  0.000000E+00  0.000000E+00  0.000000E+00
   Multipole                     : -0.334767E+00 -0.110799E+01 -0.635371E-01
   Hartree-Fock exchange         :  0.293147E+01  0.917170E+01  0.407733E+01
   Pulay + GGA                   :  0.159105E+01  0.369924E+01  0.214234E+01
   Van der Waals                 :  0.367437E-02  0.163851E-01 -0.223463E-02
   ----------------------------------------------------------------
   Total forces(  11)            :  0.346292E+00  0.144499E+00 -0.929891E+00
  atom #   12
   Hellmann-Feynman              : -0.101485E+01  0.126944E+02  0.101457E+02
   Ionic forces                  :  0.000000E+00  0.000000E+00  0.000000E+00
   Multipole                     : -0.197341E+00  0.104304E+00  0.161768E+01
   Hartree-Fock exchange         :  0.226204E+01 -0.595887E+01 -0.485868E+01
   Pulay + GGA                   :  0.418432E+00 -0.661592E+01 -0.461516E+01
   Van der Waals                 :  0.188109E-02  0.746533E-02 -0.106616E-01
   ----------------------------------------------------------------
   Total forces(  12)            :  0.147016E+01  0.231392E+00  0.227887E+01
  atom #   13
   Hellmann-Feynman              : -0.599379E+00 -0.190391E+00  0.989522E+00
   Ionic forces                  :  0.000000E+00  0.000000E+00  0.000000E+00
   Multipole                     :  0.372882E-01 -0.897422E-01  0.157150E-01
   Hartree-Fock exchange         : -0.231045E+01  0.585093E+01 -0.107720E+01
   Pulay + GGA                   :  0.216511E+01 -0.550563E+01  0.100269E+01
   Van der Waals                 : -0.547496E-03  0.711877E-02 -0.197684E-02
   ----------------------------------------------------------------
   Total forces(  13)            : -0.707979E+00  0.722948E-01  0.928752E+00

  Timings for VdW correction (Tkatchenko-Scheffler 2009 or later):
  | CPU time:        0.436 s, Wall clock time:        0.437 s.
  Removing unitary transformations (pure translations, rotations) from forces on atoms.
  Atomic forces before filtering:
  | Net force on center of mass :   0.149220E-02  0.104102E-02  0.103255E-02 eV/A
  | Net torque on center of mass:   0.387883E-03 -0.311262E-02 -0.123829E-02 eV
  Atomic forces after filtering:
  | Net force on center of mass :   0.892031E-16  0.100353E-15 -0.356812E-15 eV/A
  | Net torque on center of mass:  -0.214779E-14  0.613655E-15 -0.377634E-15 eV

  Energy and forces in a compact form:
  | Total energy uncorrected      :         -0.880306410891161E+04 eV
  | Total energy corrected        :         -0.880306410891161E+04 eV  <-- do not rely on this value for anything but (periodic) metals
  | Electronic free energy        :         -0.880306410891161E+04 eV
  Total atomic forces (unitary forces cleaned) [eV/Ang]:
  |   1         -0.910782765775286E+00          0.771406684944527E-01         -0.796981492600463E+00
  |   2          0.509746838608868E-01         -0.416860510941958E-01          0.614355001618133E-01
  |   3          0.545421081819016E+00         -0.166137574087360E+00          0.861063707389124E+00
  |   4         -0.573056004354032E+00         -0.248425525027357E+00          0.152342520719433E+00
  |   5          0.370316759684696E+00          0.567249814842638E-01         -0.181329083475013E+00
  |   6          0.110965195290181E+00         -0.134768546856935E+00          0.289750029244882E+00
  |   7         -0.176460208839832E+00         -0.302678375374296E-01          0.841706541315152E-01
  |   8          0.113301796969371E+00         -0.261422958511057E+00          0.276734448532483E-02
  |   9          0.427082972370070E-01          0.170920322284321E+00         -0.332590748589854E-01
  |  10         -0.682121483712905E+00          0.129950652102229E+00         -0.271752883622339E+01
  |  11          0.346247620367267E+00          0.144403952977530E+00         -0.929902603825567E+00
  |  12          0.147028708331134E+01          0.231326297068792E+00          0.227881039864824E+01
  |  13         -0.707802055857709E+00          0.722416187027451E-01          0.928660936203083E+00

  ------------------------------------ 
  Start decomposition of the XC Energy 
  ------------------------------------ 
  X and C from original XC functional choice 
  Hartree-Fock Energy :        -10.269903495 Ha           -279.458292777 eV
  X Energy            :        -41.052686912 Ha          -1117.100448320 eV
  C Energy            :         -1.601808105 Ha            -43.587416234 eV
  Total XC Energy     :        -42.654495017 Ha          -1160.687864554 eV
  ------------------------------------ 
  LDA X and C from self-consistent density 
  X Energy LDA        :        -37.261345974 Ha          -1013.932812291 eV
  C Energy LDA        :         -3.138879350 Ha            -85.413252898 eV
  ------------------------------------ 
  End decomposition of the XC Energy 
  ------------------------------------ 

------------------------------------------------------------

------------------------------------------------------------------------------
  Final output of selected total energy values:

  The following output summarizes some interesting total energy values
  at the end of a run (AFTER all relaxation, molecular dynamics, etc.).

  | Total energy of the DFT / Hartree-Fock s.c.f. calculation      :          -8803.064108912 eV
  | Final zero-broadening corrected energy (caution - metals only) :          -8803.064108912 eV
  | For reference only, the value of 1 Hartree used in FHI-aims is :             27.211384500 eV

  Before relying on these values, please be sure to understand exactly which
  total energy value is referred to by a given number. Different objects may
  all carry the same name 'total energy'. Definitions:

  Total energy of the DFT / Hartree-Fock s.c.f. calculation:
  | Note that this energy does not include ANY quantities calculated after the
  | s.c.f. cycle, in particular not ANY RPA, MP2, etc. many-body perturbation terms.

  Final zero-broadening corrected energy:
  | For metallic systems only, a broadening of the occupation numbers at the Fermi
  | level can be extrapolated back to zero broadening by an electron-gas inspired
  | formula. For all systems that are not real metals, this value can be
  | meaningless and should be avoided.

------------------------------------------------------------------------------
  Methods described in the following list of references were used in this FHI-aims run.
  If you publish the results, please make sure to cite these reference if they apply.
  FHI-aims is an academic code, and for our developers (often, Ph.D. students
  and postdocs), scientific credit in the community is essential.
  Thank you for helping us!

  For any use of FHI-aims, please cite:

    Volker Blum, Ralf Gehrke, Felix Hanke, Paula Havu, Ville Havu,
    Xinguo Ren, Karsten Reuter, and Matthias Scheffler
    'Ab initio molecular simulations with numeric atom-centered orbitals'
    Computer Physics Communications 180, 2175-2196 (2009)
    http://dx.doi.org/10.1016/j.cpc.2009.06.022


  For Hartree-Fock, hybrid functionals, or many-body perturbation theory used in your run, please cite:

    Xinguo Ren, Patrick Rinke, Volker Blum, Juergen Wieferink, Alex Tkatchenko,
    Andrea Sanfilippo, Karsten Reuter, and Matthias Scheffler,
    'Resolution-of-identity approach to Hartree-Fock, hybrid density functionals,
    RPA, MP2, and GW with numeric atom-centered orbital basis functions'
    New Journal of Physics 14, 053020 (2012).
    http://dx.doi.org/10.1088/1367-2630/14/5/053020


  The scalable eigensolver library ELPA was used in your run.
  ELPA is essential especially for large systems on hundreds or thousands of CPUs.
  For ELPA, please cite:

    Andreas Marek, Volker Blum, Rainer Johanni, Ville Havu, Bruno Lang,
    Thomas Auckenthaler, Alexander Heinecke, Hans-Joachim Bungartz, and Hermann Lederer,
    'The ELPA Library - Scalable Parallel Eigenvalue Solutions
    for Electronic Structure Theory and Computational Science'
    The Journal of Physics: Condensed Matter 26, 213201 (2014).
    http://dx.doi.org/10.1088/0953-8984/26/21/213201


  The ELSI infrastructure was used in your run to solve the Kohn-Sham electronic structure.
  Please check out http://elsi-interchange.org to learn more.
  If scalability is important for your project, please acknowledge ELSI by citing:

    V. W-z. Yu, F. Corsetti, A. Garcia, W. P. Huhn, M. Jacquelin, W. Jia,
    B. Lange, L. Lin, J. Lu, W. Mi, A. Seifitokaldani, A. Vazquez-Mayagoitia,
    C. Yang, H. Yang, and V. Blum
    'ELSI: A unified software interface for Kohn-Sham electronic structure solvers'
    Computer Physics Communications 222, 267-285 (2018).
    http://dx.doi.org/10.1016/j.cpc.2017.09.007


  For the real-space grid partitioning and parallelization used in this calculation, please cite:

    Ville Havu, Volker Blum, Paula Havu, and Matthias Scheffler,
    'Efficient O(N) integration for all-electron electronic structure calculation'
    'using numerically tabulated basis functions'
    Journal of Computational Physics 228, 8367-8379 (2009).
    http://dx.doi.org/10.1016/j.jcp.2009.08.008


  The high-level electronic structure method used in your calculation
  employed our efficient localized resolution of identity for the Coulomb operator.
  Some calculations, especially large-scale hybrid density functional theory,
  are only possible thanks to this development. For this feature, please cite:

    Arvid Ihrig, Juergen Wieferink, Igor Ying Zhang, Matti Ropo, Xinguo Ren,
    Patrick Rinke, Matthias Scheffler, and Volker Blum,
    'Accurate localized resolution of identity approach for linear-scaling
    hybrid density functionals and for many-body perturbation theory'
    New Journal of Physics 117, 093020 (2015).
    http://dx.doi.org/10.1088/1367-2630/17/9/093020

  Of course, there are many other important community references, e.g., those cited in the
  above references. Our list is limited to references that describe implementations in the
  FHI-aims code. The reason is purely practical (length of this list) - please credit others as well.

------------------------------------------------------------
          Leaving FHI-aims.
          Date     :  20200902, Time     :  143508.441

          Computational steps:
          | Number of self-consistency cycles          :           20
          | Number of SCF (re)initializations          :            1

          Detailed time accounting                     :  max(cpu_time)    wall_clock(cpu1)
          | Total time                                 :       50.992 s          51.221 s
          | Preparation time                           :        0.151 s           0.152 s
          | Boundary condition initalization           :        0.000 s           0.000 s
          | Grid partitioning                          :        0.110 s           0.111 s
          | Preloading free-atom quantities on grid    :        0.002 s           0.002 s
          | Free-atom superposition energy             :        0.085 s           0.085 s
          | Total time for integrations                :       10.532 s          10.550 s
          | Product basis setup: Total time            :       14.778 s          14.813 s
          | Total time evaluating exchange matrix      :        8.546 s           8.631 s
          | Total time for solution of K.-S. equations :        0.047 s           0.046 s
          | Total time for density & force components  :        8.662 s           8.672 s
          | Total time for mixing                      :        0.278 s           0.282 s
          | Total time for Hartree multipole update    :        0.174 s           0.175 s
          | Total time for Hartree multipole sum       :        6.872 s           6.885 s
          | Total time for total energy evaluation     :        0.003 s           0.003 s
          | Total time for vdW correction              :        0.436 s           0.437 s

          Partial memory accounting:
          | Residual value for overall tracked memory usage across tasks :           0.000 MB (should be 0.000 MB)
          | Peak values for overall tracked memory usage (after allocating hessian_basis_wave):
          |   Minimum:       45.122 MB (on task 1)
          |   Maximum:       45.122 MB (on task 1)
          |   Average:       45.122 MB
          | Largest tracked array allocation (ovlp3fn for atom):
          |   Minimum:        1.186 MB (on task 1)
          |   Maximum:        1.186 MB (on task 1)
          |   Average:        1.186 MB
          Note:  These values currently only include a subset of arrays which are explicitly tracked.
          The "true" memory usage will be greater.

          Have a nice day.
------------------------------------------------------------
