  MPI-parallelism will be employed.
------------------------------------------------------------
          Invoking FHI-aims ...
          Version 171221_1
          Compiled on 2019/09/09 at 14:39:39 on host puhti-login2.bullx.

          When using FHI-aims, please cite the following reference:

          Volker Blum, Ralf Gehrke, Felix Hanke, Paula Havu,
          Ville Havu, Xinguo Ren, Karsten Reuter, and Matthias Scheffler,
          'Ab Initio Molecular Simulations with Numeric Atom-Centered Orbitals',
          Computer Physics Communications 180, 2175-2196 (2009)

          For any questions about FHI-aims, please visit the aimsclub website
          with its forums and wiki. Contributions to both the forums and the
          wiki are warmly encouraged - they are for you, and everyone is welcome there.

------------------------------------------------------------



  Date     :  20200616, Time     :  093721.086
  Time zero on CPU 1             :   0.269250000000000E-01  s.
  Internal wall clock time zero  :           361532241.086  s.

  FHI-aims created a unique identifier for this run for later identification
  aims_uuid : 78D2DC04-CD7F-4CD9-A08F-B5800422147F

  Using       20 parallel tasks.
  Task        0 on host r07c53.bullx reporting.
  Task        1 on host r07c53.bullx reporting.
  Task        2 on host r07c53.bullx reporting.
  Task        3 on host r07c53.bullx reporting.
  Task        4 on host r07c53.bullx reporting.
  Task        5 on host r07c53.bullx reporting.
  Task        6 on host r07c53.bullx reporting.
  Task        7 on host r07c53.bullx reporting.
  Task        8 on host r07c53.bullx reporting.
  Task        9 on host r07c53.bullx reporting.
  Task       10 on host r07c53.bullx reporting.
  Task       11 on host r07c53.bullx reporting.
  Task       12 on host r07c53.bullx reporting.
  Task       13 on host r07c53.bullx reporting.
  Task       14 on host r07c53.bullx reporting.
  Task       15 on host r07c53.bullx reporting.
  Task       16 on host r07c53.bullx reporting.
  Task       17 on host r07c53.bullx reporting.
  Task       18 on host r07c53.bullx reporting.
  Task       19 on host r07c53.bullx reporting.

  Performing system and environment tests:
  | Environment variable OMP_NUM_THREADS correctly set to 1.
  | Stacksize not measured: no C compiler
  | Checking for scalapack...
  | Testing pdtran()...
  | All pdtran() tests passed.

  Obtaining array dimensions for all initial allocations:
  
  -----------------------------------------------------------------------
  Parsing control.in (first pass over file, find array dimensions only).
  The contents of control.in will be repeated verbatim below
  unless switched off by setting 'verbatim_writeout .false.' .
  in the first line of control.in .
  -----------------------------------------------------------------------
  
  #########################################################################################
  #
  #  Volker Blum, FHI 2009 : Test run input file control.in for simple H2O
  #
  #########################################################################################
  #
  #  Physical model
  #
    xc                 pbe0
    many_body_dispersion
    spin               none
    relativistic       none
    charge             0.
  #
  #  SCF convergence
  #
    occupation_type    gaussian 0.01
    mixer              pulay
      n_max_pulay        10
      charge_mix_param   0.2
    sc_accuracy_rho    1E-5
    sc_accuracy_eev    1E-3
    sc_accuracy_etot   1E-6
    sc_accuracy_forces 1E-4
    sc_iter_limit      100
  #
  #  Relaxation
  #
  #  relax_geometry   bfgs 1.e-3
  #
  ################################################################################
  #
  #  FHI-aims code project
  #  VB, Fritz-Haber Institut, 2009
  #
  #  Suggested "light" defaults for H atom (to be pasted into control.in file)
  #  Be sure to double-check any results obtained with these settings for post-processing,
  #  e.g., with the "tight" defaults and larger basis sets.
  #
  ################################################################################
    species        H
  #     global species definitions
      nucleus             1
      mass                1.00794
  #
      l_hartree           4
  #
      cut_pot             3.5  1.5  1.0
      basis_dep_cutoff    1e-4
  #
      radial_base         24 5.0
      radial_multiplier   1
      angular_grids       specified
        division   0.2421   50
        division   0.3822  110
        division   0.4799  194
        division   0.5341  302
  #      division   0.5626  434
  #      division   0.5922  590
  #      division   0.6542  770
  #      division   0.6868 1202
  #      outer_grid  770
        outer_grid  302
  ################################################################################
  #
  #  Definition of "minimal" basis
  #
  ################################################################################
  #     valence basis states
      valence      1  s   1.
  #     ion occupancy
      ion_occ      1  s   0.5
  ################################################################################
  #
  #  Suggested additional basis functions. For production calculations,
  #  uncomment them one after another (the most important basis functions are
  #  listed first).
  #
  #  Basis constructed for dimers: 0.5 A, 0.7 A, 1.0 A, 1.5 A, 2.5 A
  #
  ################################################################################
  #  "First tier" - improvements: -1014.90 meV to -62.69 meV
       hydro 2 s 2.1
       hydro 2 p 3.5
  #  "Second tier" - improvements: -12.89 meV to -1.83 meV
  #     hydro 1 s 0.85
  #     hydro 2 p 3.7
  #     hydro 2 s 1.2
  #     hydro 3 d 7
  #  "Third tier" - improvements: -0.25 meV to -0.12 meV
  #     hydro 4 f 11.2
  #     hydro 3 p 4.8
  #     hydro 4 d 9
  #     hydro 3 s 3.2
  ################################################################################
  #
  #  FHI-aims code project
  #  VB, Fritz-Haber Institut, 2009
  #
  #  Suggested "light" defaults for C atom (to be pasted into control.in file)
  #  Be sure to double-check any results obtained with these settings for post-processing,
  #  e.g., with the "tight" defaults and larger basis sets.
  #
  ################################################################################
    species        C
  #     global species definitions
      nucleus             6
      mass                12.0107
  #
      l_hartree           4
  #
      cut_pot             3.5  1.5  1.0
      basis_dep_cutoff    1e-4
  #
      radial_base         34 5.0
      radial_multiplier   1
      angular_grids specified
        division   0.3326   50
        division   0.5710  110
        division   0.7727  194
        division   0.8772  302
  #      division   0.9334  434
  #      division   0.9625  590
  #      division   0.9924  770
  #      division   1.0230  974
  #      division   1.4589 1202
  #     outer_grid  974
       outer_grid 302
  ################################################################################
  #
  #  Definition of "minimal" basis
  #
  ################################################################################
  #     valence basis states
      valence      2  s   2.
      valence      2  p   2.
  #     ion occupancy
      ion_occ      2  s   1.
      ion_occ      2  p   1.
  ################################################################################
  #
  #  Suggested additional basis functions. For production calculations,
  #  uncomment them one after another (the most important basis functions are
  #  listed first).
  #
  #  Constructed for dimers: 1.0 A, 1.25 A, 1.5 A, 2.0 A, 3.0 A
  #
  ################################################################################
  #  "First tier" - improvements: -1214.57 meV to -155.61 meV
       hydro 2 p 1.7
       hydro 3 d 6
       hydro 2 s 4.9
  #  "Second tier" - improvements: -67.75 meV to -5.23 meV
  #     hydro 4 f 9.8
  #     hydro 3 p 5.2
  #     hydro 3 s 4.3
  #     hydro 5 g 14.4
  #     hydro 3 d 6.2
  #  "Third tier" - improvements: -2.43 meV to -0.60 meV
  #     hydro 2 p 5.6
  #     hydro 2 s 1.4
  #     hydro 3 d 4.9
  #     hydro 4 f 11.2
  #  "Fourth tier" - improvements: -0.39 meV to -0.18 meV
  #     hydro 2 p 2.1
  #     hydro 5 g 16.4
  #     hydro 4 d 13.2
  #     hydro 3 s 13.6
  #     hydro 4 f 17.6
  #  Further basis functions - improvements: -0.08 meV and below
  #     hydro 3 s 2
  #     hydro 3 p 6
  #     hydro 4 d 20
  ################################################################################
  #
  #  FHI-aims code project
  #  VB, Fritz-Haber Institut, 2009
  #
  #  Suggested "light" defaults for N atom (to be pasted into control.in file)
  #  Be sure to double-check any results obtained with these settings for post-processing,
  #  e.g., with the "tight" defaults and larger basis sets.
  #
  ################################################################################
    species        N
  #     global species definitions
      nucleus             7
      mass                14.0067
  #
      l_hartree           4
  #
      cut_pot             3.5  1.5  1.0
      basis_dep_cutoff    1e-4
  #
      radial_base         35 5.0
      radial_multiplier   1
      angular_grids       specified
        division   0.2599   50
        division   0.4601  110
        division   0.5885  194
        division   0.6503  302
  #      division   0.6939  434
  #      division   0.7396  590
  #      division   0.7632  770
  #      division   0.8122  974
  #      division   1.1604 1202
  #      outer_grid  974
        outer_grid  302
  ################################################################################
  #
  #  Definition of "minimal" basis
  #
  ################################################################################
  #     valence basis states
      valence      2  s   2.
      valence      2  p   3.
  #     ion occupancy
      ion_occ      2  s   1.
      ion_occ      2  p   2.
  ################################################################################
  #
  #  Suggested additional basis functions. For production calculations,
  #  uncomment them one after another (the most important basis functions are
  #  listed first).
  #
  #  Constructed for dimers: 1.0 A, 1.1 A, 1.5 A, 2.0 A, 3.0 A
  #
  ################################################################################
  #  "First tier" - improvements: -1193.42 meV to -220.60 meV
       hydro 2 p 1.8
       hydro 3 d 6.8
       hydro 3 s 5.8
  #  "Second tier" - improvements: -80.21 meV to -6.86 meV
  #     hydro 4 f 10.8
  #     hydro 3 p 5.8
  #     hydro 1 s 0.8
  #     hydro 5 g 16
  #     hydro 3 d 4.9
  #  "Third tier" - improvements: -4.29 meV to -0.53 meV
  #     hydro 3 s 16
  #     ionic 2 p auto
  #     hydro 3 d 6.6
  #     hydro 4 f 11.6
  #  "Fourth tier" - improvements: -0.75 meV to -0.25 meV
  #     hydro 2 p 4.5
  #     hydro 2 s 2.4
  #     hydro 5 g 14.4
  #     hydro 4 d 14.4
  #     hydro 4 f 16.8
  # Further basis functions - -0.21 meV and below
  #     hydro 3 p 14.8
  #     hydro 3 s 4.4
  #     hydro 3 d 19.6
  #     hydro 5 g 12.8
  ################################################################################
  #
  #  FHI-aims code project
  #  VB, Fritz-Haber Institut, 2009
  #
  #  Suggested "light" defaults for O atom (to be pasted into control.in file)
  #  Be sure to double-check any results obtained with these settings for post-processing,
  #  e.g., with the "tight" defaults and larger basis sets.
  #
  ################################################################################
    species        O
  #     global species definitions
      nucleus             8
      mass                15.9994
  #
      l_hartree           4
  #
      cut_pot             3.5  1.5  1.0
      basis_dep_cutoff    1e-4
  #
      radial_base         36 5.0
      radial_multiplier   1
       angular_grids specified
        division   0.2659   50
        division   0.4451  110
        division   0.6052  194
        division   0.7543  302
  #      division   0.8014  434
  #      division   0.8507  590
  #      division   0.8762  770
  #      division   0.9023  974
  #      division   1.2339 1202
  #      outer_grid 974
        outer_grid 302
  ################################################################################
  #
  #  Definition of "minimal" basis
  #
  ################################################################################
  #     valence basis states
      valence      2  s   2.
      valence      2  p   4.
  #     ion occupancy
      ion_occ      2  s   1.
      ion_occ      2  p   3.
  ################################################################################
  #
  #  Suggested additional basis functions. For production calculations,
  #  uncomment them one after another (the most important basis functions are
  #  listed first).
  #
  #  Constructed for dimers: 1.0 A, 1.208 A, 1.5 A, 2.0 A, 3.0 A
  #
  ################################################################################
  #  "First tier" - improvements: -699.05 meV to -159.38 meV
       hydro 2 p 1.8
       hydro 3 d 7.6
       hydro 3 s 6.4
  #  "Second tier" - improvements: -49.91 meV to -5.39 meV
  #     hydro 4 f 11.6
  #     hydro 3 p 6.2
  #     hydro 3 d 5.6
  #     hydro 5 g 17.6
  #     hydro 1 s 0.75
  #  "Third tier" - improvements: -2.83 meV to -0.50 meV
  #     ionic 2 p auto
  #     hydro 4 f 10.8
  #     hydro 4 d 4.7
  #     hydro 2 s 6.8
  #  "Fourth tier" - improvements: -0.40 meV to -0.12 meV
  #     hydro 3 p 5
  #     hydro 3 s 3.3
  #     hydro 5 g 15.6
  #     hydro 4 f 17.6
  #     hydro 4 d 14
  # Further basis functions - -0.08 meV and below
  #     hydro 3 s 2.1
  #     hydro 4 d 11.6
  #     hydro 3 p 16
  #     hydro 2 s 17.2
  
  -----------------------------------------------------------------------
  Completed first pass over input file control.in .
  -----------------------------------------------------------------------
  
  
  -----------------------------------------------------------------------
  Parsing geometry.in (first pass over file, find array dimensions only).
  The contents of geometry.in will be repeated verbatim below
  unless switched off by setting 'verbatim_writeout .false.' .
  in the first line of geometry.in .
  -----------------------------------------------------------------------
  
  atom  0.00000 0.00000 0.00000 C
  atom  1.09300 0.00000 0.00000 H
  atom  -0.47961 0.00000 -1.41207 N
  atom  -0.43581 -0.95399 -1.77238 H
  atom  -1.43895 0.33971 -1.43143 H
  atom  -0.49584 1.26211 0.72868 C
  atom  0.03612 2.14511 0.36690 H
  atom  -1.56492 1.40675 0.55632 H
  atom  -0.32723 1.17245 1.80436 H
  atom  -0.39425 -1.28861 0.74398 C
  atom  -1.30152 -2.02808 0.44513 O
  atom  0.32461 -1.58635 1.77905 O
  atom  0.69619 -0.70488 1.95199 H
  
  -----------------------------------------------------------------------
  Completed first pass over input file geometry.in .
  -----------------------------------------------------------------------
  

  Basic array size parameters:
  | Number of species                 :        4
  | Number of atoms                   :       13
  | Max. basis fn. angular momentum   :        2
  | Max. atomic/ionic basis occupied n:        2
  | Max. number of basis fn. types    :        2
  | Max. radial fns per species/type  :        3
  | Max. logarithmic grid size        :     1301
  | Max. radial integration grid size :       36
  | Max. angular integration grid size:      302
  | Max. angular grid division number :        8
  | Radial grid for Hartree potential :     1301
  | Number of spin channels           :        1

------------------------------------------------------------
          Reading file control.in.
------------------------------------------------------------
  XC: Using hybrid-PBE0 functionals.
  Using the default MBD implementation with analytical forces
  Spin treatment: No spin polarisation.
  Non-relativistic treatment of kinetic energy.
  Charge =   0.000000E+00: Neutral system requested explicitly.
  Occupation type: Gaussian broadening, width =   0.100000E-01 eV.
  Using pulay charge density mixing.
  Pulay mixing - number of memorized iterations:   10
  Charge density mixing - mixing parameter:     0.2000
  Convergence accuracy of self-consistent charge density:  0.1000E-04
  Convergence accuracy of sum of eigenvalues:  0.1000E-02
  Convergence accuracy of total energy:  0.1000E-05
  Convergence accuracy of forces:  0.1000E-03
  Maximum number of s.-c. iterations  :   100
 
  Reading configuration options for species H                   .
  | Found nuclear charge :   1.0000
  | Found atomic mass :    1.00794000000000      amu
  | Found l_max for Hartree potential  :   4
  | Found cutoff potl. onset [A], width [A], scale factor :    3.50000    1.50000    1.00000
  | Threshold for basis-dependent cutoff potential is   0.100000E-03
  | Found data for basic radial integration grid :    24 points, outermost radius =    5.000 A
  | Found multiplier for basic radial grid :   1
  | Found angular grid specification: user-specified.
  | Specified grid contains     5 separate shells.
  | Check grid settings after all constraints further below.
  | Found free-atom valence shell :  1 s   1.000
  | No ionic wave fns used. Skipping ion_occ.
  | Found hydrogenic basis function :  2 s   2.100
  | Found hydrogenic basis function :  2 p   3.500
  Species H                   : Missing cutoff potential type.
  Defaulting to exp(1/x)/(1-x)^2 type cutoff potential.
  Species H : No 'logarithmic' tag. Using default grid for free atom:
  | Default logarithmic grid data [bohr] : 0.1000E-03 0.1000E+03 0.1012E+01
  Species H : On-site basis accuracy parameter (for Gram-Schmidt orthonormalisation) not specified.
  Using default value basis_acc =  0.1000000E-03.
  Species H                   : Using default innermost maximum threshold i_radial=  2 for radial functions.
  Species H                   : Default cutoff onset for free atom density etc. : 0.35000000E+01 AA.
  Species H                   : Basic radial grid will be enhanced according to radial_multiplier =   1, to contain    24 grid points.
 
  Reading configuration options for species C                   .
  | Found nuclear charge :   6.0000
  | Found atomic mass :    12.0107000000000      amu
  | Found l_max for Hartree potential  :   4
  | Found cutoff potl. onset [A], width [A], scale factor :    3.50000    1.50000    1.00000
  | Threshold for basis-dependent cutoff potential is   0.100000E-03
  | Found data for basic radial integration grid :    34 points, outermost radius =    5.000 A
  | Found multiplier for basic radial grid :   1
  | Found angular grid specification: user-specified.
  | Specified grid contains     5 separate shells.
  | Check grid settings after all constraints further below.
  | Found free-atom valence shell :  2 s   2.000
  | Found free-atom valence shell :  2 p   2.000
  | No ionic wave fns used. Skipping ion_occ.
  | No ionic wave fns used. Skipping ion_occ.
  | Found hydrogenic basis function :  2 p   1.700
  | Found hydrogenic basis function :  3 d   6.000
  | Found hydrogenic basis function :  2 s   4.900
  Species C                   : Missing cutoff potential type.
  Defaulting to exp(1/x)/(1-x)^2 type cutoff potential.
  Species C : No 'logarithmic' tag. Using default grid for free atom:
  | Default logarithmic grid data [bohr] : 0.1000E-03 0.1000E+03 0.1012E+01
  Species C : On-site basis accuracy parameter (for Gram-Schmidt orthonormalisation) not specified.
  Using default value basis_acc =  0.1000000E-03.
  Species C                   : Using default innermost maximum threshold i_radial=  2 for radial functions.
  Species C                   : Default cutoff onset for free atom density etc. : 0.35000000E+01 AA.
  Species C                   : Basic radial grid will be enhanced according to radial_multiplier =   1, to contain    34 grid points.
 
  Reading configuration options for species N                   .
  | Found nuclear charge :   7.0000
  | Found atomic mass :    14.0067000000000      amu
  | Found l_max for Hartree potential  :   4
  | Found cutoff potl. onset [A], width [A], scale factor :    3.50000    1.50000    1.00000
  | Threshold for basis-dependent cutoff potential is   0.100000E-03
  | Found data for basic radial integration grid :    35 points, outermost radius =    5.000 A
  | Found multiplier for basic radial grid :   1
  | Found angular grid specification: user-specified.
  | Specified grid contains     5 separate shells.
  | Check grid settings after all constraints further below.
  | Found free-atom valence shell :  2 s   2.000
  | Found free-atom valence shell :  2 p   3.000
  | No ionic wave fns used. Skipping ion_occ.
  | No ionic wave fns used. Skipping ion_occ.
  | Found hydrogenic basis function :  2 p   1.800
  | Found hydrogenic basis function :  3 d   6.800
  | Found hydrogenic basis function :  3 s   5.800
  Species N                   : Missing cutoff potential type.
  Defaulting to exp(1/x)/(1-x)^2 type cutoff potential.
  Species N : No 'logarithmic' tag. Using default grid for free atom:
  | Default logarithmic grid data [bohr] : 0.1000E-03 0.1000E+03 0.1012E+01
  Species N : On-site basis accuracy parameter (for Gram-Schmidt orthonormalisation) not specified.
  Using default value basis_acc =  0.1000000E-03.
  Species N                   : Using default innermost maximum threshold i_radial=  2 for radial functions.
  Species N                   : Default cutoff onset for free atom density etc. : 0.35000000E+01 AA.
  Species N                   : Basic radial grid will be enhanced according to radial_multiplier =   1, to contain    35 grid points.
 
  Reading configuration options for species O                   .
  | Found nuclear charge :   8.0000
  | Found atomic mass :    15.9994000000000      amu
  | Found l_max for Hartree potential  :   4
  | Found cutoff potl. onset [A], width [A], scale factor :    3.50000    1.50000    1.00000
  | Threshold for basis-dependent cutoff potential is   0.100000E-03
  | Found data for basic radial integration grid :    36 points, outermost radius =    5.000 A
  | Found multiplier for basic radial grid :   1
  | Found angular grid specification: user-specified.
  | Specified grid contains     5 separate shells.
  | Check grid settings after all constraints further below.
  | Found free-atom valence shell :  2 s   2.000
  | Found free-atom valence shell :  2 p   4.000
  | No ionic wave fns used. Skipping ion_occ.
  | No ionic wave fns used. Skipping ion_occ.
  | Found hydrogenic basis function :  2 p   1.800
  | Found hydrogenic basis function :  3 d   7.600
  | Found hydrogenic basis function :  3 s   6.400
  Species O                   : Missing cutoff potential type.
  Defaulting to exp(1/x)/(1-x)^2 type cutoff potential.
  Species O : No 'logarithmic' tag. Using default grid for free atom:
  | Default logarithmic grid data [bohr] : 0.1000E-03 0.1000E+03 0.1012E+01
  Species O : On-site basis accuracy parameter (for Gram-Schmidt orthonormalisation) not specified.
  Using default value basis_acc =  0.1000000E-03.
  Species O                   : Using default innermost maximum threshold i_radial=  2 for radial functions.
  Species O                   : Default cutoff onset for free atom density etc. : 0.35000000E+01 AA.
  Species O                   : Basic radial grid will be enhanced according to radial_multiplier =   1, to contain    36 grid points.
 
  Finished reading input file 'control.in'. Consistency checks are next.
 
  MPI_IN_PLACE appears to work with this MPI implementation.
  | Keeping use_mpi_in_place .true. (see manual).
  Explicit treatment of the Coulomb operator is needed, but the RI method is not specified.
  Coulomb operator: Defaulting to 'LVL fast' resolution of identity - RI_type = LVL_fast 
  Species H: Using default value for prodbas_acc =   1.000000E-04.
  Species H: Using default value max_l_prodbas =    20.
  Explicit treatment of the Coulomb operator is needed, but the RI method is not specified.
  Coulomb operator: Defaulting to 'LVL fast' resolution of identity - RI_type = LVL_fast 
  Species C: Using default value for prodbas_acc =   1.000000E-04.
  Species C: Using default value max_l_prodbas =    20.
  Explicit treatment of the Coulomb operator is needed, but the RI method is not specified.
  Coulomb operator: Defaulting to 'LVL fast' resolution of identity - RI_type = LVL_fast 
  Species N: Using default value for prodbas_acc =   1.000000E-04.
  Species N: Using default value max_l_prodbas =    20.
  Explicit treatment of the Coulomb operator is needed, but the RI method is not specified.
  Coulomb operator: Defaulting to 'LVL fast' resolution of identity - RI_type = LVL_fast 
  Species O: Using default value for prodbas_acc =   1.000000E-04.
  Species O: Using default value max_l_prodbas =    20.
  Target number of points in a grid batch is not set. Defaulting to  100
  Method for grid partitioning is not set. Defaulting to parallel hash+maxmin partitioning.
  Batch size limit is not set. Defaulting to    200
  By default, will store active basis functions for each batch.
  If in need of memory, prune_basis_once .false. can be used to disable this option.
  communication_type for Hartree potential was not specified.
  Defaulting to calc_hartree .
  Pulay mixer: Number of initial linear mixing iterations not set.
  Defaulting to    0 iterations.
  Work space size for distributed Hartree potential not set.
  Defaulting to   0.200000E+03 MB.
  Algorithm-dependent basis array size parameters:
  | n_max_pulay                         :       10
  Presetting      1001 iterations before the initial mixing cycle
  is restarted anyway using the sc_init_iter criterion / keyword.
  Presetting a factor      1.000 between actual scf density residual
  and density convergence criterion sc_accuracy_rho below which sc_init_iter
  takes no effect.
  Geometry relaxation not requested: no relaxation will be performed.
  Handling of forces: Unphysical translation and rotation will be removed from forces.
  No accuracy limit for integral partition fn. given. Defaulting to  0.1000E-14.
  No threshold value for u(r) in integrations given. Defaulting to  0.1000E-05.
  No accuracy for occupation numbers given. Defaulting to  0.1000E-12.
  No threshold value for occupation numbers given. Defaulting to  0.0000E+00.
  No accuracy for fermi level given. Defaulting to  0.1000E-19.
  Maximum # of iterations to find E_F not set. Defaulting to  200.
  Preferred method for the eigenvalue solver ('KS_method') not specified in 'control.in'.
  Calling BLACS routine to test compilation state
  Since ScaLAPACK support is enabled, defaulting to 'elsi'.
  Will not use alltoall communication since running on < 1024 CPUs.
  Threshold for basis singularities not set.
  Default threshold for basis singularities:  0.1000E-04
  partition_type (choice of integration weights) for integrals was not specified.
  | Using a version of the partition function of Stratmann and coworkers ('stratmann_smoother').
  | At each grid point, the set of atoms used to build the partition table is smoothly restricted to
  | only those atoms whose free-atom density would be non-zero at that grid point.
  Partitioning for Hartree potential was not defined. Using partition_type for integrals.
  | Adjusted default value of keyword multip_moments_threshold to:       0.10000000E-11
  | This value may affect high angular momentum components of the Hartree potential in periodic systems.
  Threshold for auxiliary basis singularities not set.
  Default threshold for auxiliary basis singularities:  0.1000E-04
  No q(lm)/r^(l+1) cutoff set for long-range Hartree potential.
  | Using default value of  0.100000E-09 .
  | Verify using the multipole_threshold keyword.
  Defaulting to new monopole extrapolation.
  Density update method: automatic selection selected.
  Coulomb operator: Defaulting to screening threshold for four-center integrals:   0.100000E-06
  Coulomb operator: Defaulting to screening threshold for Coulomb matrix:   0.100000E-09
  Coulomb operator: Defaulting to 'LVL_fast' resolution of identity - RI_type = LVL_fast 
  No other resolution of identity version is supported for periodic boundary conditions at present.
  Coulomb operator: Defaulting to logarithmic spherical Bessel transform integrals (use_logsbt .true.).
  LVL not implemented with density matrix yet
  -> switching to transformed overlap
  LVL probably works better with logsbt
  Default to 1D ("use_logsbt") integrations for auxiliary 2-center integrals.
  Default onset of logarithmic r-grid for SBT is-38.000000000000
  Default onset of logarithmic k-grid for SBT is-25.000000000000
  Default range of logarithmic r- and k-grid for SBT is 45.000000000000
  Default number of logarithmic r- and k-grid for SBT is  4096
  Default of use_2d_corr is to use the efficient 2D distribution where possible
------------------------------------------------------------


------------------------------------------------------------
          Reading geometry description geometry.in.
------------------------------------------------------------
  Input structure read successfully.
  The structure contains       13 atoms,  and a total of         48.000 electrons.

  Input geometry:
  | No unit cell requested.
  | Atomic structure:
  |       Atom                x [A]            y [A]            z [A]
  |    1: Species C             0.00000000        0.00000000        0.00000000
  |    2: Species H             1.09300000        0.00000000        0.00000000
  |    3: Species N            -0.47961000        0.00000000       -1.41207000
  |    4: Species H            -0.43581000       -0.95399000       -1.77238000
  |    5: Species H            -1.43895000        0.33971000       -1.43143000
  |    6: Species C            -0.49584000        1.26211000        0.72868000
  |    7: Species H             0.03612000        2.14511000        0.36690000
  |    8: Species H            -1.56492000        1.40675000        0.55632000
  |    9: Species H            -0.32723000        1.17245000        1.80436000
  |   10: Species C            -0.39425000       -1.28861000        0.74398000
  |   11: Species O            -1.30152000       -2.02808000        0.44513000
  |   12: Species O             0.32461000       -1.58635000        1.77905000
  |   13: Species H             0.69619000       -0.70488000        1.95199000
  |

  | The smallest distance between any two atoms is         0.97209531 AA.
  |
  | The first atom of this pair is atom number                     12 .
  | The second atom of this pair is atom number                    13 .

  Number of empty states per atom not set in control.in - providing a guess from actual geometry.
  | Total number of empty states used during s.c.f. cycle:       29
  If you use a very high smearing, use empty_states (per atom!) in control.in to increase this value.

  Structure-dependent array size parameters: 
  | Maximum number of distinct radial functions  :       21
  | Maximum number of basis functions            :      119
  | Number of Kohn-Sham states (occupied + empty):       53
------------------------------------------------------------
  Setting Coulomb cut-width to  1.091868692359 * rcut.
  Setting Coulomb cutting radius rcut to  8.000000000000 A.

------------------------------------------------------------
          Preparing all fixed parts of the calculation.
------------------------------------------------------------
  Determining machine precision:
    2.225073858507201E-308
  Setting up grids for atomic and cluster calculations.

  Creating wave function, potential, and density for free atoms.

  Species: H

  List of occupied orbitals and eigenvalues:
    n    l              occ      energy [Ha]    energy [eV]
    1    0           1.0000        -0.237589        -6.4651


  Species: C

  List of occupied orbitals and eigenvalues:
    n    l              occ      energy [Ha]    energy [eV]
    1    0           2.0000       -10.038835      -273.1706
    2    0           2.0000        -0.502696       -13.6791
    2    1           2.0000        -0.191971        -5.2238


  Species: N

  List of occupied orbitals and eigenvalues:
    n    l              occ      energy [Ha]    energy [eV]
    1    0           2.0000       -14.128000      -384.4424
    2    0           2.0000        -0.681077       -18.5330
    2    1           3.0000        -0.259788        -7.0692


  Species: O

  List of occupied orbitals and eigenvalues:
    n    l              occ      energy [Ha]    energy [eV]
    1    0           2.0000       -18.898188      -514.2459
    2    0           2.0000        -0.878505       -23.9053
    2    1           4.0000        -0.331779        -9.0282

  Creating fixed part of basis set: Ionic, confined, hydrogenic.
 
  H                    hydrogenic:
 
  List of hydrogenic basis orbitals: 
    n    l      effective z      eigenvalue [eV]  inner max. [A]     outer max. [A]     outer radius [A]   
    2    0         2.100000       -14.9728           0.193243           1.317208           4.583499
    2    1         3.500000       -41.6669           0.602369           0.602369           3.723403
 
 
  C                    hydrogenic:
 
  List of hydrogenic basis orbitals: 
    n    l      effective z      eigenvalue [eV]  inner max. [A]     outer max. [A]     outer radius [A]   
    2    1         1.700000        -9.7616           1.230570           1.230570           4.607917
    3    2         6.000000       -54.4224           0.792453           0.792453           3.883070
    2    0         4.900000       -81.6679           0.082559           0.562749           3.078220
 
 
  N                    hydrogenic:
 
  List of hydrogenic basis orbitals: 
    n    l      effective z      eigenvalue [eV]  inner max. [A]     outer max. [A]     outer radius [A]   
    2    1         1.800000       -10.9749           1.177451           1.177451           4.573712
    3    2         6.800000       -69.9026           0.704619           0.704619           3.538137
    3    0         5.800000       -50.8545           0.067388           1.191934           4.250239
 
 
  O                    hydrogenic:
 
  List of hydrogenic basis orbitals: 
    n    l      effective z      eigenvalue [eV]  inner max. [A]     outer max. [A]     outer radius [A]   
    2    1         1.800000       -10.9749           1.164242           1.164242           4.578029
    3    2         7.600000       -87.3180           0.624125           0.624125           3.251020
    3    0         6.400000       -61.9207           0.061167           1.081902           4.001998
 

  Adding cutoff potential to free-atom effective potential.
  Creating atomic-like basis functions for current effective potential.

  Species H                   :

  List of atomic basis orbitals and eigenvalues:
    n    l      energy [Ha]    energy [eV]    outer radius [A]
    1    0        -0.237589        -6.4651       4.527807


  Species C                   :

  List of atomic basis orbitals and eigenvalues:
    n    l      energy [Ha]    energy [eV]    outer radius [A]
    1    0       -10.038835      -273.1706       1.934409
    2    0        -0.502696       -13.6791       4.496620
    2    1        -0.191971        -5.2238       4.551928


  Species N                   :

  List of atomic basis orbitals and eigenvalues:
    n    l      energy [Ha]    energy [eV]    outer radius [A]
    1    0       -14.128000      -384.4424       1.637919
    2    0        -0.681077       -18.5330       4.463241
    2    1        -0.259788        -7.0692       4.518138


  Species O                   :

  List of atomic basis orbitals and eigenvalues:
    n    l      energy [Ha]    energy [eV]    outer radius [A]
    1    0       -18.898188      -514.2459       1.415765
    2    0        -0.878505       -23.9053       4.413171
    2    1        -0.331779        -9.0282       4.522403

  Assembling full basis from fixed parts.
  | Species H :   atomic orbital   1 s accepted.
  | Species H :    hydro orbital   2 s accepted.
  | Species H :    hydro orbital   2 p accepted.
  | Species C :   atomic orbital   1 s accepted.
  | Species C :    hydro orbital   2 s accepted.
  | Species C :   atomic orbital   2 s accepted.
  | Species C :   atomic orbital   2 p accepted.
  | Species C :    hydro orbital   2 p accepted.
  | Species C :    hydro orbital   3 d accepted.
  | Species N :   atomic orbital   1 s accepted.
  | Species N :    hydro orbital   3 s accepted.
  | Species N :   atomic orbital   2 s accepted.
  | Species N :   atomic orbital   2 p accepted.
  | Species N :    hydro orbital   2 p accepted.
  | Species N :    hydro orbital   3 d accepted.
  | Species O :   atomic orbital   1 s accepted.
  | Species O :    hydro orbital   3 s accepted.
  | Species O :   atomic orbital   2 s accepted.
  | Species O :   atomic orbital   2 p accepted.
  | Species O :    hydro orbital   2 p accepted.
  | Species O :    hydro orbital   3 d accepted.
 
  Basis size parameters after reduction:
  | Total number of radial functions:       21
  | Total number of basis functions :      119
 
  Per-task memory consumption for arrays in subroutine allocate_ext:
  |           5.250512MB.
  Testing on-site integration grid accuracy.
  |  Species  Function  <phi|h_atom|phi> (log., in eV)  <phi|h_atom|phi> (rad., in eV)
           1        1                 -6.4663192853                 -6.4651273558
           1        2                 13.7111246313                 13.7170609718
           1        3                 25.2673269279                 25.2674696378
           2        4               -273.1705927641               -273.1705631568
           2        5                -10.7109323383                -10.7107120029
           2        6                 17.4381822266                 17.4352413244
           2        7                 -5.2255326521                 -5.2270484734
           2        8                  8.6835629259                  8.6603288385
           2        9                 27.4952418996                 27.4953360207
           3       10               -384.4424306495               -384.4423701208
           3       11                 12.5842251816                 12.5842222903
           3       12                -15.7264628251                -15.7264433455
           3       13                 -7.0696854293                 -7.0701769954
           3       14                  8.8090390882                  8.7901077751
           3       15                 35.9586762123                 35.9588528632
           4       16               -514.2458688638               -514.2457643834
           4       17                 15.1795651126                 15.1795290741
           4       18                -21.5359799773                -21.5360846186
           4       19                 -9.0283069236                 -9.0284644067
           4       20                  8.3027758564                  8.2834874195
           4       21                 45.8339351984                 45.8338762259

  Preparing densities etc. for the partition functions (integrals / Hartree potential).

  Preparations completed.
  max(cpu_time)          :      0.165 s.
  Wall clock time (cpu1) :      0.167 s.
------------------------------------------------------------

------------------------------------------------------------
          Begin self-consistency loop: Initialization.

          Date     :  20200616, Time     :  093721.291
------------------------------------------------------------

  Initializing index lists of integration centers etc. from given atomic structure:
  | Number of centers in hartree potential         :        13
  | Number of centers in hartree multipole         :        13
  | Number of centers in electron density summation:        13
  | Number of centers in basis integrals           :        13
  | Number of centers in integrals                 :        13
  | Number of centers in hamiltonian               :        13
  * Using 20 tasks for Scalapack Eigenvalue solver.
  Detailed listing of tasks and assigned k-points:
  (for non-periodic systems, the "k-point" denotes an internal label only)
   Task     0 k-point     1 on r07c53.bullx
   Task     1 k-point     1 on r07c53.bullx
   Task     2 k-point     1 on r07c53.bullx
   Task     3 k-point     1 on r07c53.bullx
   Task     4 k-point     1 on r07c53.bullx
   Task     5 k-point     1 on r07c53.bullx
   Task     6 k-point     1 on r07c53.bullx
   Task     7 k-point     1 on r07c53.bullx
   Task     8 k-point     1 on r07c53.bullx
   Task     9 k-point     1 on r07c53.bullx
   Task    10 k-point     1 on r07c53.bullx
   Task    11 k-point     1 on r07c53.bullx
   Task    12 k-point     1 on r07c53.bullx
   Task    13 k-point     1 on r07c53.bullx
   Task    14 k-point     1 on r07c53.bullx
   Task    15 k-point     1 on r07c53.bullx
   Task    16 k-point     1 on r07c53.bullx
   Task    17 k-point     1 on r07c53.bullx
   Task    18 k-point     1 on r07c53.bullx
   Task    19 k-point     1 on r07c53.bullx
  Tasks:    20 split into      5 X      4 BLACS grid
  Calculating block size based on n_basis =          119  max_nprow =            5  max_npcol =            4
  ScaLAPACK block size set to:           16
  Allocating        0.008 MB for ovlp
  Allocating        0.008 MB for ham
  Allocating        0.008 MB for eigenvec
  Required Scalapack workspace - INTEGER:            1  REAL:             1
  Partitioning the integration grid into batches with parallel hashing+maxmin method.
  | Number of batches:      869
  | Maximal batch size:     199
  | Minimal batch size:      51
  | Average batch size:      80.145
  | Standard deviation of batch sizes:      19.574

  Integration load balanced across    20 MPI tasks.
  Work distribution over tasks is as follows:
  Task     0 has       3448 integration points.
  Task     1 has       3445 integration points.
  Task     2 has       3464 integration points.
  Task     3 has       3449 integration points.
  Task     4 has       3531 integration points.
  Task     5 has       3440 integration points.
  Task     6 has       3467 integration points.
  Task     7 has       3463 integration points.
  Task     8 has       3442 integration points.
  Task     9 has       3458 integration points.
  Task    10 has       3528 integration points.
  Task    11 has       3461 integration points.
  Task    12 has       3469 integration points.
  Task    13 has       3440 integration points.
  Task    14 has       3607 integration points.
  Task    15 has       3454 integration points.
  Task    16 has       3489 integration points.
  Task    17 has       3482 integration points.
  Task    18 has       3533 integration points.
  Task    19 has       3576 integration points.
  Initializing partition tables, free-atom densities, potentials, etc. across the integration grid (initialize_grid_storage).
  | initialize_grid_storage: Actual outermost partition radius vs. multipole_radius_free
  | (-- VB: in principle, multipole_radius_free should be larger, hence this output)
  | Species        1: Confinement radius =              4.999999999999999 AA, multipole_radius_free =              5.054417573612229 AA.
  | Species        1: outer_partition_radius set to              5.054417573612229 AA .
  | Species        2: Confinement radius =              4.999999999999999 AA, multipole_radius_free =              5.019602836301480 AA.
  | Species        2: outer_partition_radius set to              5.019602836301480 AA .
  | Species        3: Confinement radius =              4.999999999999999 AA, multipole_radius_free =              5.043624274424571 AA.
  | Species        3: outer_partition_radius set to              5.043624274424571 AA .
  | Species        4: Confinement radius =              4.999999999999999 AA, multipole_radius_free =              5.048384829883283 AA.
  | Species        4: outer_partition_radius set to              5.048384829883283 AA .
  | Original list of interatomic distances with          13 x         13 entries is created.
  | Net number of integration points:    69646
  | of which are non-zero points    :    59393
  Renormalizing the initial density to the exact electron count on the 3D integration grid.
  | Initial density: Formal number of electrons (from input files) :      48.0000000000
  | Integrated number of electrons on 3D grid     :      48.0000841675
  | Charge integration error                      :       0.0000841675
  | Normalization factor for density and gradient :       0.9999982465
  Obtaining max. number of non-zero basis functions in each batch (get_n_compute_maxes).
  | Maximal number of non-zero basis functions:      118 in task     0
  | Maximal number of non-zero basis functions:      119 in task     1
  | Maximal number of non-zero basis functions:      118 in task     2
  | Maximal number of non-zero basis functions:      118 in task     3
  | Maximal number of non-zero basis functions:      118 in task     4
  | Maximal number of non-zero basis functions:      118 in task     5
  | Maximal number of non-zero basis functions:      118 in task     6
  | Maximal number of non-zero basis functions:      119 in task     7
  | Maximal number of non-zero basis functions:      118 in task     8
  | Maximal number of non-zero basis functions:      117 in task     9
  | Maximal number of non-zero basis functions:      118 in task    10
  | Maximal number of non-zero basis functions:      117 in task    11
  | Maximal number of non-zero basis functions:      118 in task    12
  | Maximal number of non-zero basis functions:      118 in task    13
  | Maximal number of non-zero basis functions:      118 in task    14
  | Maximal number of non-zero basis functions:      118 in task    15
  | Maximal number of non-zero basis functions:      117 in task    16
  | Maximal number of non-zero basis functions:      119 in task    17
  | Maximal number of non-zero basis functions:      118 in task    18
  | Maximal number of non-zero basis functions:      118 in task    19
  Selecting the method for density update.
  Loop over occupied states selected for charge density update.
  Allocating        0.050 MB for KS_eigenvector
  Integrating Hamiltonian matrix: batch-based integration.
  Time summed over all CPUs for integration: real work        0.521 s, elapsed        0.563 s
  Integrating overlap matrix.
  Time summed over all CPUs for integration: real work        0.217 s, elapsed        0.234 s
  Deallocating overlap matrix.

  Updating Kohn-Sham eigenvalues and eigenvectors using ELSI and the ELPA eigensolver.
  ELPA settings:
  | ELPA solver          1
  | Time full => band           :     0.001 s
  | Time band => tridiagonal    :     0.001 s
  | Time solve tridiagonal      :     0.001 s
  Overlap matrix is nonsingular
  | Lowest eigenvalue of overlap  :  0.47E-02
  | Highest eigenvalue of overlap :  0.63E+01
  Finished singularity check of overlap matrix
  | Time :     0.003 s
  Finished Cholesky decomposition
  | Time :     0.001 s
  Finished transformation to standard eigenproblem
  | Time :     0.001 s
  Starting ELPA eigensolver
  | Time full => tridiagonal    :     0.002 s
  | Time solve tridiagonal      :     0.000 s
  | Time ev tridiagonal => full :     0.000 s
  Finished solving standard eigenproblem
  | Time :     0.003 s
  Finished back-transformation of eigenvectors
  | Time :     0.000 s

  Obtaining occupation numbers and chemical potential using ELSI.
  | Chemical potential (Fermi level):    -9.55762442eV
  Writing Kohn-Sham eigenvalues.

  State    Occupation    Eigenvalue [Ha]    Eigenvalue [eV]
      1       2.00000         -19.007605         -517.22326
      2       2.00000         -18.977172         -516.39511
      3       2.00000         -14.245752         -387.64663
      4       2.00000         -10.166909         -276.65567
      5       2.00000         -10.141939         -275.97620
      6       2.00000         -10.132107         -275.70867
      7       2.00000          -1.181461          -32.14919
      8       2.00000          -1.101225          -29.96587
      9       2.00000          -0.991033          -26.96739
     10       2.00000          -0.861455          -23.44139
     11       2.00000          -0.753876          -20.51401
     12       2.00000          -0.679805          -18.49843
     13       2.00000          -0.634610          -17.26862
     14       2.00000          -0.616232          -16.76853
     15       2.00000          -0.584425          -15.90301
     16       2.00000          -0.555667          -15.12048
     17       2.00000          -0.545019          -14.83073
     18       2.00000          -0.533213          -14.50946
     19       2.00000          -0.514746          -14.00696
     20       2.00000          -0.496332          -13.50589
     21       2.00000          -0.481638          -13.10605
     22       2.00000          -0.430847          -11.72395
     23       2.00000          -0.408986          -11.12908
     24       2.00000          -0.384086          -10.45151
     25       0.00000          -0.152872           -4.15986
     26       0.00000          -0.063489           -1.72761
     27       0.00000          -0.048543           -1.32092
     28       0.00000          -0.018180           -0.49471
     29       0.00000          -0.002310           -0.06285
     30       0.00000           0.012186            0.33159
     31       0.00000           0.018642            0.50726
     32       0.00000           0.037694            1.02571
     33       0.00000           0.050232            1.36688
     34       0.00000           0.082493            2.24476
     35       0.00000           0.094052            2.55929
     36       0.00000           0.135486            3.68677
     37       0.00000           0.158095            4.30199
     38       0.00000           0.194970            5.30541
     39       0.00000           0.225277            6.13010
     40       0.00000           0.230783            6.27992
     41       0.00000           0.243850            6.63549
     42       0.00000           0.257423            7.00484
     43       0.00000           0.284320            7.73674
     44       0.00000           0.308890            8.40533
     45       0.00000           0.325403            8.85468
     46       0.00000           0.342405            9.31732
     47       0.00000           0.369001           10.04102
     48       0.00000           0.400884           10.90861
     49       0.00000           0.436077           11.86626
     50       0.00000           0.454913           12.37881
     51       0.00000           0.479116           13.03741
     52       0.00000           0.547204           14.89018
     53       0.00000           0.566290           15.40954

  Highest occupied state (VBM) at    -10.45150841 eV
  | Occupation number:      2.00000000

  Lowest unoccupied state (CBM) at    -4.15985959 eV
  | Occupation number:      0.00000000

  Overall HOMO-LUMO gap:      6.29164881 eV.
  Calculating total energy contributions from superposition of free atom densities.

  Total energy components:
  | Sum of eigenvalues            :        -188.85228654 Ha       -5138.93218284 eV
  | XC energy correction          :         -41.79600278 Ha       -1137.32710227 eV
  | XC potential correction       :          53.73007370 Ha        1462.06969471 eV
  | Free-atom electrostatic energy:        -146.84526827 Ha       -3995.86305689 eV
  | Hartree energy correction     :           0.00000000 Ha           0.00000000 eV
  | Entropy correction            :           0.00000000 Ha           0.00000000 eV
  | ---------------------------
  | Total energy                  :        -323.76348389 Ha       -8810.05264729 eV
  | Total energy, T -> 0          :        -323.76348389 Ha       -8810.05264729 eV  <-- do not rely on this value for anything but (periodic) metals
  | Electronic free energy        :        -323.76348389 Ha       -8810.05264729 eV

  Derived energy quantities:
  | Kinetic energy                :         320.50660482 Ha        8721.42845857 eV
  | Electrostatic energy          :        -602.47408593 Ha      -16394.15400359 eV
  | Energy correction for multipole
  | error in Hartree potential    :           0.00000000 Ha           0.00000000 eV
  | Sum of eigenvalues per atom                           :        -395.30247560 eV
  | Total energy (T->0) per atom                          :        -677.69635748 eV  <-- do not rely on this value for anything but (periodic) metals
  | Electronic free energy per atom                       :        -677.69635748 eV
  
  --------------------------------------------
  Constructing auxiliary basis (full product) ...
  
  Product basis:
  | charge radius: extent of product basis function
  | field radius: extent of its Coulomb potential
  | Species   l  charge radius    field radius  multipol momen
  |    H      1     3.910002 A      3.910002 A       -8.637898E-17 a.u.
  |    H      1     3.958095 A      3.958095 A        5.444185E-18 a.u.
  |    H      0     4.527807 A      4.527807 A        1.857189E-16 a.u.
  |    H      0     4.527807 A      4.583499 A       -4.742363E-16 a.u.
  |    H      0     4.527807 A      4.583499 A        1.511233E-16 a.u.
  |    H      2     3.678162 A  1.011968E+04 A            0.556529 a.u.
  |    H      1     3.958095 A  1.722617E+06 A            0.843268 a.u.
  |    H      0     4.527807 A  3.861131E+12 A            0.580635 a.u.
  |    C      0     2.562483 A      2.562483 A       -2.138868E-17 a.u.
  |    C      0     3.003870 A      3.003870 A       -2.366590E-16 a.u.
  |    C      0     3.003870 A      3.003870 A       -1.564494E-16 a.u.
  |    C      1     3.272245 A      3.272245 A        4.012921E-17 a.u.
  |    C      0     3.312494 A      3.312494 A        3.019301E-17 a.u.
  |    C      3     4.077671 A      4.077671 A        2.357139E-15 a.u.
  |    C      3     4.077671 A      4.077671 A       -2.191957E-15 a.u.
  |    C      1     4.496620 A      4.496620 A        1.978738E-16 a.u.
  |    C      0     4.496620 A      4.551928 A        6.453419E-16 a.u.
  |    C      2     4.551928 A      4.551928 A       -2.693861E-18 a.u.
  |    C      2     4.551928 A      4.551928 A       -9.212639E-16 a.u.
  |    C      2     4.551928 A      4.551928 A       -2.154936E-16 a.u.
  |    C      2     4.551928 A      4.551928 A       -7.280175E-16 a.u.
  |    C      0     4.551928 A      4.607917 A       -1.995377E-17 a.u.
  |    C      1     4.551928 A      4.607917 A       -1.059660E-16 a.u.
  |    C      1     4.551928 A      4.607917 A        2.862884E-16 a.u.
  |    C      1     4.607917 A      4.607917 A       -2.311442E-16 a.u.
  |    C      2     4.607917 A      4.607917 A        1.710533E-15 a.u.
  |    C      0     4.607917 A      4.664595 A        1.616681E-16 a.u.
  |    C      4     3.835889 A  2.962973E+02 A            4.379483 a.u.
  |    C      3     4.127827 A  1.728652E+03 A            9.061838 a.u.
  |    C      2     4.607917 A  2.473919E+04 A            8.130983 a.u.
  |    C      1     4.607917 A  2.511222E+06 A            1.792083 a.u.
  |    C      0     4.607917 A  4.248934E+12 A            0.638953 a.u.
  |    N      0     2.334858 A      2.334858 A       -1.253478E-16 a.u.
  |    N      3     3.761152 A      3.761152 A        9.033571E-16 a.u.
  |    N      3     3.761152 A      3.761152 A        1.070001E-15 a.u.
  |    N      0     4.198596 A      4.198596 A        2.842254E-16 a.u.
  |    N      0     4.198596 A      4.198596 A       -8.391597E-17 a.u.
  |    N      0     4.302517 A      4.302517 A       -6.361074E-17 a.u.
  |    N      1     4.302517 A      4.302517 A        6.508147E-17 a.u.
  |    N      0     4.409010 A      4.409010 A        3.012764E-16 a.u.
  |    N      1     4.463241 A      4.463241 A        1.251412E-16 a.u.
  |    N      2     4.518138 A      4.518138 A        6.542091E-16 a.u.
  |    N      1     4.518138 A      4.573712 A        6.274397E-17 a.u.
  |    N      1     4.573712 A      4.573712 A       -2.855156E-17 a.u.
  |    N      2     4.573712 A      4.573712 A       -1.160557E-15 a.u.
  |    N      2     4.573712 A      4.573712 A        5.995218E-16 a.u.
  |    N      2     4.573712 A      4.573712 A       -1.004528E-16 a.u.
  |    N      0     4.573712 A      4.629968 A        2.338215E-16 a.u.
  |    N      0     4.573712 A      4.629968 A        1.736370E-16 a.u.
  |    N      1     4.573712 A      4.629968 A        7.247547E-16 a.u.
  |    N      1     4.573712 A      4.629968 A        7.544402E-17 a.u.
  |    N      2     4.573712 A      4.629968 A       -2.369227E-15 a.u.
  |    N      4     3.495147 A  2.647627E+02 A            2.494988 a.u.
  |    N      3     3.807414 A  1.563407E+03 A            6.062801 a.u.
  |    N      2     4.573712 A  2.408066E+04 A            7.498801 a.u.
  |    N      1     4.573712 A  2.550503E+06 A            1.848585 a.u.
  |    N      0     4.573712 A  4.174725E+12 A            0.627794 a.u.
  |    O      0     2.043000 A      2.043000 A       -6.504041E-17 a.u.
  |    O      3     3.498446 A      3.498446 A        5.299668E-17 a.u.
  |    O      3     3.498446 A      3.498446 A       -6.746408E-17 a.u.
  |    O      0     3.905335 A      3.905335 A       -8.038405E-17 a.u.
  |    O      0     3.905335 A      3.905335 A        1.060111E-16 a.u.
  |    O      0     4.101052 A      4.101052 A        2.388574E-16 a.u.
  |    O      1     4.101052 A      4.101052 A       -6.369117E-17 a.u.
  |    O      0     4.359549 A      4.359549 A        3.605031E-18 a.u.
  |    O      1     4.413171 A      4.413171 A       -4.013949E-17 a.u.
  |    O      1     4.522403 A      4.522403 A       -3.476450E-16 a.u.
  |    O      1     4.522403 A      4.522403 A        4.075594E-16 a.u.
  |    O      2     4.522403 A      4.522403 A       -3.352378E-16 a.u.
  |    O      0     4.578029 A      4.578029 A       -3.822280E-16 a.u.
  |    O      1     4.578029 A      4.578029 A        1.755984E-16 a.u.
  |    O      2     4.578029 A      4.578029 A        6.729708E-16 a.u.
  |    O      2     4.522403 A      4.578029 A       -8.807366E-16 a.u.
  |    O      2     4.578029 A      4.578029 A       -1.384576E-15 a.u.
  |    O      2     4.578029 A      4.578029 A        9.488087E-16 a.u.
  |    O      0     4.578029 A      4.634338 A       -3.034683E-16 a.u.
  |    O      1     4.578029 A      4.634338 A        5.717587E-16 a.u.
  |    O      4     3.251020 A  2.395699E+02 A            1.513372 a.u.
  |    O      3     3.541477 A  1.435492E+03 A            4.309127 a.u.
  |    O      2     4.578029 A  2.336164E+04 A            6.846944 a.u.
  |    O      1     4.578029 A  2.655459E+06 A            2.003859 a.u.
  |    O      0     4.578029 A  4.136183E+12 A            0.621998 a.u.

  | Shrink_full_auxil_basis : there are       82  radial auxiliary wave functions
                            accepted and      31 rejected.
  | Shrink_full_auxil_basis : there are totally                 651 partial auxiliary wave functions.
  prodbas_tasks_distribution_pbc not up to date - distributing tasks.
 
  | Maximal number of product basis functions per thread :    43    43
 
  | Number of local auxiliary basis funcs on node     0 :     43
  | Number of local auxiliary basis funcs on node     1 :     32
  | Number of local auxiliary basis funcs on node     2 :     32
  | Number of local auxiliary basis funcs on node     3 :     32
  | Number of local auxiliary basis funcs on node     4 :     32
  | Number of local auxiliary basis funcs on node     5 :     32
  | Number of local auxiliary basis funcs on node     6 :     32
  | Number of local auxiliary basis funcs on node     7 :     32
  | Number of local auxiliary basis funcs on node     8 :     32
  | Number of local auxiliary basis funcs on node     9 :     32
  | Number of local auxiliary basis funcs on node    10 :     32
  | Number of local auxiliary basis funcs on node    11 :     32
  | Number of local auxiliary basis funcs on node    12 :     32
  | Number of local auxiliary basis funcs on node    13 :     32
  | Number of local auxiliary basis funcs on node    14 :     32
  | Number of local auxiliary basis funcs on node    15 :     32
  | Number of local auxiliary basis funcs on node    16 :     32
  | Number of local auxiliary basis funcs on node    17 :     32
  | Number of local auxiliary basis funcs on node    18 :     32
  | Number of local auxiliary basis funcs on node    19 :     32
  Parallel distribution of product basis not up to date - distributing tasks.
 
  | Maximal number of product basis functions per thread :    43    43
 
  | Minimal total memory requirement for three-center overlap :       0.054 Gbs
  | Number of local auxiliary basis functions on task:      0    43
  | Number of local auxiliary basis functions on task:      1    32
  | Number of local auxiliary basis functions on task:      2    32
  | Number of local auxiliary basis functions on task:      3    32
  | Number of local auxiliary basis functions on task:      4    32
  | Number of local auxiliary basis functions on task:      5    32
  | Number of local auxiliary basis functions on task:      6    32
  | Number of local auxiliary basis functions on task:      7    32
  | Number of local auxiliary basis functions on task:      8    32
  | Number of local auxiliary basis functions on task:      9    32
  | Number of local auxiliary basis functions on task:     10    32
  | Number of local auxiliary basis functions on task:     11    32
  | Number of local auxiliary basis functions on task:     12    32
  | Number of local auxiliary basis functions on task:     13    32
  | Number of local auxiliary basis functions on task:     14    32
  | Number of local auxiliary basis functions on task:     15    32
  | Number of local auxiliary basis functions on task:     16    32
  | Number of local auxiliary basis functions on task:     17    32
  | Number of local auxiliary basis functions on task:     18    32
  | Number of local auxiliary basis functions on task:     19    32
  | 2D aux task distribution:      4 X      5
  | 2D block size (nb_aux_2d):     64
  -----------------------------------------
  --- Initializing Fock matrix calculations
  -----------------------------------------
  screening_threshold (crit_val) =  0.000000100000
  coul_mat_threshold =  0.000000000100
  Number of super-cells in X Y Z:       0       0       0
  Number of atoms pairs total:          169
  Atom pair distribution:
  Cell:        0       0       0 atom pairs:      169
  Number of atoms pairs in BvK cells:          169
  Initializing work distribution for fock matrix calculation
  -----------------------------------------------------
  Dividing atoms among tasks for exact exchange energy:
  Atom:     1 Weight:   86.000
  Atom:     2 Weight:   18.000
  Atom:     3 Weight:   89.000
  Atom:     4 Weight:   18.000
  Atom:     5 Weight:   18.000
  Atom:     6 Weight:   86.000
  Atom:     7 Weight:   18.000
  Atom:     8 Weight:   18.000
  Atom:     9 Weight:   18.000
  Atom:    10 Weight:   86.000
  Atom:    11 Weight:   89.000
  Atom:    12 Weight:   89.000
  Atom:    13 Weight:   18.000

  Average weight per task:   32.550

  Number of "big" (above average) atoms  :     6
  Number of "small" (below average) atoms:     7

  There are "big" and "small" atoms
  Reserving    6 tasks for "big" atoms
  Max. weight for big atoms:   89.000     small atoms:   18.000
  Trying 7 tasks for "big" atoms:
  Max. weight for big atoms:   89.000     small atoms:   18.000
  => Atom 3 gets 2 tasks
  Trying 8 tasks for "big" atoms:
  Max. weight for big atoms:   89.000     small atoms:   18.000
  => Atom 11 gets 2 tasks
  Trying 9 tasks for "big" atoms:
  Max. weight for big atoms:   86.000     small atoms:   18.000
  => Atom 12 gets 2 tasks
  Trying 10 tasks for "big" atoms:
  Max. weight for big atoms:   86.000     small atoms:   18.000
  => Atom 1 gets 2 tasks
  Trying 11 tasks for "big" atoms:
  Max. weight for big atoms:   86.000     small atoms:   18.000
  => Atom 6 gets 2 tasks
  Trying 12 tasks for "big" atoms:
  Max. weight for big atoms:   44.500     small atoms:   18.000
  => Atom 10 gets 2 tasks
  Trying 13 tasks for "big" atoms:
  Max. weight for big atoms:   44.500     small atoms:   18.000
  => Atom 3 gets 3 tasks
  Trying 14 tasks for "big" atoms:
  Max. weight for big atoms:   44.500     small atoms:   36.000
  => Atom 11 gets 3 tasks
  Trying 15 tasks for "big" atoms:
  Max. weight for big atoms:   43.000     small atoms:   36.000
  => Atom 12 gets 3 tasks
  Trying 16 tasks for "big" atoms:
  Max. weight for big atoms:   43.000     small atoms:   36.000
  => Atom 1 gets 3 tasks
  Trying 17 tasks for "big" atoms:
  Max. weight for big atoms:   43.000     small atoms:   54.000
  Last Distribution was better!
  Using 4 tasks for "small" atoms 16, for "big" atoms

  Atom division among tasks:
  Atom     1: (initial) task:     4, # of tasks:     3
  Atom     2: (initial) task:     2, # of tasks:     1
  Atom     3: (initial) task:     7, # of tasks:     3
  Atom     4: (initial) task:     0, # of tasks:     1
  Atom     5: (initial) task:     1, # of tasks:     1
  Atom     6: (initial) task:    10, # of tasks:     2
  Atom     7: (initial) task:     2, # of tasks:     1
  Atom     8: (initial) task:     3, # of tasks:     1
  Atom     9: (initial) task:     0, # of tasks:     1
  Atom    10: (initial) task:    12, # of tasks:     2
  Atom    11: (initial) task:    14, # of tasks:     3
  Atom    12: (initial) task:    17, # of tasks:     3
  Atom    13: (initial) task:     1, # of tasks:     1

  -----------------------------------------------------
  Task     0 : Coulomb matrix distribution changed.
  Task     1 : Coulomb matrix distribution changed.
  Task     2 : Coulomb matrix distribution changed.
  Task     3 : Coulomb matrix distribution changed.
  Task     4 : Coulomb matrix distribution changed.
  Task     5 : Coulomb matrix distribution changed.
  Task     6 : Coulomb matrix distribution changed.
  Task     7 : Coulomb matrix distribution changed.
  Task     8 : Coulomb matrix distribution changed.
  Task     9 : Coulomb matrix distribution changed.
  Task    10 : Coulomb matrix distribution changed.
  Task    11 : Coulomb matrix distribution changed.
  Task    12 : Coulomb matrix distribution changed.
  Task    13 : Coulomb matrix distribution changed.
  Task    14 : Coulomb matrix distribution changed.
  Task    15 : Coulomb matrix distribution changed.
  Task    16 : Coulomb matrix distribution changed.
  Task    17 : Coulomb matrix distribution changed.
  Task    18 : Coulomb matrix distribution changed.
  Task    19 : Coulomb matrix distribution changed.
  Overall Coulomb matrix distribution changed.
  Coulomb matrix subdivision:
  Task     0 works on full atoms (no Coulomb matrix division)
  Task      0: my_n_atoms:      2 my_atom_list:      4     9
  Task      1: my_n_atoms:      2 my_atom_list:      5    13
  Task      2: my_n_atoms:      2 my_atom_list:      2     7
  Task      3: my_n_atoms:      1 my_atom_list:      8
  Task      4: my_n_atoms:      1 my_atom_list:      1
  Task      5: my_n_atoms:      1 my_atom_list:      1
  Task      6: my_n_atoms:      1 my_atom_list:      1
  Task      7: my_n_atoms:      1 my_atom_list:      3
  Task      8: my_n_atoms:      1 my_atom_list:      3
  Task      9: my_n_atoms:      1 my_atom_list:      3
  Task     10: my_n_atoms:      1 my_atom_list:      6
  Task     11: my_n_atoms:      1 my_atom_list:      6
  Task     12: my_n_atoms:      1 my_atom_list:     10
  Task     13: my_n_atoms:      1 my_atom_list:     10
  Task     14: my_n_atoms:      1 my_atom_list:     11
  Task     15: my_n_atoms:      1 my_atom_list:     11
  Task     16: my_n_atoms:      1 my_atom_list:     11
  Task     17: my_n_atoms:      1 my_atom_list:     12
  Task     18: my_n_atoms:      1 my_atom_list:     12
  Task     19: my_n_atoms:      1 my_atom_list:     12
  Task      0: my_n_atom_pairs:     26
  Task      1: my_n_atom_pairs:     26
  Task      2: my_n_atom_pairs:     26
  Task      3: my_n_atom_pairs:     13
  Task      4: my_n_atom_pairs:      5
  Task      5: my_n_atom_pairs:      4
  Task      6: my_n_atom_pairs:      4
  Task      7: my_n_atom_pairs:      5
  Task      8: my_n_atom_pairs:      4
  Task      9: my_n_atom_pairs:      4
  Task     10: my_n_atom_pairs:      7
  Task     11: my_n_atom_pairs:      6
  Task     12: my_n_atom_pairs:      7
  Task     13: my_n_atom_pairs:      6
  Task     14: my_n_atom_pairs:      5
  Task     15: my_n_atom_pairs:      4
  Task     16: my_n_atom_pairs:      4
  Task     17: my_n_atom_pairs:      5
  Task     18: my_n_atom_pairs:      4
  Task     19: my_n_atom_pairs:      4
  Memory needs for ovlp3fn and Coulomb matrix:
  For Coulomb matrix, this is the upper limit if no compression occurs
  ovlp3fn:        0.685 MB, Coulomb:        0.750 MB
  --- Initializing LVL triples
  | Storage requirements for basis-basbas products (processor-local):
  |   Species H: n_prodsfn:    28; storage:        0.88 MiB.
  |   Species C: n_prodsfn:   202; storage:        6.31 MiB.
  |   Species N: n_prodsfn:   211; storage:        6.59 MiB.
  |   Species O: n_prodsfn:   211; storage:        6.59 MiB.

  --- Initializing Coulomb matrix calculations
  Preparing TB like auxiliary 2-center Coulomb matrix
  SBT integration errors (all should be 'small'):
  large logFT aliasing -> increase N/lnrange
  large SBT aliasing -> decrease lnk0 & increase lnk0+lnrange
  large SBT ringing -> decrease lnr0 & increase lnr0+lnrange
  |            El't  L: logFT-al.   small-k   large-k   small-r   large-r
  | Need to store  5468 splines of   208 points taking       8976 KiB.
  | Spline reduction from  4096 to   208 points by (cutting and)     1 x coarsening gives error:  0.00E+00
  Finished with initialize_tb_auxmat/lvl_triples, time:        0.202
  --- Calculating OVLP3FN
  Allocating        0.279 MB for coeff_3fn
  Allocating        0.837 MB for d_coeff_3fn
  --- Done calculating OVLP3FN, time:        1.296
  Atomic logSBT for LVL-triples                :  max(cpu_time)    wall_clock(cpu1)
  | Multiplication with kernel                 :        0.013 s           0.011 s
  | Main matrix multiplication                 :        0.184 s           0.174 s
  | Analytic angular integration               :        0.010 s           0.013 s
  | Kernel construction                        :        0.031 s           0.030 s
  | Overall 2-center overlap time              :        0.261 s           0.259 s
  | 3-center preparation multiplications       :        0.017 s           0.018 s
  | 3-center preparation SBTs                  :        0.898 s           0.789 s
  | 3-center combinations                      :        0.272 s           0.271 s
  | Overal 3-center time                       :        1.187 s           1.080 s
  | LVL initialization                         :        0.070 s           0.070 s
  | Whole LVL-triples                          :        0.070 s           0.070 s

  --- Done getting norm of OVLP3FN, time:        0.001
  --- Calculating Coulomb matrices
  Allocating        0.063 MB for aux_mat
  Allocating        0.190 MB for d_aux_mat
  Time to calculate Coulomb Matrices   :        0.005
  Number of Coulomb matrix elements:
  | Task     0 total:          93744, > threshold:          91222, stored:          91800
  | Task     1 total:          93744, > threshold:          91206, stored:          91800
  | Task     2 total:          93744, > threshold:          83694, stored:          91800
  | Task     3 total:          46872, > threshold:          45597, stored:          45900
  | Task     4 total:          72912, > threshold:          57184, stored:          65100
  | Task     5 total:          75516, > threshold:          59219, stored:          67164
  | Task     6 total:          75516, > threshold:          59213, stored:          68034
  | Task     7 total:          75516, > threshold:          59515, stored:          67338
  | Task     8 total:          78120, > threshold:          61716, stored:          69210
  | Task     9 total:          78120, > threshold:          61480, stored:          70110
  | Task    10 total:         111972, > threshold:          97348, stored:         100491
  | Task    11 total:         111972, > threshold:          97378, stored:         100878
  | Task    12 total:         111972, > threshold:          97398, stored:         100491
  | Task    13 total:         111972, > threshold:          97378, stored:         100878
  | Task    14 total:          75516, > threshold:          65227, stored:          66642
  | Task    15 total:          78120, > threshold:          67627, stored:          69210
  | Task    16 total:          78120, > threshold:          67551, stored:          70110
  | Task    17 total:          75516, > threshold:          65169, stored:          66642
  | Task    18 total:          78120, > threshold:          67627, stored:          69210
  | Task    19 total:          78120, > threshold:          67526, stored:          70110
  --- Done init_fock_matrix_calculations
  Atomic logSBT for 2-center Coulomb matrix    :  max(cpu_time)    wall_clock(cpu1)
  | TB initialization                          :        0.133 s           0.132 s
  | TB usage                                   :        0.008 s           0.011 s

  Calculating non-local Hartree-Fock exchange by two-center RI (RI-LVL).
  screening_threshold (crit_val) =  0.000000100000
  Allocating        0.010 MB for dm_cols
  Allocating        0.169 MB for ovlp3fn_rcv
  Allocating        0.010 MB for fock_matrix
  Allocating        0.001 MB for fock_matrix_row
  Exact exchange progress report - outermost basis function loop i_basis_r1: 1 .. 119
  |        1         2         3         4         5         6         7         8         9        10
  |       11        12        13        14        15        16        17        18        19        20
  |       21        22        23        24        25        26        27        28        29        30
  |       31        32        33        34        35        36        37        38        39        40
  |       41        42        43        44        45        46        47        48        49        50
  |       51        52        53        54        55        56        57        58        59        60
  |       61        62        63        64        65        66        67        68        69        70
  |       71        72        73        74        75        76        77        78        79        80
  |       81        82        83        84        85        86        87        88        89        90
  |       91        92        93        94        95        96        97        98        99       100
  |      101       102       103       104       105       106       107       108       109       110
  |      111       112       113       114       115       116       117       118       119  
  Full exact exchange energy:    1142.520804092553 eV.
  Times            DM_x_o3fn   CM_x_o3fn    Products        Sync   Imbalance    Pre/Post       Other  Total calc
  | Times    0:        0.004       0.010       0.009       0.039       0.009       0.002       0.005       0.077
  | Times    1:        0.004       0.010       0.008       0.038       0.011       0.002       0.003       0.077
  | Times    2:        0.004       0.009       0.008       0.038       0.012       0.002       0.003       0.077
  | Times    3:        0.002       0.005       0.004       0.038       0.023       0.002       0.003       0.077
  | Times    4:        0.004       0.007       0.007       0.043       0.010       0.002       0.004       0.077
  | Times    5:        0.003       0.007       0.007       0.043       0.012       0.002       0.004       0.077
  | Times    6:        0.003       0.007       0.007       0.037       0.017       0.002       0.004       0.077
  | Times    7:        0.005       0.007       0.009       0.036       0.012       0.002       0.005       0.077
  | Times    8:        0.002       0.006       0.006       0.043       0.013       0.002       0.004       0.077
  | Times    9:        0.003       0.007       0.007       0.042       0.011       0.003       0.004       0.077
  | Times   10:        0.006       0.008       0.009       0.040       0.006       0.002       0.004       0.077
  | Times   11:        0.004       0.008       0.009       0.035       0.014       0.002       0.004       0.077
  | Times   12:        0.005       0.008       0.009       0.041       0.007       0.003       0.004       0.077
  | Times   13:        0.005       0.008       0.009       0.041       0.008       0.003       0.004       0.077
  | Times   14:        0.004       0.007       0.007       0.042       0.011       0.003       0.004       0.077
  | Times   15:        0.003       0.006       0.007       0.037       0.018       0.002       0.004       0.077
  | Times   16:        0.004       0.007       0.008       0.043       0.010       0.002       0.004       0.077
  | Times   17:        0.003       0.006       0.007       0.042       0.012       0.002       0.004       0.077
  | Times   18:        0.003       0.007       0.007       0.043       0.011       0.002       0.004       0.077
  | Times   19:        0.004       0.007       0.007       0.037       0.016       0.002       0.004       0.077
  | Times  sum:        0.074       0.149       0.152       0.798       0.244       0.048       0.080       1.545

  Decomposition of Other based on code block (only on MPI task 0):
  Times             Block #1    Block #2    Block #3    Block #4    Block #5    Block #6    Block #7    Block #8
  | Times    0:        0.000       0.000       0.001       0.000       0.000       0.000       0.001       0.000

  Times             Block #9   Block #10   Block #11   Block #12   Block #13   Block #14   Block #15   Block #16
  | Times    0:        0.000       0.000       0.000       0.000       0.000       0.000       0.000       0.000

  Times            Block Sum    Expected
  | Times    0:        0.004       0.005
  Initialize hartree_potential_storage
  Max. number of atoms included in rho_multipole:           13

  End scf initialization - timings             :  max(cpu_time)    wall_clock(cpu1)
  | Time for scf. initialization               :        1.762 s           1.762 s
  | Boundary condition initialization          :        0.000 s           0.000 s
  | Integration                                :        0.041 s           0.041 s
  | Solution of K.-S. eqns.                    :        0.009 s           0.009 s
  | Grid partitioning                          :        0.020 s           0.020 s
  | Preloading free-atom quantities on grid    :        0.002 s           0.002 s
  | Free-atom superposition energy             :        0.005 s           0.005 s
  | Total energy evaluation                    :        0.000 s           0.000 s
  | Product basis setup: Total time            :        1.668 s           1.668 s

  Partial memory accounting:
  | Current value for overall tracked memory usage on task 0  :           1.618 MB
  | Peak value for overall tracked memory usage on task 0     :           1.973 MB after allocating +d_coeff_3fn
  | Largest tracked array allocation on task 0 so far         :           0.837 MB  when allocating +d_coeff_3fn
  Note:  These values currently only include a subset of arrays which are explicitly tracked.
  The "true" memory usage will be greater.
------------------------------------------------------------

[...]
  | Electronic free energy        :        -323.50644215 Ha       -8803.05818550 eV

  Derived energy quantities:
  | Kinetic energy                :         384.15631117 Ha       10453.42509138 eV
  | Electrostatic energy          :        -603.39964884 Ha      -16419.33985171 eV
  | Energy correction for multipole
  | error in Hartree potential    :           0.03948528 Ha           1.07444925 eV
  | Sum of eigenvalues per atom                           :        -394.10171219 eV
  | Total energy (T->0) per atom                          :        -677.15832196 eV  <-- do not rely on this value for anything but (periodic) metals
  | Electronic free energy per atom                       :        -677.15832196 eV

  atomic forces [eV/Ang]:
  -----------------------
  atom #    1
   Hellmann-Feynman              :  0.535090E+00 -0.694493E+00  0.106727E+01
   Ionic forces                  :  0.000000E+00  0.000000E+00  0.000000E+00
   Multipole                     : -0.143981E+00  0.244222E+00 -0.212823E+00
   Hartree-Fock exchange         :  0.105031E+01 -0.449343E+00 -0.838973E+00
   Pulay + GGA                   : -0.231857E+01  0.795961E+00 -0.119328E+01
   Van der Waals                 :  0.851083E-02 -0.716953E-03 -0.311898E-02
   ----------------------------------------------------------------
   Total forces(   1)            : -0.868636E+00 -0.104371E+00 -0.118093E+01
  atom #    2
   Hellmann-Feynman              :  0.815019E-01  0.483319E-02 -0.280409E-01
   Ionic forces                  :  0.000000E+00  0.000000E+00  0.000000E+00
   Multipole                     :  0.194508E+00  0.476152E-01 -0.369769E-01
   Hartree-Fock exchange         : -0.393193E+01 -0.297471E-01  0.596564E-01
   Pulay + GGA                   :  0.380889E+01  0.825615E-01 -0.165978E+00
   Van der Waals                 : -0.884806E-02  0.778061E-03  0.268714E-02
   ----------------------------------------------------------------
   Total forces(   2)            :  0.144122E+00  0.106041E+00 -0.168652E+00
  atom #    3
   Hellmann-Feynman              :  0.738967E+01  0.738551E+01 -0.491775E+01
   Ionic forces                  :  0.000000E+00  0.000000E+00  0.000000E+00
   Multipole                     : -0.244635E+00  0.612793E-01 -0.105909E+01
   Hartree-Fock exchange         : -0.349594E+01 -0.316331E+01  0.151123E+01
   Pulay + GGA                   : -0.295880E+01 -0.414845E+01  0.568928E+01
   Van der Waals                 : -0.522529E-02 -0.211099E-02  0.428774E-02
   ----------------------------------------------------------------
   Total forces(   3)            :  0.685063E+00  0.132916E+00  0.122795E+01
  atom #    4
   Hellmann-Feynman              : -0.264736E+00  0.252877E+00  0.936807E-01
   Ionic forces                  :  0.000000E+00  0.000000E+00  0.000000E+00
   Multipole                     : -0.392091E-01 -0.781699E-01 -0.749773E-01
   Hartree-Fock exchange         : -0.255176E+00  0.505037E+01  0.178653E+01
   Pulay + GGA                   :  0.246673E+00 -0.480088E+01 -0.172217E+01
   Van der Waals                 :  0.207219E-02  0.361518E-02  0.692471E-02
   ----------------------------------------------------------------
   Total forces(   4)            : -0.310377E+00  0.427808E+00  0.899875E-01
  atom #    5
   Hellmann-Feynman              :  0.330955E-01 -0.390987E+00  0.322163E-01
   Ionic forces                  :  0.000000E+00  0.000000E+00  0.000000E+00
   Multipole                     : -0.103280E+00  0.525242E-02 -0.456437E-01
   Hartree-Fock exchange         :  0.496349E+01 -0.185197E+01  0.501487E-01
   Pulay + GGA                   : -0.470768E+01  0.179487E+01 -0.104272E+00
   Van der Waals                 :  0.463531E-02  0.523421E-04  0.721452E-02
   ----------------------------------------------------------------
   Total forces(   5)            :  0.190257E+00 -0.442777E+00 -0.603364E-01
  atom #    6
   Hellmann-Feynman              :  0.583579E-01 -0.541202E+00 -0.628451E+00
   Ionic forces                  :  0.000000E+00  0.000000E+00  0.000000E+00
   Multipole                     : -0.104089E+00  0.572404E+00  0.378877E+00
   Hartree-Fock exchange         : -0.411968E+00  0.127263E+01  0.800418E+00
   Pulay + GGA                   :  0.701006E+00 -0.168621E+01 -0.704611E+00
   Van der Waals                 : -0.356415E-02  0.862846E-03  0.558158E-02
   ----------------------------------------------------------------
   Total forces(   6)            :  0.239742E+00 -0.381510E+00 -0.148186E+00
  atom #    7
   Hellmann-Feynman              : -0.382624E-01 -0.170270E+00 -0.175462E-02
   Ionic forces                  :  0.000000E+00  0.000000E+00  0.000000E+00
   Multipole                     :  0.416211E-01  0.135580E+00  0.227265E-02
   Hartree-Fock exchange         : -0.199625E+01 -0.323663E+01  0.133853E+01
   Pulay + GGA                   :  0.193157E+01  0.313182E+01 -0.133299E+01
   Van der Waals                 :  0.416007E-03 -0.875447E-02 -0.328121E-02
   ----------------------------------------------------------------
   Total forces(   7)            : -0.609029E-01 -0.148251E+00  0.277487E-02
  atom #    8
   Hellmann-Feynman              :  0.681233E-01 -0.144356E+00  0.436482E-01
   Ionic forces                  :  0.000000E+00  0.000000E+00  0.000000E+00
   Multipole                     : -0.125764E+00  0.696609E-01  0.221787E-01
   Hartree-Fock exchange         :  0.394509E+01 -0.566348E+00  0.652914E+00
   Pulay + GGA                   : -0.383508E+01  0.555356E+00 -0.605167E+00
   Van der Waals                 :  0.407204E-02 -0.853684E-02 -0.339372E-02
   ----------------------------------------------------------------
   Total forces(   8)            :  0.564385E-01 -0.942239E-01  0.110180E+00
  atom #    9
   Hellmann-Feynman              :  0.259219E-01  0.108500E-01 -0.319460E-01
   Ionic forces                  :  0.000000E+00  0.000000E+00  0.000000E+00
   Multipole                     : -0.119159E-01  0.647791E-01  0.133807E+00
   Hartree-Fock exchange         : -0.611390E+00  0.324131E+00 -0.390608E+01
   Pulay + GGA                   :  0.522423E+00 -0.217337E+00  0.381222E+01
   Van der Waals                 :  0.210538E-02 -0.914232E-02 -0.600423E-02
   ----------------------------------------------------------------
   Total forces(   9)            : -0.728549E-01  0.173282E+00  0.199933E-02
  atom #   10
   Hellmann-Feynman              : -0.405930E+01  0.147576E+01 -0.443223E+01
   Ionic forces                  :  0.000000E+00  0.000000E+00  0.000000E+00
   Multipole                     : -0.642805E-01  0.398184E-02 -0.350565E-01
   Hartree-Fock exchange         : -0.415261E+01 -0.601563E+01  0.114504E+01
   Pulay + GGA                   :  0.550887E+01  0.376824E+01  0.146305E+01
   Van der Waals                 : -0.785170E-02 -0.644143E-02  0.298134E-02
   ----------------------------------------------------------------
   Total forces(  10)            : -0.277517E+01 -0.774081E+00 -0.185622E+01
  atom #   11
   Hellmann-Feynman              : -0.107550E+02 -0.807835E+01 -0.443766E+01
   Ionic forces                  :  0.000000E+00  0.000000E+00  0.000000E+00
   Multipole                     : -0.849880E+00 -0.845160E+00 -0.733031E-03
   Hartree-Fock exchange         :  0.803339E+01  0.672836E+01  0.239635E+01
   Pulay + GGA                   :  0.386385E+01  0.270419E+01  0.135814E+01
   Van der Waals                 :  0.967969E-02  0.169796E-01 -0.195347E-02
   ----------------------------------------------------------------
   Total forces(  11)            :  0.302048E+00  0.526018E+00 -0.685861E+00
  atom #   12
   Hellmann-Feynman              :  0.247938E+01 -0.114825E+02  0.855673E+01
   Ionic forces                  :  0.000000E+00  0.000000E+00  0.000000E+00
   Multipole                     :  0.565290E+00 -0.106575E+01  0.124990E+01
   Hartree-Fock exchange         : -0.104253E+01  0.743965E+01 -0.407064E+01
   Pulay + GGA                   : -0.397949E+00  0.635455E+01 -0.393841E+01
   Van der Waals                 : -0.181168E-02  0.137134E-01 -0.758623E-02
   ----------------------------------------------------------------
   Total forces(  12)            :  0.160237E+01  0.125962E+01  0.178999E+01
  atom #   13
   Hellmann-Feynman              :  0.102041E+01 -0.367524E+00  0.919885E+00
   Ionic forces                  :  0.000000E+00  0.000000E+00  0.000000E+00
   Multipole                     :  0.363579E-01  0.103070E+00 -0.219718E-02
   Hartree-Fock exchange         : -0.209448E+01 -0.550217E+01 -0.925107E+00
   Pulay + GGA                   :  0.191510E+01  0.508969E+01  0.890073E+00
   Van der Waals                 : -0.419057E-02 -0.298434E-03 -0.433922E-02
   ----------------------------------------------------------------
   Total forces(  13)            :  0.873202E+00 -0.677236E+00  0.878315E+00

  Timings for VdW correction (Tkatchenko-Scheffler 2009 or later):
  | CPU time:        0.039 s, Wall clock time:        0.036 s.
  Removing unitary transformations (pure translations, rotations) from forces on atoms.
  Atomic forces before filtering:
  | Net force on center of mass :   0.530035E-02  0.323485E-02  0.101198E-02 eV/A
  | Net torque on center of mass:   0.219879E-02 -0.603203E-02  0.358406E-02 eV
  Atomic forces after filtering:
  | Net force on center of mass :   0.000000E+00 -0.267609E-15  0.178406E-15 eV/A
  | Net torque on center of mass:   0.566451E-15  0.000000E+00 -0.944085E-16 eV

  Energy and forces in a compact form:
  | Total energy uncorrected      :         -0.880305818549924E+04 eV
  | Total energy corrected        :         -0.880305818549924E+04 eV  <-- do not rely on this value for anything but (periodic) metals
  | Electronic free energy        :         -0.880305818549924E+04 eV
  Total atomic forces (unitary forces cleaned) [eV/Ang]:
  |   1         -0.869110786284576E+00         -0.104691719867867E+00         -0.118108870946747E+01
  |   2          0.143647133199452E+00          0.105558841212070E+00         -0.169073645464285E+00
  |   3          0.684248178227218E+00          0.132549491306541E+00          0.122790764946296E+01
  |   4         -0.311418221066948E+00          0.427405833246834E+00          0.900117581838881E-01
  |   5          0.189487861540650E+00         -0.443003396314186E+00         -0.601766415506379E-01
  |   6          0.239628703265796E+00         -0.381697947545972E+00         -0.148328277240966E+00
  |   7         -0.609734636396380E-01         -0.148547581009538E+00          0.243183049209664E-02
  |   8          0.563047858772798E-01         -0.942690694981184E-01          0.110282988935242E+00
  |   9         -0.727227137729634E-01          0.173156349673652E+00          0.182336260643289E-02
  |  10         -0.277565974247652E+01         -0.774282674923020E+00         -0.185617629372359E+01
  |  11          0.301381442456403E+00          0.525924654613351E+00         -0.685540926838237E+00
  |  12          0.160209359347085E+01          0.125939647454529E+01          0.178988080782641E+01
  |  13          0.873093229203000E+00         -0.677499255439036E+00          0.878046096778155E+00

  ------------------------------------ 
  Start decomposition of the XC Energy 
  ------------------------------------ 
  X and C from original XC functional choice 
  Hartree-Fock Energy :        -10.267799544 Ha           -279.401041355 eV
  X Energy            :        -41.047245546 Ha          -1116.952381205 eV
  C Energy            :         -1.601899972 Ha            -43.589916061 eV
  Total XC Energy     :        -42.649145517 Ha          -1160.542297266 eV
  ------------------------------------ 
  LDA X and C from self-consistent density 
  X Energy LDA        :        -37.256581743 Ha          -1013.803170959 eV
  C Energy LDA        :         -3.138708703 Ha            -85.408609359 eV
  ------------------------------------ 
  End decomposition of the XC Energy 
  ------------------------------------ 

------------------------------------------------------------

------------------------------------------------------------------------------
  Final output of selected total energy values:

  The following output summarizes some interesting total energy values
  at the end of a run (AFTER all relaxation, molecular dynamics, etc.).

  | Total energy of the DFT / Hartree-Fock s.c.f. calculation      :          -8803.058185499 eV
  | Final zero-broadening corrected energy (caution - metals only) :          -8803.058185499 eV
  | For reference only, the value of 1 Hartree used in FHI-aims is :             27.211384500 eV

  Before relying on these values, please be sure to understand exactly which
  total energy value is referred to by a given number. Different objects may
  all carry the same name 'total energy'. Definitions:

  Total energy of the DFT / Hartree-Fock s.c.f. calculation:
  | Note that this energy does not include ANY quantities calculated after the
  | s.c.f. cycle, in particular not ANY RPA, MP2, etc. many-body perturbation terms.

  Final zero-broadening corrected energy:
  | For metallic systems only, a broadening of the occupation numbers at the Fermi
  | level can be extrapolated back to zero broadening by an electron-gas inspired
  | formula. For all systems that are not real metals, this value can be
  | meaningless and should be avoided.

------------------------------------------------------------------------------
  Methods described in the following list of references were used in this FHI-aims run.
  If you publish the results, please make sure to cite these reference if they apply.
  FHI-aims is an academic code, and for our developers (often, Ph.D. students
  and postdocs), scientific credit in the community is essential.
  Thank you for helping us!

  For any use of FHI-aims, please cite:

    Volker Blum, Ralf Gehrke, Felix Hanke, Paula Havu, Ville Havu,
    Xinguo Ren, Karsten Reuter, and Matthias Scheffler
    'Ab initio molecular simulations with numeric atom-centered orbitals'
    Computer Physics Communications 180, 2175-2196 (2009)
    http://dx.doi.org/10.1016/j.cpc.2009.06.022


  For Hartree-Fock, hybrid functionals, or many-body perturbation theory used in your run, please cite:

    Xinguo Ren, Patrick Rinke, Volker Blum, Juergen Wieferink, Alex Tkatchenko,
    Andrea Sanfilippo, Karsten Reuter, and Matthias Scheffler,
    'Resolution-of-identity approach to Hartree-Fock, hybrid density functionals,
    RPA, MP2, and GW with numeric atom-centered orbital basis functions'
    New Journal of Physics 14, 053020 (2012).
    http://dx.doi.org/10.1088/1367-2630/14/5/053020


  The scalable eigensolver library ELPA was used in your run.
  ELPA is essential especially for large systems on hundreds or thousands of CPUs.
  For ELPA, please cite:

    Andreas Marek, Volker Blum, Rainer Johanni, Ville Havu, Bruno Lang,
    Thomas Auckenthaler, Alexander Heinecke, Hans-Joachim Bungartz, and Hermann Lederer,
    'The ELPA Library - Scalable Parallel Eigenvalue Solutions
    for Electronic Structure Theory and Computational Science'
    The Journal of Physics: Condensed Matter 26, 213201 (2014).
    http://dx.doi.org/10.1088/0953-8984/26/21/213201


  The ELSI infrastructure was used in your run to solve the Kohn-Sham electronic structure.
  Please check out http://elsi-interchange.org to learn more.
  If scalability is important for your project, please acknowledge ELSI by citing:

    V. W-z. Yu, F. Corsetti, A. Garcia, W. P. Huhn, M. Jacquelin, W. Jia,
    B. Lange, L. Lin, J. Lu, W. Mi, A. Seifitokaldani, A. Vazquez-Mayagoitia,
    C. Yang, H. Yang, and V. Blum
    'ELSI: A unified software interface for Kohn-Sham electronic structure solvers'
    Computer Physics Communications 222, 267-285 (2018).
    http://dx.doi.org/10.1016/j.cpc.2017.09.007


  For the real-space grid partitioning and parallelization used in this calculation, please cite:

    Ville Havu, Volker Blum, Paula Havu, and Matthias Scheffler,
    'Efficient O(N) integration for all-electron electronic structure calculation'
    'using numerically tabulated basis functions'
    Journal of Computational Physics 228, 8367-8379 (2009).
    http://dx.doi.org/10.1016/j.jcp.2009.08.008


  The high-level electronic structure method used in your calculation
  employed our efficient localized resolution of identity for the Coulomb operator.
  Some calculations, especially large-scale hybrid density functional theory,
  are only possible thanks to this development. For this feature, please cite:

    Arvid Ihrig, Juergen Wieferink, Igor Ying Zhang, Matti Ropo, Xinguo Ren,
    Patrick Rinke, Matthias Scheffler, and Volker Blum,
    'Accurate localized resolution of identity approach for linear-scaling
    hybrid density functionals and for many-body perturbation theory'
    New Journal of Physics 117, 093020 (2015).
    http://dx.doi.org/10.1088/1367-2630/17/9/093020

  Of course, there are many other important community references, e.g., those cited in the
  above references. Our list is limited to references that describe implementations in the
  FHI-aims code. The reason is purely practical (length of this list) - please credit others as well.

------------------------------------------------------------
          Leaving FHI-aims.
          Date     :  20200616, Time     :  093726.507

          Computational steps:
          | Number of self-consistency cycles          :           20
          | Number of SCF (re)initializations          :            1

          Detailed time accounting                     :  max(cpu_time)    wall_clock(cpu1)
          | Total time                                 :        5.331 s           5.421 s
          | Preparation time                           :        0.165 s           0.167 s
          | Boundary condition initalization           :        0.000 s           0.000 s
          | Grid partitioning                          :        0.020 s           0.020 s
          | Preloading free-atom quantities on grid    :        0.002 s           0.002 s
          | Free-atom superposition energy             :        0.005 s           0.005 s
          | Total time for integrations                :        0.592 s           0.590 s
          | Product basis setup: Total time            :        1.668 s           1.668 s
          | Total time evaluating exchange matrix      :        1.609 s           1.609 s
          | Total time for solution of K.-S. equations :        0.083 s           0.082 s
          | Total time for density & force components  :        0.537 s           0.458 s
          | Total time for mixing                      :        0.023 s           0.022 s
          | Total time for Hartree multipole update    :        0.024 s           0.024 s
          | Total time for Hartree multipole sum       :        0.508 s           0.511 s
          | Total time for total energy evaluation     :        0.003 s           0.004 s
          | Total time for vdW correction              :        0.039 s           0.036 s

          Partial memory accounting:
          | Residual value for overall tracked memory usage across tasks :           0.000 MB (should be 0.000 MB)
          | Peak values for overall tracked memory usage (after allocating hessian_basis_wave):
          |   Minimum:        2.938 MB (on task  4)
          |   Maximum:        5.784 MB (on task 11)
          |   Average:        4.371 MB
          | Largest tracked array allocation (hessian_basis_wave):
          |   Minimum:        1.118 MB (on task 10)
          |   Maximum:        1.137 MB (on task  2)
          |   Average:        1.127 MB
          Note:  These values currently only include a subset of arrays which are explicitly tracked.
          The "true" memory usage will be greater.

          Have a nice day.
------------------------------------------------------------
