  MPI-parallelism will be employed.
------------------------------------------------------------
          Invoking FHI-aims ...
          Version 171221_1
          Compiled on 2019/09/09 at 14:39:39 on host puhti-login2.bullx.

          When using FHI-aims, please cite the following reference:

          Volker Blum, Ralf Gehrke, Felix Hanke, Paula Havu,
          Ville Havu, Xinguo Ren, Karsten Reuter, and Matthias Scheffler,
          'Ab Initio Molecular Simulations with Numeric Atom-Centered Orbitals',
          Computer Physics Communications 180, 2175-2196 (2009)

          For any questions about FHI-aims, please visit the aimsclub website
          with its forums and wiki. Contributions to both the forums and the
          wiki are warmly encouraged - they are for you, and everyone is welcome there.

------------------------------------------------------------



  Date     :  20200805, Time     :  184506.200
  Time zero on CPU 1             :   0.109130000000000E-01  s.
  Internal wall clock time zero  :           365885106.200  s.

  FHI-aims created a unique identifier for this run for later identification
  aims_uuid : 6BAC11C1-A2D8-4764-AC43-F79A681B74A6

  Using        1 parallel tasks.
  Task        0 on host r18c03.bullx reporting.

  Performing system and environment tests:
  | Environment variable OMP_NUM_THREADS correctly set to 1.
  | Stacksize not measured: no C compiler
  | Checking for scalapack...
  | Testing pdtran()...
  | All pdtran() tests passed.

  Obtaining array dimensions for all initial allocations:
  
  -----------------------------------------------------------------------
  Parsing control.in (first pass over file, find array dimensions only).
  The contents of control.in will be repeated verbatim below
  unless switched off by setting 'verbatim_writeout .false.' .
  in the first line of control.in .
  -----------------------------------------------------------------------
  
  #########################################################################################
  #
  #  Volker Blum, FHI 2009 : Test run input file control.in for simple H2O
  #
  #########################################################################################
  #
  #  Physical model
  #
    xc                 pbe
    vdw_correction_hirshfeld
    spin               none
    relativistic       none
    charge             0.
  #
  #  SCF convergence
  #
    occupation_type    gaussian 0.01
    mixer              pulay
      n_max_pulay        10
      charge_mix_param   0.2
    sc_accuracy_rho    1E-5
    sc_accuracy_eev    1E-3
    sc_accuracy_etot   1E-6
    sc_accuracy_forces 1E-4
    sc_iter_limit      100
  #
  #  Relaxation
  #
  #  relax_geometry   bfgs 1.e-3
  #
  ################################################################################
  #
  #  FHI-aims code project
  #  VB, Fritz-Haber Institut, 2009
  #
  #  Suggested "light" defaults for H atom (to be pasted into control.in file)
  #  Be sure to double-check any results obtained with these settings for post-processing,
  #  e.g., with the "tight" defaults and larger basis sets.
  #
  ################################################################################
    species        H
  #     global species definitions
      nucleus             1
      mass                1.00794
  #
      l_hartree           4
  #
      cut_pot             3.5  1.5  1.0
      basis_dep_cutoff    1e-4
  #
      radial_base         24 5.0
      radial_multiplier   1
      angular_grids       specified
        division   0.2421   50
        division   0.3822  110
        division   0.4799  194
        division   0.5341  302
  #      division   0.5626  434
  #      division   0.5922  590
  #      division   0.6542  770
  #      division   0.6868 1202
  #      outer_grid  770
        outer_grid  302
  ################################################################################
  #
  #  Definition of "minimal" basis
  #
  ################################################################################
  #     valence basis states
      valence      1  s   1.
  #     ion occupancy
      ion_occ      1  s   0.5
  ################################################################################
  #
  #  Suggested additional basis functions. For production calculations,
  #  uncomment them one after another (the most important basis functions are
  #  listed first).
  #
  #  Basis constructed for dimers: 0.5 A, 0.7 A, 1.0 A, 1.5 A, 2.5 A
  #
  ################################################################################
  #  "First tier" - improvements: -1014.90 meV to -62.69 meV
       hydro 2 s 2.1
       hydro 2 p 3.5
  #  "Second tier" - improvements: -12.89 meV to -1.83 meV
  #     hydro 1 s 0.85
  #     hydro 2 p 3.7
  #     hydro 2 s 1.2
  #     hydro 3 d 7
  #  "Third tier" - improvements: -0.25 meV to -0.12 meV
  #     hydro 4 f 11.2
  #     hydro 3 p 4.8
  #     hydro 4 d 9
  #     hydro 3 s 3.2
  ################################################################################
  #
  #  FHI-aims code project
  #  VB, Fritz-Haber Institut, 2009
  #
  #  Suggested "light" defaults for C atom (to be pasted into control.in file)
  #  Be sure to double-check any results obtained with these settings for post-processing,
  #  e.g., with the "tight" defaults and larger basis sets.
  #
  ################################################################################
    species        C
  #     global species definitions
      nucleus             6
      mass                12.0107
  #
      l_hartree           4
  #
      cut_pot             3.5  1.5  1.0
      basis_dep_cutoff    1e-4
  #
      radial_base         34 5.0
      radial_multiplier   1
      angular_grids specified
        division   0.3326   50
        division   0.5710  110
        division   0.7727  194
        division   0.8772  302
  #      division   0.9334  434
  #      division   0.9625  590
  #      division   0.9924  770
  #      division   1.0230  974
  #      division   1.4589 1202
  #     outer_grid  974
       outer_grid 302
  ################################################################################
  #
  #  Definition of "minimal" basis
  #
  ################################################################################
  #     valence basis states
      valence      2  s   2.
      valence      2  p   2.
  #     ion occupancy
      ion_occ      2  s   1.
      ion_occ      2  p   1.
  ################################################################################
  #
  #  Suggested additional basis functions. For production calculations,
  #  uncomment them one after another (the most important basis functions are
  #  listed first).
  #
  #  Constructed for dimers: 1.0 A, 1.25 A, 1.5 A, 2.0 A, 3.0 A
  #
  ################################################################################
  #  "First tier" - improvements: -1214.57 meV to -155.61 meV
       hydro 2 p 1.7
       hydro 3 d 6
       hydro 2 s 4.9
  #  "Second tier" - improvements: -67.75 meV to -5.23 meV
  #     hydro 4 f 9.8
  #     hydro 3 p 5.2
  #     hydro 3 s 4.3
  #     hydro 5 g 14.4
  #     hydro 3 d 6.2
  #  "Third tier" - improvements: -2.43 meV to -0.60 meV
  #     hydro 2 p 5.6
  #     hydro 2 s 1.4
  #     hydro 3 d 4.9
  #     hydro 4 f 11.2
  #  "Fourth tier" - improvements: -0.39 meV to -0.18 meV
  #     hydro 2 p 2.1
  #     hydro 5 g 16.4
  #     hydro 4 d 13.2
  #     hydro 3 s 13.6
  #     hydro 4 f 17.6
  #  Further basis functions - improvements: -0.08 meV and below
  #     hydro 3 s 2
  #     hydro 3 p 6
  #     hydro 4 d 20
  ################################################################################
  #
  #  FHI-aims code project
  #  VB, Fritz-Haber Institut, 2009
  #
  #  Suggested "light" defaults for N atom (to be pasted into control.in file)
  #  Be sure to double-check any results obtained with these settings for post-processing,
  #  e.g., with the "tight" defaults and larger basis sets.
  #
  ################################################################################
    species        N
  #     global species definitions
      nucleus             7
      mass                14.0067
  #
      l_hartree           4
  #
      cut_pot             3.5  1.5  1.0
      basis_dep_cutoff    1e-4
  #
      radial_base         35 5.0
      radial_multiplier   1
      angular_grids       specified
        division   0.2599   50
        division   0.4601  110
        division   0.5885  194
        division   0.6503  302
  #      division   0.6939  434
  #      division   0.7396  590
  #      division   0.7632  770
  #      division   0.8122  974
  #      division   1.1604 1202
  #      outer_grid  974
        outer_grid  302
  ################################################################################
  #
  #  Definition of "minimal" basis
  #
  ################################################################################
  #     valence basis states
      valence      2  s   2.
      valence      2  p   3.
  #     ion occupancy
      ion_occ      2  s   1.
      ion_occ      2  p   2.
  ################################################################################
  #
  #  Suggested additional basis functions. For production calculations,
  #  uncomment them one after another (the most important basis functions are
  #  listed first).
  #
  #  Constructed for dimers: 1.0 A, 1.1 A, 1.5 A, 2.0 A, 3.0 A
  #
  ################################################################################
  #  "First tier" - improvements: -1193.42 meV to -220.60 meV
       hydro 2 p 1.8
       hydro 3 d 6.8
       hydro 3 s 5.8
  #  "Second tier" - improvements: -80.21 meV to -6.86 meV
  #     hydro 4 f 10.8
  #     hydro 3 p 5.8
  #     hydro 1 s 0.8
  #     hydro 5 g 16
  #     hydro 3 d 4.9
  #  "Third tier" - improvements: -4.29 meV to -0.53 meV
  #     hydro 3 s 16
  #     ionic 2 p auto
  #     hydro 3 d 6.6
  #     hydro 4 f 11.6
  #  "Fourth tier" - improvements: -0.75 meV to -0.25 meV
  #     hydro 2 p 4.5
  #     hydro 2 s 2.4
  #     hydro 5 g 14.4
  #     hydro 4 d 14.4
  #     hydro 4 f 16.8
  # Further basis functions - -0.21 meV and below
  #     hydro 3 p 14.8
  #     hydro 3 s 4.4
  #     hydro 3 d 19.6
  #     hydro 5 g 12.8
  ################################################################################
  #
  #  FHI-aims code project
  #  VB, Fritz-Haber Institut, 2009
  #
  #  Suggested "light" defaults for O atom (to be pasted into control.in file)
  #  Be sure to double-check any results obtained with these settings for post-processing,
  #  e.g., with the "tight" defaults and larger basis sets.
  #
  ################################################################################
    species        O
  #     global species definitions
      nucleus             8
      mass                15.9994
  #
      l_hartree           4
  #
      cut_pot             3.5  1.5  1.0
      basis_dep_cutoff    1e-4
  #
      radial_base         36 5.0
      radial_multiplier   1
       angular_grids specified
        division   0.2659   50
        division   0.4451  110
        division   0.6052  194
        division   0.7543  302
  #      division   0.8014  434
  #      division   0.8507  590
  #      division   0.8762  770
  #      division   0.9023  974
  #      division   1.2339 1202
  #      outer_grid 974
        outer_grid 302
  ################################################################################
  #
  #  Definition of "minimal" basis
  #
  ################################################################################
  #     valence basis states
      valence      2  s   2.
      valence      2  p   4.
  #     ion occupancy
      ion_occ      2  s   1.
      ion_occ      2  p   3.
  ################################################################################
  #
  #  Suggested additional basis functions. For production calculations,
  #  uncomment them one after another (the most important basis functions are
  #  listed first).
  #
  #  Constructed for dimers: 1.0 A, 1.208 A, 1.5 A, 2.0 A, 3.0 A
  #
  ################################################################################
  #  "First tier" - improvements: -699.05 meV to -159.38 meV
       hydro 2 p 1.8
       hydro 3 d 7.6
       hydro 3 s 6.4
  #  "Second tier" - improvements: -49.91 meV to -5.39 meV
  #     hydro 4 f 11.6
  #     hydro 3 p 6.2
  #     hydro 3 d 5.6
  #     hydro 5 g 17.6
  #     hydro 1 s 0.75
  #  "Third tier" - improvements: -2.83 meV to -0.50 meV
  #     ionic 2 p auto
  #     hydro 4 f 10.8
  #     hydro 4 d 4.7
  #     hydro 2 s 6.8
  #  "Fourth tier" - improvements: -0.40 meV to -0.12 meV
  #     hydro 3 p 5
  #     hydro 3 s 3.3
  #     hydro 5 g 15.6
  #     hydro 4 f 17.6
  #     hydro 4 d 14
  # Further basis functions - -0.08 meV and below
  #     hydro 3 s 2.1
  #     hydro 4 d 11.6
  #     hydro 3 p 16
  #     hydro 2 s 17.2
  
  -----------------------------------------------------------------------
  Completed first pass over input file control.in .
  -----------------------------------------------------------------------
  
  
  -----------------------------------------------------------------------
  Parsing geometry.in (first pass over file, find array dimensions only).
  The contents of geometry.in will be repeated verbatim below
  unless switched off by setting 'verbatim_writeout .false.' .
  in the first line of geometry.in .
  -----------------------------------------------------------------------
  
  atom  0.00000 0.00000 0.00000 C
  atom  1.09300 0.00000 0.00000 H
  atom  -0.47961 0.00000 -1.41207 N
  atom  -0.22166 0.88756 -1.84512 H
  atom  -0.04011 -0.77360 -1.90655 H
  atom  -0.49584 1.26211 0.72868 C
  atom  -1.58789 1.28919 0.74431 H
  atom  -0.13407 1.27425 1.75947 H
  atom  -0.13407 2.16087 0.22380 H
  atom  -0.39425 -1.28861 0.74398 C
  atom  -0.10189 -1.56493 1.88303 O
  atom  -1.10210 -2.13717 0.06896 O
  atom  -1.97944 -1.89129 0.40778 H
  
  -----------------------------------------------------------------------
  Completed first pass over input file geometry.in .
  -----------------------------------------------------------------------
  

  Basic array size parameters:
  | Number of species                 :        4
  | Number of atoms                   :       13
  | Max. basis fn. angular momentum   :        2
  | Max. atomic/ionic basis occupied n:        2
  | Max. number of basis fn. types    :        2
  | Max. radial fns per species/type  :        3
  | Max. logarithmic grid size        :     1301
  | Max. radial integration grid size :       36
  | Max. angular integration grid size:      302
  | Max. angular grid division number :        8
  | Radial grid for Hartree potential :     1301
  | Number of spin channels           :        1

------------------------------------------------------------
          Reading file control.in.
------------------------------------------------------------
  XC: Using PBE gradient-corrected functionals.
  Spin treatment: No spin polarisation.
  Non-relativistic treatment of kinetic energy.
  Charge =   0.000000E+00: Neutral system requested explicitly.
  Occupation type: Gaussian broadening, width =   0.100000E-01 eV.
  Using pulay charge density mixing.
  Pulay mixing - number of memorized iterations:   10
  Charge density mixing - mixing parameter:     0.2000
  Convergence accuracy of self-consistent charge density:  0.1000E-04
  Convergence accuracy of sum of eigenvalues:  0.1000E-02
  Convergence accuracy of total energy:  0.1000E-05
  Convergence accuracy of forces:  0.1000E-03
  Maximum number of s.-c. iterations  :   100
 
  Reading configuration options for species H                   .
  | Found nuclear charge :   1.0000
  | Found atomic mass :    1.00794000000000      amu
  | Found l_max for Hartree potential  :   4
  | Found cutoff potl. onset [A], width [A], scale factor :    3.50000    1.50000    1.00000
  | Threshold for basis-dependent cutoff potential is   0.100000E-03
  | Found data for basic radial integration grid :    24 points, outermost radius =    5.000 A
  | Found multiplier for basic radial grid :   1
  | Found angular grid specification: user-specified.
  | Specified grid contains     5 separate shells.
  | Check grid settings after all constraints further below.
  | Found free-atom valence shell :  1 s   1.000
  | No ionic wave fns used. Skipping ion_occ.
  | Found hydrogenic basis function :  2 s   2.100
  | Found hydrogenic basis function :  2 p   3.500
  Species H                   : Missing cutoff potential type.
  Defaulting to exp(1/x)/(1-x)^2 type cutoff potential.
  Species H : No 'logarithmic' tag. Using default grid for free atom:
  | Default logarithmic grid data [bohr] : 0.1000E-03 0.1000E+03 0.1012E+01
  Species H : On-site basis accuracy parameter (for Gram-Schmidt orthonormalisation) not specified.
  Using default value basis_acc =  0.1000000E-03.
  Species H                   : Using default innermost maximum threshold i_radial=  2 for radial functions.
  Species H                   : Default cutoff onset for free atom density etc. : 0.35000000E+01 AA.
  Species H                   : Basic radial grid will be enhanced according to radial_multiplier =   1, to contain    24 grid points.
 
  Reading configuration options for species C                   .
  | Found nuclear charge :   6.0000
  | Found atomic mass :    12.0107000000000      amu
  | Found l_max for Hartree potential  :   4
  | Found cutoff potl. onset [A], width [A], scale factor :    3.50000    1.50000    1.00000
  | Threshold for basis-dependent cutoff potential is   0.100000E-03
  | Found data for basic radial integration grid :    34 points, outermost radius =    5.000 A
  | Found multiplier for basic radial grid :   1
  | Found angular grid specification: user-specified.
  | Specified grid contains     5 separate shells.
  | Check grid settings after all constraints further below.
  | Found free-atom valence shell :  2 s   2.000
  | Found free-atom valence shell :  2 p   2.000
  | No ionic wave fns used. Skipping ion_occ.
  | No ionic wave fns used. Skipping ion_occ.
  | Found hydrogenic basis function :  2 p   1.700
  | Found hydrogenic basis function :  3 d   6.000
  | Found hydrogenic basis function :  2 s   4.900
  Species C                   : Missing cutoff potential type.
  Defaulting to exp(1/x)/(1-x)^2 type cutoff potential.
  Species C : No 'logarithmic' tag. Using default grid for free atom:
  | Default logarithmic grid data [bohr] : 0.1000E-03 0.1000E+03 0.1012E+01
  Species C : On-site basis accuracy parameter (for Gram-Schmidt orthonormalisation) not specified.
  Using default value basis_acc =  0.1000000E-03.
  Species C                   : Using default innermost maximum threshold i_radial=  2 for radial functions.
  Species C                   : Default cutoff onset for free atom density etc. : 0.35000000E+01 AA.
  Species C                   : Basic radial grid will be enhanced according to radial_multiplier =   1, to contain    34 grid points.
 
  Reading configuration options for species N                   .
  | Found nuclear charge :   7.0000
  | Found atomic mass :    14.0067000000000      amu
  | Found l_max for Hartree potential  :   4
  | Found cutoff potl. onset [A], width [A], scale factor :    3.50000    1.50000    1.00000
  | Threshold for basis-dependent cutoff potential is   0.100000E-03
  | Found data for basic radial integration grid :    35 points, outermost radius =    5.000 A
  | Found multiplier for basic radial grid :   1
  | Found angular grid specification: user-specified.
  | Specified grid contains     5 separate shells.
  | Check grid settings after all constraints further below.
  | Found free-atom valence shell :  2 s   2.000
  | Found free-atom valence shell :  2 p   3.000
  | No ionic wave fns used. Skipping ion_occ.
  | No ionic wave fns used. Skipping ion_occ.
  | Found hydrogenic basis function :  2 p   1.800
  | Found hydrogenic basis function :  3 d   6.800
  | Found hydrogenic basis function :  3 s   5.800
  Species N                   : Missing cutoff potential type.
  Defaulting to exp(1/x)/(1-x)^2 type cutoff potential.
  Species N : No 'logarithmic' tag. Using default grid for free atom:
  | Default logarithmic grid data [bohr] : 0.1000E-03 0.1000E+03 0.1012E+01
  Species N : On-site basis accuracy parameter (for Gram-Schmidt orthonormalisation) not specified.
  Using default value basis_acc =  0.1000000E-03.
  Species N                   : Using default innermost maximum threshold i_radial=  2 for radial functions.
  Species N                   : Default cutoff onset for free atom density etc. : 0.35000000E+01 AA.
  Species N                   : Basic radial grid will be enhanced according to radial_multiplier =   1, to contain    35 grid points.
 
  Reading configuration options for species O                   .
  | Found nuclear charge :   8.0000
  | Found atomic mass :    15.9994000000000      amu
  | Found l_max for Hartree potential  :   4
  | Found cutoff potl. onset [A], width [A], scale factor :    3.50000    1.50000    1.00000
  | Threshold for basis-dependent cutoff potential is   0.100000E-03
  | Found data for basic radial integration grid :    36 points, outermost radius =    5.000 A
  | Found multiplier for basic radial grid :   1
  | Found angular grid specification: user-specified.
  | Specified grid contains     5 separate shells.
  | Check grid settings after all constraints further below.
  | Found free-atom valence shell :  2 s   2.000
  | Found free-atom valence shell :  2 p   4.000
  | No ionic wave fns used. Skipping ion_occ.
  | No ionic wave fns used. Skipping ion_occ.
  | Found hydrogenic basis function :  2 p   1.800
  | Found hydrogenic basis function :  3 d   7.600
  | Found hydrogenic basis function :  3 s   6.400
  Species O                   : Missing cutoff potential type.
  Defaulting to exp(1/x)/(1-x)^2 type cutoff potential.
  Species O : No 'logarithmic' tag. Using default grid for free atom:
  | Default logarithmic grid data [bohr] : 0.1000E-03 0.1000E+03 0.1012E+01
  Species O : On-site basis accuracy parameter (for Gram-Schmidt orthonormalisation) not specified.
  Using default value basis_acc =  0.1000000E-03.
  Species O                   : Using default innermost maximum threshold i_radial=  2 for radial functions.
  Species O                   : Default cutoff onset for free atom density etc. : 0.35000000E+01 AA.
  Species O                   : Basic radial grid will be enhanced according to radial_multiplier =   1, to contain    36 grid points.
 
  Finished reading input file 'control.in'. Consistency checks are next.
 
  MPI_IN_PLACE appears to work with this MPI implementation.
  | Keeping use_mpi_in_place .true. (see manual).
  Target number of points in a grid batch is not set. Defaulting to  100
  Method for grid partitioning is not set. Defaulting to parallel hash+maxmin partitioning.
  Batch size limit is not set. Defaulting to    200
  By default, will store active basis functions for each batch.
  If in need of memory, prune_basis_once .false. can be used to disable this option.
  communication_type for Hartree potential was not specified.
  Defaulting to calc_hartree .
  Pulay mixer: Number of initial linear mixing iterations not set.
  Defaulting to    0 iterations.
  Work space size for distributed Hartree potential not set.
  Defaulting to   0.200000E+03 MB.
  Algorithm-dependent basis array size parameters:
  | n_max_pulay                         :       10
  Presetting      1001 iterations before the initial mixing cycle
  is restarted anyway using the sc_init_iter criterion / keyword.
  Presetting a factor      1.000 between actual scf density residual
  and density convergence criterion sc_accuracy_rho below which sc_init_iter
  takes no effect.
  Geometry relaxation not requested: no relaxation will be performed.
  Handling of forces: Unphysical translation and rotation will be removed from forces.
  No accuracy limit for integral partition fn. given. Defaulting to  0.1000E-14.
  No threshold value for u(r) in integrations given. Defaulting to  0.1000E-05.
  No accuracy for occupation numbers given. Defaulting to  0.1000E-12.
  No threshold value for occupation numbers given. Defaulting to  0.0000E+00.
  No accuracy for fermi level given. Defaulting to  0.1000E-19.
  Maximum # of iterations to find E_F not set. Defaulting to  200.
  Preferred method for the eigenvalue solver ('KS_method') not specified in 'control.in'.
  Defaulting to serial version, 'lapack_fast'.
  Will not use alltoall communication since running on < 1024 CPUs.
  Threshold for basis singularities not set.
  Default threshold for basis singularities:  0.1000E-04
  partition_type (choice of integration weights) for integrals was not specified.
  | Using a version of the partition function of Stratmann and coworkers ('stratmann_smoother').
  | At each grid point, the set of atoms used to build the partition table is smoothly restricted to
  | only those atoms whose free-atom density would be non-zero at that grid point.
  Partitioning for Hartree potential was not defined. Using partition_type for integrals.
  | Adjusted default value of keyword multip_moments_threshold to:       0.10000000E-11
  | This value may affect high angular momentum components of the Hartree potential in periodic systems.
  No q(lm)/r^(l+1) cutoff set for long-range Hartree potential.
  | Using default value of  0.100000E-09 .
  | Verify using the multipole_threshold keyword.
  Defaulting to new monopole extrapolation.
  Density update method: automatic selection selected.
------------------------------------------------------------


------------------------------------------------------------
          Reading geometry description geometry.in.
------------------------------------------------------------
  Input structure read successfully.
  The structure contains       13 atoms,  and a total of         48.000 electrons.

  Input geometry:
  | No unit cell requested.
  | Atomic structure:
  |       Atom                x [A]            y [A]            z [A]
  |    1: Species C             0.00000000        0.00000000        0.00000000
  |    2: Species H             1.09300000        0.00000000        0.00000000
  |    3: Species N            -0.47961000        0.00000000       -1.41207000
  |    4: Species H            -0.22166000        0.88756000       -1.84512000
  |    5: Species H            -0.04011000       -0.77360000       -1.90655000
  |    6: Species C            -0.49584000        1.26211000        0.72868000
  |    7: Species H            -1.58789000        1.28919000        0.74431000
  |    8: Species H            -0.13407000        1.27425000        1.75947000
  |    9: Species H            -0.13407000        2.16087000        0.22380000
  |   10: Species C            -0.39425000       -1.28861000        0.74398000
  |   11: Species O            -0.10189000       -1.56493000        1.88303000
  |   12: Species O            -1.10210000       -2.13717000        0.06896000
  |   13: Species H            -1.97944000       -1.89129000        0.40778000
  |

  | The smallest distance between any two atoms is         0.97210156 AA.
  |
  | The first atom of this pair is atom number                     12 .
  | The second atom of this pair is atom number                    13 .

  Number of empty states per atom not set in control.in - providing a guess from actual geometry.
  | Total number of empty states used during s.c.f. cycle:       29
  If you use a very high smearing, use empty_states (per atom!) in control.in to increase this value.

  Structure-dependent array size parameters: 
  | Maximum number of distinct radial functions  :       21
  | Maximum number of basis functions            :      119
  | Number of Kohn-Sham states (occupied + empty):       53
------------------------------------------------------------

------------------------------------------------------------
          Preparing all fixed parts of the calculation.
------------------------------------------------------------
  Determining machine precision:
    2.225073858507201E-308
  Setting up grids for atomic and cluster calculations.

  Creating wave function, potential, and density for free atoms.

  Species: H

  List of occupied orbitals and eigenvalues:
    n    l              occ      energy [Ha]    energy [eV]
    1    0           1.0000        -0.237589        -6.4651


  Species: C

  List of occupied orbitals and eigenvalues:
    n    l              occ      energy [Ha]    energy [eV]
    1    0           2.0000       -10.038835      -273.1706
    2    0           2.0000        -0.502696       -13.6791
    2    1           2.0000        -0.191971        -5.2238


  Species: N

  List of occupied orbitals and eigenvalues:
    n    l              occ      energy [Ha]    energy [eV]
    1    0           2.0000       -14.128000      -384.4424
    2    0           2.0000        -0.681077       -18.5330
    2    1           3.0000        -0.259788        -7.0692


  Species: O

  List of occupied orbitals and eigenvalues:
    n    l              occ      energy [Ha]    energy [eV]
    1    0           2.0000       -18.898188      -514.2459
    2    0           2.0000        -0.878505       -23.9053
    2    1           4.0000        -0.331779        -9.0282

  Creating fixed part of basis set: Ionic, confined, hydrogenic.
 
  H                    hydrogenic:
 
  List of hydrogenic basis orbitals: 
    n    l      effective z      eigenvalue [eV]  inner max. [A]     outer max. [A]     outer radius [A]   
    2    0         2.100000       -14.9728           0.193243           1.317208           4.583499
    2    1         3.500000       -41.6669           0.602369           0.602369           3.723403
 
 
  C                    hydrogenic:
 
  List of hydrogenic basis orbitals: 
    n    l      effective z      eigenvalue [eV]  inner max. [A]     outer max. [A]     outer radius [A]   
    2    1         1.700000        -9.7616           1.230570           1.230570           4.607917
    3    2         6.000000       -54.4224           0.792453           0.792453           3.883070
    2    0         4.900000       -81.6679           0.082559           0.562749           3.078220
 
 
  N                    hydrogenic:
 
  List of hydrogenic basis orbitals: 
    n    l      effective z      eigenvalue [eV]  inner max. [A]     outer max. [A]     outer radius [A]   
    2    1         1.800000       -10.9749           1.177451           1.177451           4.573712
    3    2         6.800000       -69.9026           0.704619           0.704619           3.538137
    3    0         5.800000       -50.8545           0.067388           1.191934           4.250239
 
 
  O                    hydrogenic:
 
  List of hydrogenic basis orbitals: 
    n    l      effective z      eigenvalue [eV]  inner max. [A]     outer max. [A]     outer radius [A]   
    2    1         1.800000       -10.9749           1.164242           1.164242           4.578029
    3    2         7.600000       -87.3180           0.624125           0.624125           3.251020
    3    0         6.400000       -61.9207           0.061167           1.081902           4.001998
 

  Adding cutoff potential to free-atom effective potential.
  Creating atomic-like basis functions for current effective potential.

  Species H                   :

  List of atomic basis orbitals and eigenvalues:
    n    l      energy [Ha]    energy [eV]    outer radius [A]
    1    0        -0.237589        -6.4651       4.527807


  Species C                   :

  List of atomic basis orbitals and eigenvalues:
    n    l      energy [Ha]    energy [eV]    outer radius [A]
    1    0       -10.038835      -273.1706       1.934409
    2    0        -0.502696       -13.6791       4.496620
    2    1        -0.191971        -5.2238       4.551928


  Species N                   :

  List of atomic basis orbitals and eigenvalues:
    n    l      energy [Ha]    energy [eV]    outer radius [A]
    1    0       -14.128000      -384.4424       1.637919
    2    0        -0.681077       -18.5330       4.463241
    2    1        -0.259788        -7.0692       4.518138


  Species O                   :

  List of atomic basis orbitals and eigenvalues:
    n    l      energy [Ha]    energy [eV]    outer radius [A]
    1    0       -18.898188      -514.2459       1.415765
    2    0        -0.878505       -23.9053       4.413171
    2    1        -0.331779        -9.0282       4.522403

  Assembling full basis from fixed parts.
  | Species H :   atomic orbital   1 s accepted.
  | Species H :    hydro orbital   2 s accepted.
  | Species H :    hydro orbital   2 p accepted.
  | Species C :   atomic orbital   1 s accepted.
  | Species C :    hydro orbital   2 s accepted.
  | Species C :   atomic orbital   2 s accepted.
  | Species C :   atomic orbital   2 p accepted.
  | Species C :    hydro orbital   2 p accepted.
  | Species C :    hydro orbital   3 d accepted.
  | Species N :   atomic orbital   1 s accepted.
  | Species N :    hydro orbital   3 s accepted.
  | Species N :   atomic orbital   2 s accepted.
  | Species N :   atomic orbital   2 p accepted.
  | Species N :    hydro orbital   2 p accepted.
  | Species N :    hydro orbital   3 d accepted.
  | Species O :   atomic orbital   1 s accepted.
  | Species O :    hydro orbital   3 s accepted.
  | Species O :   atomic orbital   2 s accepted.
  | Species O :   atomic orbital   2 p accepted.
  | Species O :    hydro orbital   2 p accepted.
  | Species O :    hydro orbital   3 d accepted.
 
  Basis size parameters after reduction:
  | Total number of radial functions:       21
  | Total number of basis functions :      119
 
  Per-task memory consumption for arrays in subroutine allocate_ext:
  |           5.250512MB.
  Testing on-site integration grid accuracy.
  |  Species  Function  <phi|h_atom|phi> (log., in eV)  <phi|h_atom|phi> (rad., in eV)
           1        1                 -6.4663192853                 -6.4651273558
           1        2                 13.7111246313                 13.7170609718
           1        3                 25.2673269279                 25.2674696378
           2        4               -273.1705927641               -273.1705631568
           2        5                -10.7109323383                -10.7107120029
           2        6                 17.4381822266                 17.4352413244
           2        7                 -5.2255326521                 -5.2270484734
           2        8                  8.6835629259                  8.6603288385
           2        9                 27.4952418996                 27.4953360207
           3       10               -384.4424306495               -384.4423701208
           3       11                 12.5842251816                 12.5842222903
           3       12                -15.7264628251                -15.7264433455
           3       13                 -7.0696854293                 -7.0701769954
           3       14                  8.8090390882                  8.7901077751
           3       15                 35.9586762123                 35.9588528632
           4       16               -514.2458688638               -514.2457643834
           4       17                 15.1795651126                 15.1795290741
           4       18                -21.5359799773                -21.5360846186
           4       19                 -9.0283069236                 -9.0284644067
           4       20                  8.3027758564                  8.2834874195
           4       21                 45.8339351984                 45.8338762259

  Preparing densities etc. for the partition functions (integrals / Hartree potential).

  Preparations completed.
  max(cpu_time)          :      0.144 s.
  Wall clock time (cpu1) :      0.146 s.
------------------------------------------------------------

------------------------------------------------------------
          Begin self-consistency loop: Initialization.

          Date     :  20200805, Time     :  184506.358
------------------------------------------------------------

  Initializing index lists of integration centers etc. from given atomic structure:
  | Number of centers in hartree potential         :        13
  | Number of centers in hartree multipole         :        13
  | Number of centers in electron density summation:        13
  | Number of centers in basis integrals           :        13
  | Number of centers in integrals                 :        13
  | Number of centers in hamiltonian               :        13
  Partitioning the integration grid into batches with parallel hashing+maxmin method.
  | Number of batches:      958
  | Maximal batch size:     139
  | Minimal batch size:      66
  | Average batch size:      72.699
  | Standard deviation of batch sizes:      17.278

  Integration load balanced across     1 MPI tasks.
  Work distribution over tasks is as follows:
  Task     0 has      69646 integration points.
  Initializing partition tables, free-atom densities, potentials, etc. across the integration grid (initialize_grid_storage).
  | initialize_grid_storage: Actual outermost partition radius vs. multipole_radius_free
  | (-- VB: in principle, multipole_radius_free should be larger, hence this output)
  | Species        1: Confinement radius =              4.999999999999999 AA, multipole_radius_free =              5.054417573612229 AA.
  | Species        1: outer_partition_radius set to              5.054417573612229 AA .
  | Species        2: Confinement radius =              4.999999999999999 AA, multipole_radius_free =              5.019602836301480 AA.
  | Species        2: outer_partition_radius set to              5.019602836301480 AA .
  | Species        3: Confinement radius =              4.999999999999999 AA, multipole_radius_free =              5.043624274424571 AA.
  | Species        3: outer_partition_radius set to              5.043624274424571 AA .
  | Species        4: Confinement radius =              4.999999999999999 AA, multipole_radius_free =              5.048384829883283 AA.
  | Species        4: outer_partition_radius set to              5.048384829883283 AA .
  | Original list of interatomic distances with          13 x         13 entries is created.
  | Net number of integration points:    69646
  | of which are non-zero points    :    59537
  Renormalizing the initial density to the exact electron count on the 3D integration grid.
  | Initial density: Formal number of electrons (from input files) :      48.0000000000
  | Integrated number of electrons on 3D grid     :      47.9999099035
  | Charge integration error                      :      -0.0000900965
  | Normalization factor for density and gradient :       1.0000018770
  Obtaining max. number of non-zero basis functions in each batch (get_n_compute_maxes).
  | Maximal number of non-zero basis functions:      119 in task     0
  Selecting the method for density update.
  Loop over occupied states selected for charge density update.
  Allocating        0.050 MB for KS_eigenvector
  Integrating Hamiltonian matrix: batch-based integration.
  Time summed over all CPUs for integration: real work        0.492 s, elapsed        0.492 s
  Integrating overlap matrix.
  Time summed over all CPUs for integration: real work        0.211 s, elapsed        0.211 s

  Updating Kohn-Sham eigenvalues and eigenvectors using ELSI and the ELPA eigensolver.
  Overlap matrix is nonsingular
  | Lowest eigenvalue of overlap  :  0.51E-02
  | Highest eigenvalue of overlap :  0.61E+01
  Finished singularity check of overlap matrix
  | Time :     0.002 s
  Finished Cholesky decomposition
  | Time :     0.000 s
  Finished transformation to standard eigenproblem
  | Time :     0.000 s
  Starting LAPACK eigensolver
  Finished solving standard eigenproblem
  | Time :     0.002 s
  Finished back-transformation of eigenvectors
  | Time :     0.000 s

  Obtaining occupation numbers and chemical potential using ELSI.
  | Chemical potential (Fermi level):    -9.36568328eV
  Writing Kohn-Sham eigenvalues.

  State    Occupation    Eigenvalue [Ha]    Eigenvalue [eV]
      1       2.00000         -19.007614         -517.22349
      2       2.00000         -18.977374         -516.40062
      3       2.00000         -14.245812         -387.64827
      4       2.00000         -10.166708         -276.65020
      5       2.00000         -10.141302         -275.95886
      6       2.00000         -10.131957         -275.70458
      7       2.00000          -1.183765          -32.21190
      8       2.00000          -1.096455          -29.83606
      9       2.00000          -0.991095          -26.96906
     10       2.00000          -0.860728          -23.42161
     11       2.00000          -0.757036          -20.60000
     12       2.00000          -0.677607          -18.43863
     13       2.00000          -0.624242          -16.98649
     14       2.00000          -0.603394          -16.41918
     15       2.00000          -0.598083          -16.27467
     16       2.00000          -0.568091          -15.45854
     17       2.00000          -0.552764          -15.04148
     18       2.00000          -0.529708          -14.41410
     19       2.00000          -0.513889          -13.98363
     20       2.00000          -0.507922          -13.82126
     21       2.00000          -0.459584          -12.50593
     22       2.00000          -0.426312          -11.60054
     23       2.00000          -0.404179          -10.99827
     24       2.00000          -0.383817          -10.44420
     25       0.00000          -0.163166           -4.43996
     26       0.00000          -0.063796           -1.73598
     27       0.00000          -0.034736           -0.94520
     28       0.00000          -0.021561           -0.58669
     29       0.00000           0.005180            0.14095
     30       0.00000           0.009554            0.25998
     31       0.00000           0.016802            0.45722
     32       0.00000           0.030609            0.83291
     33       0.00000           0.045973            1.25099
     34       0.00000           0.064768            1.76243
     35       0.00000           0.079179            2.15456
     36       0.00000           0.134289            3.65419
     37       0.00000           0.157520            4.28635
     38       0.00000           0.208519            5.67410
     39       0.00000           0.218248            5.93882
     40       0.00000           0.224535            6.10991
     41       0.00000           0.253256            6.89144
     42       0.00000           0.268544            7.30745
     43       0.00000           0.287026            7.81038
     44       0.00000           0.296091            8.05704
     45       0.00000           0.315467            8.58431
     46       0.00000           0.366874            9.98316
     47       0.00000           0.377934           10.28410
     48       0.00000           0.413655           11.25612
     49       0.00000           0.461012           12.54478
     50       0.00000           0.468844           12.75788
     51       0.00000           0.482380           13.12622
     52       0.00000           0.523880           14.25550
     53       0.00000           0.573691           15.61093

  Highest occupied state (VBM) at    -10.44419920 eV
  | Occupation number:      2.00000000

  Lowest unoccupied state (CBM) at    -4.43995945 eV
  | Occupation number:      0.00000000

  Overall HOMO-LUMO gap:      6.00423975 eV.
  Calculating total energy contributions from superposition of free atom densities.

  Total energy components:
  | Sum of eigenvalues            :        -188.81888007 Ha       -5138.02314657 eV
  | XC energy correction          :         -41.78253172 Ha       -1136.96053590 eV
  | XC potential correction       :          53.71146428 Ha        1461.56330653 eV
  | Free-atom electrostatic energy:        -146.86773846 Ha       -3996.47450180 eV
  | Hartree energy correction     :           0.00000000 Ha           0.00000000 eV
  | vdW energy correction         :           0.00000000 Ha           0.00000000 eV
  | Entropy correction            :           0.00000000 Ha           0.00000000 eV
  | ---------------------------
  | Total energy                  :        -323.75768597 Ha       -8809.89487774 eV
  | Total energy, T -> 0          :        -323.75768597 Ha       -8809.89487774 eV  <-- do not rely on this value for anything but (periodic) metals
  | Electronic free energy        :        -323.75768597 Ha       -8809.89487774 eV

  Derived energy quantities:
  | Kinetic energy                :         320.48585042 Ha        8720.86370250 eV
  | Electrostatic energy          :        -602.46100467 Ha      -16393.79804434 eV
  | Energy correction for multipole
  | error in Hartree potential    :           0.00000000 Ha           0.00000000 eV
  | Sum of eigenvalues per atom                           :        -395.23254974 eV
  | Total energy (T->0) per atom                          :        -677.68422136 eV  <-- do not rely on this value for anything but (periodic) metals
  | Electronic free energy per atom                       :        -677.68422136 eV
  Initialize hartree_potential_storage
  Max. number of atoms included in rho_multipole:           13

  End scf initialization - timings             :  max(cpu_time)    wall_clock(cpu1)
  | Time for scf. initialization               :        1.145 s           1.146 s
  | Boundary condition initialization          :        0.000 s           0.000 s
  | Integration                                :        0.703 s           0.704 s
  | Solution of K.-S. eqns.                    :        0.004 s           0.004 s
  | Grid partitioning                          :        0.111 s           0.111 s
  | Preloading free-atom quantities on grid    :        0.002 s           0.002 s
  | Free-atom superposition energy             :        0.084 s           0.085 s
  | Total energy evaluation                    :        0.000 s           0.000 s

  Partial memory accounting:
  | Current value for overall tracked memory usage on task 0  :           0.165 MB
  | Peak value for overall tracked memory usage on task 0     :           0.678 MB after allocating wave
  | Largest tracked array allocation on task 0 so far         :           0.132 MB  when allocating H_times_psi
  Note:  These values currently only include a subset of arrays which are explicitly tracked.
  The "true" memory usage will be greater.
------------------------------------------------------------

------------------------------------------------------------
          Begin self-consistency iteration #    1

  Date     :  20200805, Time     :  184507.504
------------------------------------------------------------
  Evaluating new KS density.
  Integration grid: deviation in total charge (<rho> - N_e) =   3.552714E-14
  Pulay mixing of updated and previous charge densities.

  Evaluating partitioned Hartree potential by multipole expansion.
  | Analytical far-field extrapolation by fixed multipoles:
  | Hartree multipole sum: apparent total charge =  -0.195463E-03
  Summing up the Hartree potential.
  Time summed over all CPUs for potential: real work        0.281 s, elapsed        0.281 s
  | RMS charge density error from multipole expansion :   0.586039E-02

  Integrating Hamiltonian matrix: batch-based integration.
  Time summed over all CPUs for integration: real work        0.491 s, elapsed        0.491 s

  Updating Kohn-Sham eigenvalues and eigenvectors using ELSI and the ELPA eigensolver.
  Finished Cholesky decomposition
  | Time :     0.000 s
  Finished transformation to standard eigenproblem
  | Time :     0.000 s
  Starting LAPACK eigensolver
  Finished solving standard eigenproblem
  | Time :     0.002 s
  Finished back-transformation of eigenvectors
  | Time :     0.000 s

  Obtaining occupation numbers and chemical potential using ELSI.
  | Chemical potential (Fermi level):    -8.18806130eV
  Writing Kohn-Sham eigenvalues.

  State    Occupation    Eigenvalue [Ha]    Eigenvalue [eV]
      1       2.00000         -18.892707         -514.09672
      2       2.00000         -18.839869         -512.65892
      3       2.00000         -14.095894         -383.56879
      4       2.00000         -10.116894         -275.29468
      5       2.00000         -10.062761         -273.82165
      6       2.00000         -10.032985         -273.01140
      7       2.00000          -1.131197          -30.78144
      8       2.00000          -1.032662          -28.10015
      9       2.00000          -0.921193          -25.06693
     10       2.00000          -0.795316          -21.64165
     11       2.00000          -0.705688          -19.20274
     12       2.00000          -0.629167          -17.12051
     13       2.00000          -0.567212          -15.43462
     14       2.00000          -0.551094          -14.99604
     15       2.00000          -0.533496          -14.51717
     16       2.00000          -0.509236          -13.85702
     17       2.00000          -0.490319          -13.34227
     18       2.00000          -0.470486          -12.80257
     19       2.00000          -0.450457          -12.25756
     20       2.00000          -0.446907          -12.16096
     21       2.00000          -0.397785          -10.82428
     22       2.00000          -0.367372           -9.99671
     23       2.00000          -0.331487           -9.02021
     24       2.00000          -0.312420           -8.50137
     25       0.00000          -0.127809           -3.47787
     26       0.00000          -0.041317           -1.12429
     27       0.00000          -0.008227           -0.22387
     28       0.00000           0.016348            0.44486
     29       0.00000           0.037018            1.00731
     30       0.00000           0.042869            1.16652
     31       0.00000           0.058417            1.58962
     32       0.00000           0.069308            1.88598
     33       0.00000           0.084792            2.30731
     34       0.00000           0.105032            2.85806
     35       0.00000           0.119801            3.25996
     36       0.00000           0.162190            4.41341
     37       0.00000           0.182968            4.97883
     38       0.00000           0.239108            6.50647
     39       0.00000           0.250249            6.80961
     40       0.00000           0.260747            7.09528
     41       0.00000           0.287500            7.82329
     42       0.00000           0.300445            8.17552
     43       0.00000           0.327133            8.90174
     44       0.00000           0.331951            9.03284
     45       0.00000           0.356016            9.68768
     46       0.00000           0.411727           11.20365
     47       0.00000           0.415539           11.30738
     48       0.00000           0.449986           12.24473
     49       0.00000           0.495965           13.49588
     50       0.00000           0.504464           13.72716
     51       0.00000           0.518295           14.10352
     52       0.00000           0.557013           15.15709
     53       0.00000           0.613445           16.69269

  Highest occupied state (VBM) at     -8.50137497 eV
  | Occupation number:      2.00000000

  Lowest unoccupied state (CBM) at    -3.47786529 eV
  | Occupation number:      0.00000000

  Overall HOMO-LUMO gap:      5.02350968 eV.

  Total energy components:
  | Sum of eigenvalues            :        -185.36920551 Ha       -5044.15272562 eV
  | XC energy correction          :         -42.11382588 Ha       -1145.97550889 eV
  | XC potential correction       :          54.14240360 Ha        1473.28976222 eV
  | Free-atom electrostatic energy:        -146.86773846 Ha       -3996.47450180 eV
  | Hartree energy correction     :          -3.36448421 Ha         -91.55227358 eV
  | vdW energy correction         :           0.00000000 Ha           0.00000000 eV
  | Entropy correction            :           0.00000000 Ha           0.00000000 eV
  | ---------------------------
  | Total energy                  :        -323.57285046 Ha       -8804.86524766 eV
  | Total energy, T -> 0          :        -323.57285046 Ha       -8804.86524766 eV  <-- do not rely on this value for anything but (periodic) metals
  | Electronic free energy        :        -323.57285046 Ha       -8804.86524766 eV

  Derived energy quantities:
  | Kinetic energy                :         322.29294113 Ha        8770.03714273 eV
  | Electrostatic energy          :        -603.75196571 Ha      -16428.92688151 eV
  | Energy correction for multipole
  | error in Hartree potential    :           0.01208832 Ha           0.32894006 eV
  | Sum of eigenvalues per atom                           :        -388.01174812 eV
  | Total energy (T->0) per atom                          :        -677.29732674 eV  <-- do not rely on this value for anything but (periodic) metals
  | Electronic free energy per atom                       :        -677.29732674 eV

  Self-consistency convergence accuracy:
  | Change of charge density      :  0.5908E+00
  | Change of sum of eigenvalues  :  0.9387E+02 eV
  | Change of total energy        :  0.5030E+01 eV

  End self-consistency iteration #     1       :  max(cpu_time)    wall_clock(cpu1)
  | Time for this iteration                    :        1.184 s           1.185 s
  | Charge density update                      :        0.394 s           0.394 s
  | Density mixing                             :        0.005 s           0.006 s
  | Hartree multipole update                   :        0.009 s           0.009 s
  | Hartree multipole summation                :        0.282 s           0.282 s
  | Integration                                :        0.491 s           0.491 s
  | Solution of K.-S. eqns.                    :        0.002 s           0.003 s
  | Total energy evaluation                    :        0.000 s           0.000 s

  Partial memory accounting:
  | Current value for overall tracked memory usage on task 0  :           0.165 MB
  | Peak value for overall tracked memory usage on task 0     :           0.695 MB after allocating gradient_basis_wave
  | Largest tracked array allocation on task 0 so far         :           0.397 MB  when allocating gradient_basis_wave
  Note:  These values currently only include a subset of arrays which are explicitly tracked.
  The "true" memory usage will be greater.
------------------------------------------------------------

------------------------------------------------------------
          Begin self-consistency iteration #    2

  Date     :  20200805, Time     :  184508.690
------------------------------------------------------------
  Evaluating new KS density.
  Integration grid: deviation in total charge (<rho> - N_e) =   2.131628E-14
  Pulay mixing of updated and previous charge densities.

  Evaluating partitioned Hartree potential by multipole expansion.
  | Analytical far-field extrapolation by fixed multipoles:
  | Hartree multipole sum: apparent total charge =  -0.329452E-03
  Summing up the Hartree potential.
  Time summed over all CPUs for potential: real work        0.281 s, elapsed        0.281 s
  | RMS charge density error from multipole expansion :   0.138659E-01

  Integrating Hamiltonian matrix: batch-based integration.
  Time summed over all CPUs for integration: real work        0.492 s, elapsed        0.492 s

  Updating Kohn-Sham eigenvalues and eigenvectors using ELSI and the ELPA eigensolver.
  Finished Cholesky decomposition
  | Time :     0.000 s
  Finished transformation to standard eigenproblem
  | Time :     0.000 s
  Starting LAPACK eigensolver
  Finished solving standard eigenproblem
  | Time :     0.001 s
  Finished back-transformation of eigenvectors
  | Time :     0.000 s

  Obtaining occupation numbers and chemical potential using ELSI.
  | Chemical potential (Fermi level):    -2.65757033eV
  Highest occupied state (VBM) at     -6.52365521 eV
  | Occupation number:      2.00000000

  Lowest unoccupied state (CBM) at    -2.25970325 eV
  | Occupation number:      0.00000000

  Overall HOMO-LUMO gap:      4.26395196 eV.

  Checking to see if s.c.f. parameters should be adjusted.

  Total energy components:
  | Sum of eigenvalues            :        -181.76720931 Ha       -4946.13742202 eV
  | XC energy correction          :         -42.47349137 Ha       -1155.76250465 eV
  | XC potential correction       :          54.60871438 Ha        1485.97872405 eV
  | Free-atom electrostatic energy:        -146.86773846 Ha       -3996.47450180 eV
  | Hartree energy correction     :          -6.99344724 Ha        -190.30138175 eV
  | vdW energy correction         :           0.00000000 Ha           0.00000000 eV
  | Entropy correction            :           0.00000000 Ha           0.00000000 eV
  | ---------------------------
  | Total energy                  :        -323.49317199 Ha       -8802.69708617 eV
  | Total energy, T -> 0          :        -323.49317199 Ha       -8802.69708617 eV  <-- do not rely on this value for anything but (periodic) metals
  | Electronic free energy        :        -323.49317199 Ha       -8802.69708617 eV

  Derived energy quantities:
  | Kinetic energy                :         323.60677469 Ha        8805.78837299 eV
  | Electrostatic energy          :        -604.62645532 Ha      -16452.72295450 eV
  | Energy correction for multipole
  | error in Hartree potential    :           0.02655968 Ha           0.72272565 eV
  | Sum of eigenvalues per atom                           :        -380.47210939 eV
  | Total energy (T->0) per atom                          :        -677.13054509 eV  <-- do not rely on this value for anything but (periodic) metals
  | Electronic free energy per atom                       :        -677.13054509 eV

  Self-consistency convergence accuracy:
  | Change of charge density      :  0.3693E+00
  | Change of sum of eigenvalues  :  0.9802E+02 eV
  | Change of total energy        :  0.2168E+01 eV

  End self-consistency iteration #     2       :  max(cpu_time)    wall_clock(cpu1)
  | Time for this iteration                    :        1.177 s           1.178 s
  | Charge density update                      :        0.386 s           0.386 s
  | Density mixing                             :        0.007 s           0.006 s
  | Hartree multipole update                   :        0.009 s           0.010 s
  | Hartree multipole summation                :        0.281 s           0.281 s
  | Integration                                :        0.492 s           0.493 s
  | Solution of K.-S. eqns.                    :        0.002 s           0.002 s
  | Total energy evaluation                    :        0.000 s           0.000 s

  Partial memory accounting:
  | Current value for overall tracked memory usage on task 0  :           0.166 MB
  | Peak value for overall tracked memory usage on task 0     :           0.695 MB after allocating gradient_basis_wave
  | Largest tracked array allocation on task 0 so far         :           0.397 MB  when allocating gradient_basis_wave
  Note:  These values currently only include a subset of arrays which are explicitly tracked.
  The "true" memory usage will be greater.
------------------------------------------------------------

------------------------------------------------------------
          Begin self-consistency iteration #    3

  Date     :  20200805, Time     :  184509.869
------------------------------------------------------------
  Evaluating new KS density.
  Integration grid: deviation in total charge (<rho> - N_e) =  -7.105427E-15
  Pulay mixing of updated and previous charge densities.

  Evaluating partitioned Hartree potential by multipole expansion.
  | Analytical far-field extrapolation by fixed multipoles:
  | Hartree multipole sum: apparent total charge =  -0.424375E-03
  Summing up the Hartree potential.
  Time summed over all CPUs for potential: real work        0.281 s, elapsed        0.281 s
  | RMS charge density error from multipole expansion :   0.217968E-01

  Integrating Hamiltonian matrix: batch-based integration.
  Time summed over all CPUs for integration: real work        0.492 s, elapsed        0.492 s

  Updating Kohn-Sham eigenvalues and eigenvectors using ELSI and the ELPA eigensolver.
  Finished Cholesky decomposition
  | Time :     0.000 s
  Finished transformation to standard eigenproblem
  | Time :     0.000 s
  Starting LAPACK eigensolver
  Finished solving standard eigenproblem
  | Time :     0.001 s
  Finished back-transformation of eigenvectors
  | Time :     0.000 s

  Obtaining occupation numbers and chemical potential using ELSI.
  | Chemical potential (Fermi level):    -1.95432337eV
  Highest occupied state (VBM) at     -5.83974489 eV
  | Occupation number:      2.00000000

  Lowest unoccupied state (CBM) at    -1.57945316 eV
  | Occupation number:      0.00000000

  Overall HOMO-LUMO gap:      4.26029174 eV.

  Total energy components:
  | Sum of eigenvalues            :        -180.46122839 Ha       -4910.59987304 eV
  | XC energy correction          :         -42.62376559 Ha       -1159.85167437 eV
  | XC potential correction       :          54.80042433 Ha        1491.19541734 eV
  | Free-atom electrostatic energy:        -146.86773846 Ha       -3996.47450180 eV
  | Hartree energy correction     :          -8.32752097 Ha        -226.60337503 eV
  | vdW energy correction         :           0.00000000 Ha           0.00000000 eV
  | Entropy correction            :           0.00000000 Ha           0.00000000 eV
  | ---------------------------
  | Total energy                  :        -323.47982907 Ha       -8802.33400690 eV
  | Total energy, T -> 0          :        -323.47982907 Ha       -8802.33400690 eV  <-- do not rely on this value for anything but (periodic) metals
  | Electronic free energy        :        -323.47982907 Ha       -8802.33400690 eV

  Derived energy quantities:
  | Kinetic energy                :         323.18378469 Ha        8794.27822938 eV
  | Electrostatic energy          :        -604.03984817 Ha      -16436.76056191 eV
  | Energy correction for multipole
  | error in Hartree potential    :           0.03756027 Ha           1.02206688 eV
  | Sum of eigenvalues per atom                           :        -377.73845177 eV
  | Total energy (T->0) per atom                          :        -677.10261592 eV  <-- do not rely on this value for anything but (periodic) metals
  | Electronic free energy per atom                       :        -677.10261592 eV

  Self-consistency convergence accuracy:
  | Change of charge density      :  0.2072E+00
  | Change of sum of eigenvalues  :  0.3554E+02 eV
  | Change of total energy        :  0.3631E+00 eV

  End self-consistency iteration #     3       :  max(cpu_time)    wall_clock(cpu1)
  | Time for this iteration                    :        1.186 s           1.187 s
  | Charge density update                      :        0.394 s           0.393 s
  | Density mixing                             :        0.008 s           0.009 s
  | Hartree multipole update                   :        0.009 s           0.009 s
  | Hartree multipole summation                :        0.281 s           0.281 s
  | Integration                                :        0.492 s           0.493 s
  | Solution of K.-S. eqns.                    :        0.002 s           0.002 s
  | Total energy evaluation                    :        0.000 s           0.000 s

  Partial memory accounting:
  | Current value for overall tracked memory usage on task 0  :           0.166 MB
  | Peak value for overall tracked memory usage on task 0     :           0.695 MB after allocating gradient_basis_wave
  | Largest tracked array allocation on task 0 so far         :           0.397 MB  when allocating gradient_basis_wave
  Note:  These values currently only include a subset of arrays which are explicitly tracked.
  The "true" memory usage will be greater.
------------------------------------------------------------

------------------------------------------------------------
          Begin self-consistency iteration #    4

  Date     :  20200805, Time     :  184511.057
------------------------------------------------------------
  Evaluating new KS density.
  Integration grid: deviation in total charge (<rho> - N_e) =   4.263256E-14
  Pulay mixing of updated and previous charge densities.

  Evaluating partitioned Hartree potential by multipole expansion.
  | Analytical far-field extrapolation by fixed multipoles:
  | Hartree multipole sum: apparent total charge =  -0.456488E-03
  Summing up the Hartree potential.
  Time summed over all CPUs for potential: real work        0.281 s, elapsed        0.281 s
  | RMS charge density error from multipole expansion :   0.251849E-01

  Integrating Hamiltonian matrix: batch-based integration.
  Time summed over all CPUs for integration: real work        0.493 s, elapsed        0.493 s

  Updating Kohn-Sham eigenvalues and eigenvectors using ELSI and the ELPA eigensolver.
  Finished Cholesky decomposition
  | Time :     0.000 s
  Finished transformation to standard eigenproblem
  | Time :     0.000 s
  Starting LAPACK eigensolver
  Finished solving standard eigenproblem
  | Time :     0.002 s
  Finished back-transformation of eigenvectors
  | Time :     0.000 s

  Obtaining occupation numbers and chemical potential using ELSI.
  | Chemical potential (Fermi level):    -1.84930814eV
  Highest occupied state (VBM) at     -5.66653999 eV
  | Occupation number:      2.00000000

  Lowest unoccupied state (CBM) at    -1.47669616 eV
  | Occupation number:      0.00000000

  Overall HOMO-LUMO gap:      4.18984383 eV.

  Total energy components:
  | Sum of eigenvalues            :        -180.29976270 Ha       -4906.20616807 eV
  | XC energy correction          :         -42.66229073 Ha       -1160.89999681 eV
  | XC potential correction       :          54.84898538 Ha        1492.51683056 eV
  | Free-atom electrostatic energy:        -146.86773846 Ha       -3996.47450180 eV
  | Hartree energy correction     :          -8.49803188 Ha        -231.24321296 eV
  | vdW energy correction         :           0.00000000 Ha           0.00000000 eV
  | Entropy correction            :           0.00000000 Ha           0.00000000 eV
  | ---------------------------
  | Total energy                  :        -323.47883839 Ha       -8802.30704908 eV
  | Total energy, T -> 0          :        -323.47883839 Ha       -8802.30704908 eV  <-- do not rely on this value for anything but (periodic) metals
  | Electronic free energy        :        -323.47883839 Ha       -8802.30704908 eV

  Derived energy quantities:
  | Kinetic energy                :         322.80039786 Ha        8783.84574291 eV
  | Electrostatic energy          :        -603.61694552 Ha      -16425.25279518 eV
  | Energy correction for multipole
  | error in Hartree potential    :           0.04182229 Ha           1.13804246 eV
  | Sum of eigenvalues per atom                           :        -377.40047447 eV
  | Total energy (T->0) per atom                          :        -677.10054224 eV  <-- do not rely on this value for anything but (periodic) metals
  | Electronic free energy per atom                       :        -677.10054224 eV

  Self-consistency convergence accuracy:
  | Change of charge density      :  0.6651E-01
  | Change of sum of eigenvalues  :  0.4394E+01 eV
  | Change of total energy        :  0.2696E-01 eV

  End self-consistency iteration #     4       :  max(cpu_time)    wall_clock(cpu1)
  | Time for this iteration                    :        1.193 s           1.194 s
  | Charge density update                      :        0.399 s           0.398 s
  | Density mixing                             :        0.009 s           0.010 s
  | Hartree multipole update                   :        0.009 s           0.009 s
  | Hartree multipole summation                :        0.281 s           0.281 s
  | Integration                                :        0.493 s           0.493 s
  | Solution of K.-S. eqns.                    :        0.002 s           0.002 s
  | Total energy evaluation                    :        0.000 s           0.000 s

  Partial memory accounting:
  | Current value for overall tracked memory usage on task 0  :           0.166 MB
  | Peak value for overall tracked memory usage on task 0     :           0.696 MB after allocating gradient_basis_wave
  | Largest tracked array allocation on task 0 so far         :           0.397 MB  when allocating gradient_basis_wave
  Note:  These values currently only include a subset of arrays which are explicitly tracked.
  The "true" memory usage will be greater.
------------------------------------------------------------

------------------------------------------------------------
          Begin self-consistency iteration #    5

  Date     :  20200805, Time     :  184512.251
------------------------------------------------------------
  Evaluating new KS density.
  Integration grid: deviation in total charge (<rho> - N_e) =   1.421085E-14
  Pulay mixing of updated and previous charge densities.

  Evaluating partitioned Hartree potential by multipole expansion.
  | Analytical far-field extrapolation by fixed multipoles:
  | Hartree multipole sum: apparent total charge =  -0.450322E-03
  Summing up the Hartree potential.
  Time summed over all CPUs for potential: real work        0.281 s, elapsed        0.281 s
  | RMS charge density error from multipole expansion :   0.249789E-01

  Integrating Hamiltonian matrix: batch-based integration.
  Time summed over all CPUs for integration: real work        0.491 s, elapsed        0.491 s

  Updating Kohn-Sham eigenvalues and eigenvectors using ELSI and the ELPA eigensolver.
  Finished Cholesky decomposition
  | Time :     0.000 s
  Finished transformation to standard eigenproblem
  | Time :     0.000 s
  Starting LAPACK eigensolver
  Finished solving standard eigenproblem
  | Time :     0.002 s
  Finished back-transformation of eigenvectors
  | Time :     0.000 s

  Obtaining occupation numbers and chemical potential using ELSI.
  | Chemical potential (Fermi level):    -1.93253430eV
  Highest occupied state (VBM) at     -5.75085926 eV
  | Occupation number:      2.00000000

  Lowest unoccupied state (CBM) at    -1.58102122 eV
  | Occupation number:      0.00000000

  Overall HOMO-LUMO gap:      4.16983804 eV.

  Total energy components:
  | Sum of eigenvalues            :        -180.52592108 Ha       -4912.36025083 eV
  | XC energy correction          :         -42.63526600 Ha       -1160.16461629 eV
  | XC potential correction       :          54.81390161 Ha        1491.56215277 eV
  | Free-atom electrostatic energy:        -146.86773846 Ha       -3996.47450180 eV
  | Hartree energy correction     :          -8.26352193 Ha        -224.86187252 eV
  | vdW energy correction         :           0.00000000 Ha           0.00000000 eV
  | Entropy correction            :           0.00000000 Ha           0.00000000 eV
  | ---------------------------
  | Total energy                  :        -323.47854585 Ha       -8802.29908867 eV
  | Total energy, T -> 0          :        -323.47854585 Ha       -8802.29908867 eV  <-- do not rely on this value for anything but (periodic) metals
  | Electronic free energy        :        -323.47854585 Ha       -8802.29908867 eV

  Derived energy quantities:
  | Kinetic energy                :         322.66272344 Ha        8780.09943129 eV
  | Electrostatic energy          :        -603.50600329 Ha      -16422.23390367 eV
  | Energy correction for multipole
  | error in Hartree potential    :           0.04120440 Ha           1.12122865 eV
  | Sum of eigenvalues per atom                           :        -377.87386545 eV
  | Total energy (T->0) per atom                          :        -677.09992990 eV  <-- do not rely on this value for anything but (periodic) metals
  | Electronic free energy per atom                       :        -677.09992990 eV

  Self-consistency convergence accuracy:
  | Change of charge density      :  0.2028E-01
  | Change of sum of eigenvalues  : -0.6154E+01 eV
  | Change of total energy        :  0.7960E-02 eV

  End self-consistency iteration #     5       :  max(cpu_time)    wall_clock(cpu1)
  | Time for this iteration                    :        1.185 s           1.186 s
  | Charge density update                      :        0.390 s           0.391 s
  | Density mixing                             :        0.011 s           0.010 s
  | Hartree multipole update                   :        0.009 s           0.009 s
  | Hartree multipole summation                :        0.281 s           0.282 s
  | Integration                                :        0.491 s           0.492 s
  | Solution of K.-S. eqns.                    :        0.002 s           0.002 s
  | Total energy evaluation                    :        0.000 s           0.000 s

  Partial memory accounting:
  | Current value for overall tracked memory usage on task 0  :           0.166 MB
  | Peak value for overall tracked memory usage on task 0     :           0.696 MB after allocating gradient_basis_wave
  | Largest tracked array allocation on task 0 so far         :           0.397 MB  when allocating gradient_basis_wave
  Note:  These values currently only include a subset of arrays which are explicitly tracked.
  The "true" memory usage will be greater.
------------------------------------------------------------

------------------------------------------------------------
          Begin self-consistency iteration #    6

  Date     :  20200805, Time     :  184513.438
------------------------------------------------------------
  Evaluating new KS density.
  Integration grid: deviation in total charge (<rho> - N_e) =   0.000000E+00
  Pulay mixing of updated and previous charge densities.

  Evaluating partitioned Hartree potential by multipole expansion.
  | Analytical far-field extrapolation by fixed multipoles:
  | Hartree multipole sum: apparent total charge =  -0.455079E-03
  Summing up the Hartree potential.
  Time summed over all CPUs for potential: real work        0.281 s, elapsed        0.281 s
  | RMS charge density error from multipole expansion :   0.254636E-01

  Integrating Hamiltonian matrix: batch-based integration.
  Time summed over all CPUs for integration: real work        0.492 s, elapsed        0.492 s

  Updating Kohn-Sham eigenvalues and eigenvectors using ELSI and the ELPA eigensolver.
  Finished Cholesky decomposition
  | Time :     0.000 s
  Finished transformation to standard eigenproblem
  | Time :     0.000 s
  Starting LAPACK eigensolver
  Finished solving standard eigenproblem
  | Time :     0.002 s
  Finished back-transformation of eigenvectors
  | Time :     0.000 s

  Obtaining occupation numbers and chemical potential using ELSI.
  | Chemical potential (Fermi level):    -1.91690312eV
  Highest occupied state (VBM) at     -5.70248382 eV
  | Occupation number:      2.00000000

  Lowest unoccupied state (CBM) at    -1.57728046 eV
  | Occupation number:      0.00000000

  Overall HOMO-LUMO gap:      4.12520335 eV.

  Total energy components:
  | Sum of eigenvalues            :        -180.48661292 Ha       -4911.29062134 eV
  | XC energy correction          :         -42.63898250 Ha       -1160.26574757 eV
  | XC potential correction       :          54.81870494 Ha        1491.69285787 eV
  | Free-atom electrostatic energy:        -146.86773846 Ha       -3996.47450180 eV
  | Hartree energy correction     :          -8.30388054 Ha        -225.96008631 eV
  | vdW energy correction         :           0.00000000 Ha           0.00000000 eV
  | Entropy correction            :           0.00000000 Ha           0.00000000 eV
  | ---------------------------
  | Total energy                  :        -323.47850949 Ha       -8802.29809914 eV
  | Total energy, T -> 0          :        -323.47850949 Ha       -8802.29809914 eV  <-- do not rely on this value for anything but (periodic) metals
  | Electronic free energy        :        -323.47850949 Ha       -8802.29809914 eV

  Derived energy quantities:
  | Kinetic energy                :         322.60245728 Ha        8778.45950562 eV
  | Electrostatic energy          :        -603.44198426 Ha      -16420.49185720 eV
  | Energy correction for multipole
  | error in Hartree potential    :           0.04173580 Ha           1.13568899 eV
  | Sum of eigenvalues per atom                           :        -377.79158626 eV
  | Total energy (T->0) per atom                          :        -677.09985378 eV  <-- do not rely on this value for anything but (periodic) metals
  | Electronic free energy per atom                       :        -677.09985378 eV

  Self-consistency convergence accuracy:
  | Change of charge density      :  0.1050E-01
  | Change of sum of eigenvalues  :  0.1070E+01 eV
  | Change of total energy        :  0.9895E-03 eV

  End self-consistency iteration #     6       :  max(cpu_time)    wall_clock(cpu1)
  | Time for this iteration                    :        1.190 s           1.190 s
  | Charge density update                      :        0.394 s           0.394 s
  | Density mixing                             :        0.012 s           0.012 s
  | Hartree multipole update                   :        0.009 s           0.009 s
  | Hartree multipole summation                :        0.281 s           0.281 s
  | Integration                                :        0.492 s           0.492 s
  | Solution of K.-S. eqns.                    :        0.002 s           0.002 s
  | Total energy evaluation                    :        0.000 s           0.000 s

  Partial memory accounting:
  | Current value for overall tracked memory usage on task 0  :           0.166 MB
  | Peak value for overall tracked memory usage on task 0     :           0.696 MB after allocating gradient_basis_wave
  | Largest tracked array allocation on task 0 so far         :           0.397 MB  when allocating gradient_basis_wave
  Note:  These values currently only include a subset of arrays which are explicitly tracked.
  The "true" memory usage will be greater.
------------------------------------------------------------

------------------------------------------------------------
          Begin self-consistency iteration #    7

  Date     :  20200805, Time     :  184514.629
------------------------------------------------------------
  Evaluating new KS density.
  Integration grid: deviation in total charge (<rho> - N_e) =   6.394885E-14
  Pulay mixing of updated and previous charge densities.

  Evaluating partitioned Hartree potential by multipole expansion.
  | Analytical far-field extrapolation by fixed multipoles:
  | Hartree multipole sum: apparent total charge =  -0.455491E-03
  Summing up the Hartree potential.
  Time summed over all CPUs for potential: real work        0.281 s, elapsed        0.281 s
  | RMS charge density error from multipole expansion :   0.255492E-01

  Integrating Hamiltonian matrix: batch-based integration.
  Time summed over all CPUs for integration: real work        0.492 s, elapsed        0.492 s

  Updating Kohn-Sham eigenvalues and eigenvectors using ELSI and the ELPA eigensolver.
  Finished Cholesky decomposition
  | Time :     0.000 s
  Finished transformation to standard eigenproblem
  | Time :     0.000 s
  Starting LAPACK eigensolver
  Finished solving standard eigenproblem
  | Time :     0.002 s
  Finished back-transformation of eigenvectors
  | Time :     0.000 s

[...]
  |   Hirshfeld dipole moment :      0.05783665
  |   Hirshfeld second moments:      0.01780138      -0.03014381      -0.01831322
  |                                 -0.03014381      -0.02253162       0.00650679
  |                                 -0.01831322       0.00650679      -0.01771487
  ----------------------------------------------------------------------
  | Atom    12: O
  |   Hirshfeld charge        :     -0.16923400
  |   Free atom volume        :     23.61338643
  |   Hirshfeld volume        :     20.97172769
  |   Hirshfeld dipole vector :      0.00332302       0.03565620       0.02132193
  |   Hirshfeld dipole moment :      0.04167771
  |   Hirshfeld second moments:      0.11173478       0.00593767      -0.01684019
  |                                  0.00593767       0.02749414       0.01212612
  |                                 -0.01684019       0.01212612       0.02424224
  ----------------------------------------------------------------------
  | Atom    13: H
  |   Hirshfeld charge        :      0.18832978
  |   Free atom volume        :      9.95071624
  |   Hirshfeld volume        :      6.18884743
  |   Hirshfeld dipole vector :     -0.12263036       0.02623475       0.03917549
  |   Hirshfeld dipole moment :      0.13138183
  |   Hirshfeld second moments:      0.12593765       0.00568398      -0.00360218
  |                                  0.00568398       0.11478532       0.00822272
  |                                 -0.00360218       0.00822272       0.10607370
  ----------------------------------------------------------------------


  Total energy components:
  | Sum of eigenvalues            :        -180.49216358 Ha       -4911.44166228 eV
  | XC energy correction          :         -42.63497625 Ha       -1160.15673202 eV
  | XC potential correction       :          54.81360410 Ha        1491.55405705 eV
  | Free-atom electrostatic energy:        -146.86773846 Ha       -3996.47450180 eV
  | Hartree energy correction     :          -8.29721001 Ha        -225.77857181 eV
  | vdW energy correction         :          -0.00323406 Ha          -0.08800321 eV
  | Entropy correction            :           0.00000000 Ha           0.00000000 eV
  | ---------------------------
  | Total energy                  :        -323.48171825 Ha       -8802.38541407 eV
  | Total energy, T -> 0          :        -323.48171825 Ha       -8802.38541407 eV  <-- do not rely on this value for anything but (periodic) metals
  | Electronic free energy        :        -323.48171825 Ha       -8802.38541407 eV

  Derived energy quantities:
  | Kinetic energy                :         322.56347376 Ha        8777.39871019 eV
  | Electrostatic energy          :        -603.40698170 Ha      -16419.53938902 eV
  | Energy correction for multipole
  | error in Hartree potential    :           0.04176770 Ha           1.13655685 eV
  | Sum of eigenvalues per atom                           :        -377.80320479 eV
  | Total energy (T->0) per atom                          :        -677.10657031 eV  <-- do not rely on this value for anything but (periodic) metals
  | Electronic free energy per atom                       :        -677.10657031 eV

  atomic forces [eV/Ang]:
  -----------------------
  atom #    1
   Hellmann-Feynman              :  0.140406E+01 -0.283946E-01  0.772254E+00
   Ionic forces                  :  0.000000E+00  0.000000E+00  0.000000E+00
   Multipole                     :  0.129486E+00  0.333820E+00 -0.302330E+00
   Pulay + GGA                   : -0.146612E+01 -0.453438E-01 -0.113585E+01
   Van der Waals                 :  0.655690E-02  0.532403E-02 -0.235644E-02
   ----------------------------------------------------------------
   Total forces(   1)            :  0.739746E-01  0.265405E+00 -0.668281E+00
  atom #    2
   Hellmann-Feynman              :  0.486193E+00  0.315481E-01  0.410968E+00
   Ionic forces                  :  0.000000E+00  0.000000E+00  0.000000E+00
   Multipole                     :  0.147101E+00  0.318665E-01 -0.430091E-01
   Pulay + GGA                   : -0.122385E+00  0.116196E-01  0.330945E-02
   Van der Waals                 :  0.855951E-02 -0.473914E-02 -0.108366E-02
   ----------------------------------------------------------------
   Total forces(   2)            :  0.519468E+00  0.702951E-01  0.370185E+00
  atom #    3
   Hellmann-Feynman              : -0.124442E+02 -0.135902E+01  0.106079E+01
   Ionic forces                  :  0.000000E+00  0.000000E+00  0.000000E+00
   Multipole                     : -0.120505E+00  0.110790E+00 -0.841729E+00
   Pulay + GGA                   :  0.121620E+02  0.122280E+01  0.702896E+00
   Van der Waals                 :  0.371793E-02 -0.517395E-02 -0.844076E-02
   ----------------------------------------------------------------
   Total forces(   3)            : -0.398930E+00 -0.306065E-01  0.913520E+00
  atom #    4
   Hellmann-Feynman              :  0.259276E+00  0.231814E-01 -0.885019E-01
   Ionic forces                  :  0.000000E+00  0.000000E+00  0.000000E+00
   Multipole                     :  0.293503E-01  0.366955E-01 -0.100154E+00
   Pulay + GGA                   : -0.127762E+00 -0.166701E+00  0.753975E-01
   Van der Waals                 : -0.444945E-02 -0.592996E-02 -0.443004E-02
   ----------------------------------------------------------------
   Total forces(   4)            :  0.156415E+00 -0.112754E+00 -0.117688E+00
  atom #    5
   Hellmann-Feynman              :  0.173502E+00 -0.335566E-01 -0.266784E+00
   Ionic forces                  :  0.000000E+00  0.000000E+00  0.000000E+00
   Multipole                     :  0.449687E-01 -0.351797E-01 -0.108749E+00
   Pulay + GGA                   : -0.183280E+00  0.116597E+00  0.105193E+00
   Van der Waals                 : -0.984863E-03  0.593027E-02 -0.532351E-02
   ----------------------------------------------------------------
   Total forces(   5)            :  0.342053E-01  0.537913E-01 -0.275663E+00
  atom #    6
   Hellmann-Feynman              : -0.193531E+00 -0.671574E+00  0.406996E+00
   Ionic forces                  :  0.000000E+00  0.000000E+00  0.000000E+00
   Multipole                     : -0.938887E-01  0.670196E+00  0.235557E+00
   Pulay + GGA                   :  0.388933E+00 -0.480813E+00 -0.601813E+00
   Van der Waals                 : -0.462051E-02  0.199102E-02 -0.145666E-02
   ----------------------------------------------------------------
   Total forces(   6)            :  0.968919E-01 -0.480201E+00  0.392838E-01
  atom #    7
   Hellmann-Feynman              : -0.225069E+00 -0.254129E-01 -0.524373E-01
   Ionic forces                  :  0.000000E+00  0.000000E+00  0.000000E+00
   Multipole                     : -0.120370E+00  0.475136E-01  0.319275E-01
   Pulay + GGA                   :  0.112935E+00  0.718889E-02 -0.282350E-01
   Van der Waals                 : -0.103152E-02  0.160259E-03  0.206529E-02
   ----------------------------------------------------------------
   Total forces(   7)            : -0.233536E+00  0.294498E-01 -0.466794E-01
  atom #    8
   Hellmann-Feynman              :  0.999870E-01 -0.437435E-01  0.109488E+00
   Ionic forces                  :  0.000000E+00  0.000000E+00  0.000000E+00
   Multipole                     :  0.132057E-01  0.675105E-01  0.128275E+00
   Pulay + GGA                   : -0.396541E-01 -0.427105E-01 -0.103152E+00
   Van der Waals                 : -0.278013E-02  0.112885E-01  0.100811E-02
   ----------------------------------------------------------------
   Total forces(   8)            :  0.707584E-01 -0.765492E-02  0.135619E+00
  atom #    9
   Hellmann-Feynman              :  0.100633E+00  0.802528E-01 -0.193358E+00
   Ionic forces                  :  0.000000E+00  0.000000E+00  0.000000E+00
   Multipole                     :  0.226624E-01  0.130693E+00 -0.261795E-02
   Pulay + GGA                   : -0.439297E-01 -0.739201E-01  0.760547E-01
   Van der Waals                 : -0.179618E-02  0.682332E-02  0.898554E-02
   ----------------------------------------------------------------
   Total forces(   9)            :  0.775691E-01  0.143849E+00 -0.110936E+00
  atom #   10
   Hellmann-Feynman              :  0.290317E+01  0.537804E+01  0.161688E+01
   Ionic forces                  :  0.000000E+00  0.000000E+00  0.000000E+00
   Multipole                     :  0.104969E+00 -0.181278E+00  0.355896E+00
   Pulay + GGA                   : -0.891704E+00 -0.325537E+01 -0.451564E+00
   Van der Waals                 :  0.210392E-02 -0.108599E-01  0.158682E-02
   ----------------------------------------------------------------
   Total forces(  10)            :  0.211854E+01  0.193053E+01  0.152280E+01
  atom #   11
   Hellmann-Feynman              :  0.398259E+01 -0.219928E+01  0.136651E+02
   Ionic forces                  :  0.000000E+00  0.000000E+00  0.000000E+00
   Multipole                     :  0.472286E-01 -0.684598E+00  0.818418E+00
   Pulay + GGA                   : -0.319667E+01  0.370815E+01 -0.134170E+02
   Van der Waals                 : -0.114216E-02 -0.119511E-01  0.316215E-02
   ----------------------------------------------------------------
   Total forces(  11)            :  0.832008E+00  0.812319E+00  0.106966E+01
  atom #   12
   Hellmann-Feynman              :  0.190018E+01 -0.106172E+02 -0.118399E+02
   Ionic forces                  :  0.000000E+00  0.000000E+00  0.000000E+00
   Multipole                     : -0.640409E+00 -0.137825E+01 -0.491245E+00
   Pulay + GGA                   : -0.377093E+01  0.101351E+02  0.995227E+01
   Van der Waals                 : -0.176662E-02  0.396052E-02  0.793251E-02
   ----------------------------------------------------------------
   Total forces(  12)            : -0.251293E+01 -0.185644E+01 -0.237090E+01
  atom #   13
   Hellmann-Feynman              : -0.114856E+01 -0.691918E+00 -0.306352E+00
   Ionic forces                  :  0.000000E+00  0.000000E+00  0.000000E+00
   Multipole                     : -0.561441E-01  0.155201E-01  0.508703E-02
   Pulay + GGA                   :  0.368476E+00 -0.145239E+00 -0.159262E+00
   Van der Waals                 : -0.236684E-02  0.317610E-02 -0.164936E-02
   ----------------------------------------------------------------
   Total forces(  13)            : -0.838597E+00 -0.818460E+00 -0.462176E+00

  Timings for VdW correction (Tkatchenko-Scheffler 2009 or later):
  | CPU time:        0.089 s, Wall clock time:        0.090 s.
  Removing unitary transformations (pure translations, rotations) from forces on atoms.
  Atomic forces before filtering:
  | Net force on center of mass :  -0.416178E-02 -0.473165E-03 -0.125230E-02 eV/A
  | Net torque on center of mass:  -0.751306E-02  0.328667E-02 -0.627380E-02 eV
  Atomic forces after filtering:
  | Net force on center of mass :   0.000000E+00 -0.178406E-15 -0.892031E-16 eV/A
  | Net torque on center of mass:   0.519247E-15 -0.472042E-15 -0.226580E-14 eV

  Energy and forces in a compact form:
  | Total energy uncorrected      :         -0.880238541406551E+04 eV
  | Total energy corrected        :         -0.880238541406551E+04 eV  <-- do not rely on this value for anything but (periodic) metals
  | Electronic free energy        :         -0.880238541406551E+04 eV
  Total atomic forces (unitary forces cleaned) [eV/Ang]:
  |   1          0.742949938519360E-01          0.265545710453943E+00         -0.668124965524431E+00
  |   2          0.519788830390768E+00          0.706543093979305E-01          0.370466120119002E+00
  |   3         -0.398447452194859E+00         -0.303225822825621E-01          0.913621174691151E+00
  |   4          0.156768910129098E+00         -0.112344918967647E+00         -0.117407370531704E+00
  |   5          0.348989557919704E-01          0.542469693581190E-01         -0.275643507783855E+00
  |   6          0.968763162003734E-01         -0.480282908672773E+00          0.395967052465514E-01
  |   7         -0.233559241301403E+00          0.291463808060997E-01         -0.464871232319865E-01
  |   8          0.706222065320671E-01         -0.783959458010917E-02          0.135975027283768E+00
  |   9          0.774314587432890E-01          0.143925009334154E+00         -0.110429399686035E+00
  |  10          0.211903143433761E+01          0.193046417235166E+01          0.152269510500106E+01
  |  11          0.832425647027372E+00          0.812120302591537E+00          0.106954145942055E+01
  |  12         -0.251218687114349E+01         -0.185652769927349E+01         -0.237123560832209E+01
  |  13         -0.837945188364731E+00         -0.818785150516856E+00         -0.462567616681976E+00

  ------------------------------------ 
  Start decomposition of the XC Energy 
  ------------------------------------ 
  X and C from original XC functional choice 
  Hartree-Fock Energy :          0.000000000 Ha              0.000000000 eV
  X Energy            :        -41.035305271 Ha          -1116.627469794 eV
  C Energy            :         -1.599670984 Ha            -43.529262227 eV
  Total XC Energy     :        -42.634976255 Ha          -1160.156732021 eV
  ------------------------------------ 
  LDA X and C from self-consistent density 
  X Energy LDA        :        -37.252795787 Ha          -1013.700149859 eV
  C Energy LDA        :         -3.138281490 Ha            -85.396984302 eV
  ------------------------------------ 
  End decomposition of the XC Energy 
  ------------------------------------ 

------------------------------------------------------------

------------------------------------------------------------------------------
  Final output of selected total energy values:

  The following output summarizes some interesting total energy values
  at the end of a run (AFTER all relaxation, molecular dynamics, etc.).

  | Total energy of the DFT / Hartree-Fock s.c.f. calculation      :          -8802.385414066 eV
  | Final zero-broadening corrected energy (caution - metals only) :          -8802.385414066 eV
  | For reference only, the value of 1 Hartree used in FHI-aims is :             27.211384500 eV

  Before relying on these values, please be sure to understand exactly which
  total energy value is referred to by a given number. Different objects may
  all carry the same name 'total energy'. Definitions:

  Total energy of the DFT / Hartree-Fock s.c.f. calculation:
  | Note that this energy does not include ANY quantities calculated after the
  | s.c.f. cycle, in particular not ANY RPA, MP2, etc. many-body perturbation terms.

  Final zero-broadening corrected energy:
  | For metallic systems only, a broadening of the occupation numbers at the Fermi
  | level can be extrapolated back to zero broadening by an electron-gas inspired
  | formula. For all systems that are not real metals, this value can be
  | meaningless and should be avoided.

------------------------------------------------------------------------------
  Methods described in the following list of references were used in this FHI-aims run.
  If you publish the results, please make sure to cite these reference if they apply.
  FHI-aims is an academic code, and for our developers (often, Ph.D. students
  and postdocs), scientific credit in the community is essential.
  Thank you for helping us!

  For any use of FHI-aims, please cite:

    Volker Blum, Ralf Gehrke, Felix Hanke, Paula Havu, Ville Havu,
    Xinguo Ren, Karsten Reuter, and Matthias Scheffler
    'Ab initio molecular simulations with numeric atom-centered orbitals'
    Computer Physics Communications 180, 2175-2196 (2009)
    http://dx.doi.org/10.1016/j.cpc.2009.06.022


  The scalable eigensolver library ELPA was used in your run.
  ELPA is essential especially for large systems on hundreds or thousands of CPUs.
  For ELPA, please cite:

    Andreas Marek, Volker Blum, Rainer Johanni, Ville Havu, Bruno Lang,
    Thomas Auckenthaler, Alexander Heinecke, Hans-Joachim Bungartz, and Hermann Lederer,
    'The ELPA Library - Scalable Parallel Eigenvalue Solutions
    for Electronic Structure Theory and Computational Science'
    The Journal of Physics: Condensed Matter 26, 213201 (2014).
    http://dx.doi.org/10.1088/0953-8984/26/21/213201


  The ELSI infrastructure was used in your run to solve the Kohn-Sham electronic structure.
  Please check out http://elsi-interchange.org to learn more.
  If scalability is important for your project, please acknowledge ELSI by citing:

    V. W-z. Yu, F. Corsetti, A. Garcia, W. P. Huhn, M. Jacquelin, W. Jia,
    B. Lange, L. Lin, J. Lu, W. Mi, A. Seifitokaldani, A. Vazquez-Mayagoitia,
    C. Yang, H. Yang, and V. Blum
    'ELSI: A unified software interface for Kohn-Sham electronic structure solvers'
    Computer Physics Communications 222, 267-285 (2018).
    http://dx.doi.org/10.1016/j.cpc.2017.09.007


  For the real-space grid partitioning and parallelization used in this calculation, please cite:

    Ville Havu, Volker Blum, Paula Havu, and Matthias Scheffler,
    'Efficient O(N) integration for all-electron electronic structure calculation'
    'using numerically tabulated basis functions'
    Journal of Computational Physics 228, 8367-8379 (2009).
    http://dx.doi.org/10.1016/j.jcp.2009.08.008

  Of course, there are many other important community references, e.g., those cited in the
  above references. Our list is limited to references that describe implementations in the
  FHI-aims code. The reason is purely practical (length of this list) - please credit others as well.

------------------------------------------------------------
          Leaving FHI-aims.
          Date     :  20200805, Time     :  184528.970

          Computational steps:
          | Number of self-consistency cycles          :           16
          | Number of SCF (re)initializations          :            1

          Detailed time accounting                     :  max(cpu_time)    wall_clock(cpu1)
          | Total time                                 :       22.727 s          22.770 s
          | Preparation time                           :        0.144 s           0.146 s
          | Boundary condition initalization           :        0.000 s           0.000 s
          | Grid partitioning                          :        0.111 s           0.111 s
          | Preloading free-atom quantities on grid    :        0.002 s           0.002 s
          | Free-atom superposition energy             :        0.084 s           0.085 s
          | Total time for integrations                :        8.570 s           8.577 s
          | Total time for solution of K.-S. equations :        0.036 s           0.037 s
          | Total time for density & force components  :        7.255 s           7.273 s
          | Total time for mixing                      :        0.212 s           0.216 s
          | Total time for Hartree multipole update    :        0.140 s           0.144 s
          | Total time for Hartree multipole sum       :        5.774 s           5.774 s
          | Total time for total energy evaluation     :        0.003 s           0.003 s
          | Total time for vdW correction              :        0.089 s           0.090 s

          Partial memory accounting:
          | Residual value for overall tracked memory usage across tasks :           0.000 MB (should be 0.000 MB)
          | Peak values for overall tracked memory usage (after allocating hessian_basis_wave):
          |   Minimum:        1.622 MB (on task 1)
          |   Maximum:        1.622 MB (on task 1)
          |   Average:        1.622 MB
          | Largest tracked array allocation (hessian_basis_wave):
          |   Minimum:        0.794 MB (on task 1)
          |   Maximum:        0.794 MB (on task 1)
          |   Average:        0.794 MB
          Note:  These values currently only include a subset of arrays which are explicitly tracked.
          The "true" memory usage will be greater.

          Have a nice day.
------------------------------------------------------------
