  MPI-parallelism will be employed.
------------------------------------------------------------
          Invoking FHI-aims ...
          Version 171221_1
          Compiled on 2019/09/09 at 14:39:39 on host puhti-login2.bullx.

          When using FHI-aims, please cite the following reference:

          Volker Blum, Ralf Gehrke, Felix Hanke, Paula Havu,
          Ville Havu, Xinguo Ren, Karsten Reuter, and Matthias Scheffler,
          'Ab Initio Molecular Simulations with Numeric Atom-Centered Orbitals',
          Computer Physics Communications 180, 2175-2196 (2009)

          For any questions about FHI-aims, please visit the aimsclub website
          with its forums and wiki. Contributions to both the forums and the
          wiki are warmly encouraged - they are for you, and everyone is welcome there.

------------------------------------------------------------



  Date     :  20200805, Time     :  182945.072
  Time zero on CPU 1             :   0.110520000000000E-01  s.
  Internal wall clock time zero  :           365884185.072  s.

  FHI-aims created a unique identifier for this run for later identification
  aims_uuid : 4F2AB689-45D5-4D18-A4DB-310B259AAC19

  Using        1 parallel tasks.
  Task        0 on host r13c28.bullx reporting.

  Performing system and environment tests:
  | Environment variable OMP_NUM_THREADS correctly set to 1.
  | Stacksize not measured: no C compiler
  | Checking for scalapack...
  | Testing pdtran()...
  | All pdtran() tests passed.

  Obtaining array dimensions for all initial allocations:
  
  -----------------------------------------------------------------------
  Parsing control.in (first pass over file, find array dimensions only).
  The contents of control.in will be repeated verbatim below
  unless switched off by setting 'verbatim_writeout .false.' .
  in the first line of control.in .
  -----------------------------------------------------------------------
  
  #########################################################################################
  #
  #  Volker Blum, FHI 2009 : Test run input file control.in for simple H2O
  #
  #########################################################################################
  #
  #  Physical model
  #
    xc                 pbe
    vdw_correction_hirshfeld
    spin               none
    relativistic       none
    charge             0.
  #
  #  SCF convergence
  #
    occupation_type    gaussian 0.01
    mixer              pulay
      n_max_pulay        10
      charge_mix_param   0.2
    sc_accuracy_rho    1E-5
    sc_accuracy_eev    1E-3
    sc_accuracy_etot   1E-6
    sc_accuracy_forces 1E-4
    sc_iter_limit      100
  #
  #  Relaxation
  #
  #  relax_geometry   bfgs 1.e-3
  #
  ################################################################################
  #
  #  FHI-aims code project
  #  VB, Fritz-Haber Institut, 2009
  #
  #  Suggested "light" defaults for H atom (to be pasted into control.in file)
  #  Be sure to double-check any results obtained with these settings for post-processing,
  #  e.g., with the "tight" defaults and larger basis sets.
  #
  ################################################################################
    species        H
  #     global species definitions
      nucleus             1
      mass                1.00794
  #
      l_hartree           4
  #
      cut_pot             3.5  1.5  1.0
      basis_dep_cutoff    1e-4
  #
      radial_base         24 5.0
      radial_multiplier   1
      angular_grids       specified
        division   0.2421   50
        division   0.3822  110
        division   0.4799  194
        division   0.5341  302
  #      division   0.5626  434
  #      division   0.5922  590
  #      division   0.6542  770
  #      division   0.6868 1202
  #      outer_grid  770
        outer_grid  302
  ################################################################################
  #
  #  Definition of "minimal" basis
  #
  ################################################################################
  #     valence basis states
      valence      1  s   1.
  #     ion occupancy
      ion_occ      1  s   0.5
  ################################################################################
  #
  #  Suggested additional basis functions. For production calculations,
  #  uncomment them one after another (the most important basis functions are
  #  listed first).
  #
  #  Basis constructed for dimers: 0.5 A, 0.7 A, 1.0 A, 1.5 A, 2.5 A
  #
  ################################################################################
  #  "First tier" - improvements: -1014.90 meV to -62.69 meV
       hydro 2 s 2.1
       hydro 2 p 3.5
  #  "Second tier" - improvements: -12.89 meV to -1.83 meV
  #     hydro 1 s 0.85
  #     hydro 2 p 3.7
  #     hydro 2 s 1.2
  #     hydro 3 d 7
  #  "Third tier" - improvements: -0.25 meV to -0.12 meV
  #     hydro 4 f 11.2
  #     hydro 3 p 4.8
  #     hydro 4 d 9
  #     hydro 3 s 3.2
  ################################################################################
  #
  #  FHI-aims code project
  #  VB, Fritz-Haber Institut, 2009
  #
  #  Suggested "light" defaults for C atom (to be pasted into control.in file)
  #  Be sure to double-check any results obtained with these settings for post-processing,
  #  e.g., with the "tight" defaults and larger basis sets.
  #
  ################################################################################
    species        C
  #     global species definitions
      nucleus             6
      mass                12.0107
  #
      l_hartree           4
  #
      cut_pot             3.5  1.5  1.0
      basis_dep_cutoff    1e-4
  #
      radial_base         34 5.0
      radial_multiplier   1
      angular_grids specified
        division   0.3326   50
        division   0.5710  110
        division   0.7727  194
        division   0.8772  302
  #      division   0.9334  434
  #      division   0.9625  590
  #      division   0.9924  770
  #      division   1.0230  974
  #      division   1.4589 1202
  #     outer_grid  974
       outer_grid 302
  ################################################################################
  #
  #  Definition of "minimal" basis
  #
  ################################################################################
  #     valence basis states
      valence      2  s   2.
      valence      2  p   2.
  #     ion occupancy
      ion_occ      2  s   1.
      ion_occ      2  p   1.
  ################################################################################
  #
  #  Suggested additional basis functions. For production calculations,
  #  uncomment them one after another (the most important basis functions are
  #  listed first).
  #
  #  Constructed for dimers: 1.0 A, 1.25 A, 1.5 A, 2.0 A, 3.0 A
  #
  ################################################################################
  #  "First tier" - improvements: -1214.57 meV to -155.61 meV
       hydro 2 p 1.7
       hydro 3 d 6
       hydro 2 s 4.9
  #  "Second tier" - improvements: -67.75 meV to -5.23 meV
  #     hydro 4 f 9.8
  #     hydro 3 p 5.2
  #     hydro 3 s 4.3
  #     hydro 5 g 14.4
  #     hydro 3 d 6.2
  #  "Third tier" - improvements: -2.43 meV to -0.60 meV
  #     hydro 2 p 5.6
  #     hydro 2 s 1.4
  #     hydro 3 d 4.9
  #     hydro 4 f 11.2
  #  "Fourth tier" - improvements: -0.39 meV to -0.18 meV
  #     hydro 2 p 2.1
  #     hydro 5 g 16.4
  #     hydro 4 d 13.2
  #     hydro 3 s 13.6
  #     hydro 4 f 17.6
  #  Further basis functions - improvements: -0.08 meV and below
  #     hydro 3 s 2
  #     hydro 3 p 6
  #     hydro 4 d 20
  ################################################################################
  #
  #  FHI-aims code project
  #  VB, Fritz-Haber Institut, 2009
  #
  #  Suggested "light" defaults for N atom (to be pasted into control.in file)
  #  Be sure to double-check any results obtained with these settings for post-processing,
  #  e.g., with the "tight" defaults and larger basis sets.
  #
  ################################################################################
    species        N
  #     global species definitions
      nucleus             7
      mass                14.0067
  #
      l_hartree           4
  #
      cut_pot             3.5  1.5  1.0
      basis_dep_cutoff    1e-4
  #
      radial_base         35 5.0
      radial_multiplier   1
      angular_grids       specified
        division   0.2599   50
        division   0.4601  110
        division   0.5885  194
        division   0.6503  302
  #      division   0.6939  434
  #      division   0.7396  590
  #      division   0.7632  770
  #      division   0.8122  974
  #      division   1.1604 1202
  #      outer_grid  974
        outer_grid  302
  ################################################################################
  #
  #  Definition of "minimal" basis
  #
  ################################################################################
  #     valence basis states
      valence      2  s   2.
      valence      2  p   3.
  #     ion occupancy
      ion_occ      2  s   1.
      ion_occ      2  p   2.
  ################################################################################
  #
  #  Suggested additional basis functions. For production calculations,
  #  uncomment them one after another (the most important basis functions are
  #  listed first).
  #
  #  Constructed for dimers: 1.0 A, 1.1 A, 1.5 A, 2.0 A, 3.0 A
  #
  ################################################################################
  #  "First tier" - improvements: -1193.42 meV to -220.60 meV
       hydro 2 p 1.8
       hydro 3 d 6.8
       hydro 3 s 5.8
  #  "Second tier" - improvements: -80.21 meV to -6.86 meV
  #     hydro 4 f 10.8
  #     hydro 3 p 5.8
  #     hydro 1 s 0.8
  #     hydro 5 g 16
  #     hydro 3 d 4.9
  #  "Third tier" - improvements: -4.29 meV to -0.53 meV
  #     hydro 3 s 16
  #     ionic 2 p auto
  #     hydro 3 d 6.6
  #     hydro 4 f 11.6
  #  "Fourth tier" - improvements: -0.75 meV to -0.25 meV
  #     hydro 2 p 4.5
  #     hydro 2 s 2.4
  #     hydro 5 g 14.4
  #     hydro 4 d 14.4
  #     hydro 4 f 16.8
  # Further basis functions - -0.21 meV and below
  #     hydro 3 p 14.8
  #     hydro 3 s 4.4
  #     hydro 3 d 19.6
  #     hydro 5 g 12.8
  ################################################################################
  #
  #  FHI-aims code project
  #  VB, Fritz-Haber Institut, 2009
  #
  #  Suggested "light" defaults for O atom (to be pasted into control.in file)
  #  Be sure to double-check any results obtained with these settings for post-processing,
  #  e.g., with the "tight" defaults and larger basis sets.
  #
  ################################################################################
    species        O
  #     global species definitions
      nucleus             8
      mass                15.9994
  #
      l_hartree           4
  #
      cut_pot             3.5  1.5  1.0
      basis_dep_cutoff    1e-4
  #
      radial_base         36 5.0
      radial_multiplier   1
       angular_grids specified
        division   0.2659   50
        division   0.4451  110
        division   0.6052  194
        division   0.7543  302
  #      division   0.8014  434
  #      division   0.8507  590
  #      division   0.8762  770
  #      division   0.9023  974
  #      division   1.2339 1202
  #      outer_grid 974
        outer_grid 302
  ################################################################################
  #
  #  Definition of "minimal" basis
  #
  ################################################################################
  #     valence basis states
      valence      2  s   2.
      valence      2  p   4.
  #     ion occupancy
      ion_occ      2  s   1.
      ion_occ      2  p   3.
  ################################################################################
  #
  #  Suggested additional basis functions. For production calculations,
  #  uncomment them one after another (the most important basis functions are
  #  listed first).
  #
  #  Constructed for dimers: 1.0 A, 1.208 A, 1.5 A, 2.0 A, 3.0 A
  #
  ################################################################################
  #  "First tier" - improvements: -699.05 meV to -159.38 meV
       hydro 2 p 1.8
       hydro 3 d 7.6
       hydro 3 s 6.4
  #  "Second tier" - improvements: -49.91 meV to -5.39 meV
  #     hydro 4 f 11.6
  #     hydro 3 p 6.2
  #     hydro 3 d 5.6
  #     hydro 5 g 17.6
  #     hydro 1 s 0.75
  #  "Third tier" - improvements: -2.83 meV to -0.50 meV
  #     ionic 2 p auto
  #     hydro 4 f 10.8
  #     hydro 4 d 4.7
  #     hydro 2 s 6.8
  #  "Fourth tier" - improvements: -0.40 meV to -0.12 meV
  #     hydro 3 p 5
  #     hydro 3 s 3.3
  #     hydro 5 g 15.6
  #     hydro 4 f 17.6
  #     hydro 4 d 14
  # Further basis functions - -0.08 meV and below
  #     hydro 3 s 2.1
  #     hydro 4 d 11.6
  #     hydro 3 p 16
  #     hydro 2 s 17.2
  
  -----------------------------------------------------------------------
  Completed first pass over input file control.in .
  -----------------------------------------------------------------------
  
  
  -----------------------------------------------------------------------
  Parsing geometry.in (first pass over file, find array dimensions only).
  The contents of geometry.in will be repeated verbatim below
  unless switched off by setting 'verbatim_writeout .false.' .
  in the first line of geometry.in .
  -----------------------------------------------------------------------
  
  atom  0.00000 0.00000 0.00000 C
  atom  1.09300 0.00000 0.00000 H
  atom  -0.47961 0.00000 -1.41207 N
  atom  0.32938 -0.05199 -2.03228 H
  atom  -1.08296 -0.80772 -1.55234 H
  atom  -0.49584 1.26211 0.72868 C
  atom  -1.58789 1.28919 0.74431 H
  atom  -0.13407 1.27425 1.75947 H
  atom  -0.13407 2.16087 0.22380 H
  atom  -0.39425 -1.28861 0.74398 C
  atom  -0.10189 -1.56493 1.88303 O
  atom  -1.10210 -2.13717 0.06896 O
  atom  -0.50115 -2.89923 0.12467 H
  
  -----------------------------------------------------------------------
  Completed first pass over input file geometry.in .
  -----------------------------------------------------------------------
  

  Basic array size parameters:
  | Number of species                 :        4
  | Number of atoms                   :       13
  | Max. basis fn. angular momentum   :        2
  | Max. atomic/ionic basis occupied n:        2
  | Max. number of basis fn. types    :        2
  | Max. radial fns per species/type  :        3
  | Max. logarithmic grid size        :     1301
  | Max. radial integration grid size :       36
  | Max. angular integration grid size:      302
  | Max. angular grid division number :        8
  | Radial grid for Hartree potential :     1301
  | Number of spin channels           :        1

------------------------------------------------------------
          Reading file control.in.
------------------------------------------------------------
  XC: Using PBE gradient-corrected functionals.
  Spin treatment: No spin polarisation.
  Non-relativistic treatment of kinetic energy.
  Charge =   0.000000E+00: Neutral system requested explicitly.
  Occupation type: Gaussian broadening, width =   0.100000E-01 eV.
  Using pulay charge density mixing.
  Pulay mixing - number of memorized iterations:   10
  Charge density mixing - mixing parameter:     0.2000
  Convergence accuracy of self-consistent charge density:  0.1000E-04
  Convergence accuracy of sum of eigenvalues:  0.1000E-02
  Convergence accuracy of total energy:  0.1000E-05
  Convergence accuracy of forces:  0.1000E-03
  Maximum number of s.-c. iterations  :   100
 
  Reading configuration options for species H                   .
  | Found nuclear charge :   1.0000
  | Found atomic mass :    1.00794000000000      amu
  | Found l_max for Hartree potential  :   4
  | Found cutoff potl. onset [A], width [A], scale factor :    3.50000    1.50000    1.00000
  | Threshold for basis-dependent cutoff potential is   0.100000E-03
  | Found data for basic radial integration grid :    24 points, outermost radius =    5.000 A
  | Found multiplier for basic radial grid :   1
  | Found angular grid specification: user-specified.
  | Specified grid contains     5 separate shells.
  | Check grid settings after all constraints further below.
  | Found free-atom valence shell :  1 s   1.000
  | No ionic wave fns used. Skipping ion_occ.
  | Found hydrogenic basis function :  2 s   2.100
  | Found hydrogenic basis function :  2 p   3.500
  Species H                   : Missing cutoff potential type.
  Defaulting to exp(1/x)/(1-x)^2 type cutoff potential.
  Species H : No 'logarithmic' tag. Using default grid for free atom:
  | Default logarithmic grid data [bohr] : 0.1000E-03 0.1000E+03 0.1012E+01
  Species H : On-site basis accuracy parameter (for Gram-Schmidt orthonormalisation) not specified.
  Using default value basis_acc =  0.1000000E-03.
  Species H                   : Using default innermost maximum threshold i_radial=  2 for radial functions.
  Species H                   : Default cutoff onset for free atom density etc. : 0.35000000E+01 AA.
  Species H                   : Basic radial grid will be enhanced according to radial_multiplier =   1, to contain    24 grid points.
 
  Reading configuration options for species C                   .
  | Found nuclear charge :   6.0000
  | Found atomic mass :    12.0107000000000      amu
  | Found l_max for Hartree potential  :   4
  | Found cutoff potl. onset [A], width [A], scale factor :    3.50000    1.50000    1.00000
  | Threshold for basis-dependent cutoff potential is   0.100000E-03
  | Found data for basic radial integration grid :    34 points, outermost radius =    5.000 A
  | Found multiplier for basic radial grid :   1
  | Found angular grid specification: user-specified.
  | Specified grid contains     5 separate shells.
  | Check grid settings after all constraints further below.
  | Found free-atom valence shell :  2 s   2.000
  | Found free-atom valence shell :  2 p   2.000
  | No ionic wave fns used. Skipping ion_occ.
  | No ionic wave fns used. Skipping ion_occ.
  | Found hydrogenic basis function :  2 p   1.700
  | Found hydrogenic basis function :  3 d   6.000
  | Found hydrogenic basis function :  2 s   4.900
  Species C                   : Missing cutoff potential type.
  Defaulting to exp(1/x)/(1-x)^2 type cutoff potential.
  Species C : No 'logarithmic' tag. Using default grid for free atom:
  | Default logarithmic grid data [bohr] : 0.1000E-03 0.1000E+03 0.1012E+01
  Species C : On-site basis accuracy parameter (for Gram-Schmidt orthonormalisation) not specified.
  Using default value basis_acc =  0.1000000E-03.
  Species C                   : Using default innermost maximum threshold i_radial=  2 for radial functions.
  Species C                   : Default cutoff onset for free atom density etc. : 0.35000000E+01 AA.
  Species C                   : Basic radial grid will be enhanced according to radial_multiplier =   1, to contain    34 grid points.
 
  Reading configuration options for species N                   .
  | Found nuclear charge :   7.0000
  | Found atomic mass :    14.0067000000000      amu
  | Found l_max for Hartree potential  :   4
  | Found cutoff potl. onset [A], width [A], scale factor :    3.50000    1.50000    1.00000
  | Threshold for basis-dependent cutoff potential is   0.100000E-03
  | Found data for basic radial integration grid :    35 points, outermost radius =    5.000 A
  | Found multiplier for basic radial grid :   1
  | Found angular grid specification: user-specified.
  | Specified grid contains     5 separate shells.
  | Check grid settings after all constraints further below.
  | Found free-atom valence shell :  2 s   2.000
  | Found free-atom valence shell :  2 p   3.000
  | No ionic wave fns used. Skipping ion_occ.
  | No ionic wave fns used. Skipping ion_occ.
  | Found hydrogenic basis function :  2 p   1.800
  | Found hydrogenic basis function :  3 d   6.800
  | Found hydrogenic basis function :  3 s   5.800
  Species N                   : Missing cutoff potential type.
  Defaulting to exp(1/x)/(1-x)^2 type cutoff potential.
  Species N : No 'logarithmic' tag. Using default grid for free atom:
  | Default logarithmic grid data [bohr] : 0.1000E-03 0.1000E+03 0.1012E+01
  Species N : On-site basis accuracy parameter (for Gram-Schmidt orthonormalisation) not specified.
  Using default value basis_acc =  0.1000000E-03.
  Species N                   : Using default innermost maximum threshold i_radial=  2 for radial functions.
  Species N                   : Default cutoff onset for free atom density etc. : 0.35000000E+01 AA.
  Species N                   : Basic radial grid will be enhanced according to radial_multiplier =   1, to contain    35 grid points.
 
  Reading configuration options for species O                   .
  | Found nuclear charge :   8.0000
  | Found atomic mass :    15.9994000000000      amu
  | Found l_max for Hartree potential  :   4
  | Found cutoff potl. onset [A], width [A], scale factor :    3.50000    1.50000    1.00000
  | Threshold for basis-dependent cutoff potential is   0.100000E-03
  | Found data for basic radial integration grid :    36 points, outermost radius =    5.000 A
  | Found multiplier for basic radial grid :   1
  | Found angular grid specification: user-specified.
  | Specified grid contains     5 separate shells.
  | Check grid settings after all constraints further below.
  | Found free-atom valence shell :  2 s   2.000
  | Found free-atom valence shell :  2 p   4.000
  | No ionic wave fns used. Skipping ion_occ.
  | No ionic wave fns used. Skipping ion_occ.
  | Found hydrogenic basis function :  2 p   1.800
  | Found hydrogenic basis function :  3 d   7.600
  | Found hydrogenic basis function :  3 s   6.400
  Species O                   : Missing cutoff potential type.
  Defaulting to exp(1/x)/(1-x)^2 type cutoff potential.
  Species O : No 'logarithmic' tag. Using default grid for free atom:
  | Default logarithmic grid data [bohr] : 0.1000E-03 0.1000E+03 0.1012E+01
  Species O : On-site basis accuracy parameter (for Gram-Schmidt orthonormalisation) not specified.
  Using default value basis_acc =  0.1000000E-03.
  Species O                   : Using default innermost maximum threshold i_radial=  2 for radial functions.
  Species O                   : Default cutoff onset for free atom density etc. : 0.35000000E+01 AA.
  Species O                   : Basic radial grid will be enhanced according to radial_multiplier =   1, to contain    36 grid points.
 
  Finished reading input file 'control.in'. Consistency checks are next.
 
  MPI_IN_PLACE appears to work with this MPI implementation.
  | Keeping use_mpi_in_place .true. (see manual).
  Target number of points in a grid batch is not set. Defaulting to  100
  Method for grid partitioning is not set. Defaulting to parallel hash+maxmin partitioning.
  Batch size limit is not set. Defaulting to    200
  By default, will store active basis functions for each batch.
  If in need of memory, prune_basis_once .false. can be used to disable this option.
  communication_type for Hartree potential was not specified.
  Defaulting to calc_hartree .
  Pulay mixer: Number of initial linear mixing iterations not set.
  Defaulting to    0 iterations.
  Work space size for distributed Hartree potential not set.
  Defaulting to   0.200000E+03 MB.
  Algorithm-dependent basis array size parameters:
  | n_max_pulay                         :       10
  Presetting      1001 iterations before the initial mixing cycle
  is restarted anyway using the sc_init_iter criterion / keyword.
  Presetting a factor      1.000 between actual scf density residual
  and density convergence criterion sc_accuracy_rho below which sc_init_iter
  takes no effect.
  Geometry relaxation not requested: no relaxation will be performed.
  Handling of forces: Unphysical translation and rotation will be removed from forces.
  No accuracy limit for integral partition fn. given. Defaulting to  0.1000E-14.
  No threshold value for u(r) in integrations given. Defaulting to  0.1000E-05.
  No accuracy for occupation numbers given. Defaulting to  0.1000E-12.
  No threshold value for occupation numbers given. Defaulting to  0.0000E+00.
  No accuracy for fermi level given. Defaulting to  0.1000E-19.
  Maximum # of iterations to find E_F not set. Defaulting to  200.
  Preferred method for the eigenvalue solver ('KS_method') not specified in 'control.in'.
  Defaulting to serial version, 'lapack_fast'.
  Will not use alltoall communication since running on < 1024 CPUs.
  Threshold for basis singularities not set.
  Default threshold for basis singularities:  0.1000E-04
  partition_type (choice of integration weights) for integrals was not specified.
  | Using a version of the partition function of Stratmann and coworkers ('stratmann_smoother').
  | At each grid point, the set of atoms used to build the partition table is smoothly restricted to
  | only those atoms whose free-atom density would be non-zero at that grid point.
  Partitioning for Hartree potential was not defined. Using partition_type for integrals.
  | Adjusted default value of keyword multip_moments_threshold to:       0.10000000E-11
  | This value may affect high angular momentum components of the Hartree potential in periodic systems.
  No q(lm)/r^(l+1) cutoff set for long-range Hartree potential.
  | Using default value of  0.100000E-09 .
  | Verify using the multipole_threshold keyword.
  Defaulting to new monopole extrapolation.
  Density update method: automatic selection selected.
------------------------------------------------------------


------------------------------------------------------------
          Reading geometry description geometry.in.
------------------------------------------------------------
  Input structure read successfully.
  The structure contains       13 atoms,  and a total of         48.000 electrons.

  Input geometry:
  | No unit cell requested.
  | Atomic structure:
  |       Atom                x [A]            y [A]            z [A]
  |    1: Species C             0.00000000        0.00000000        0.00000000
  |    2: Species H             1.09300000        0.00000000        0.00000000
  |    3: Species N            -0.47961000        0.00000000       -1.41207000
  |    4: Species H             0.32938000       -0.05199000       -2.03228000
  |    5: Species H            -1.08296000       -0.80772000       -1.55234000
  |    6: Species C            -0.49584000        1.26211000        0.72868000
  |    7: Species H            -1.58789000        1.28919000        0.74431000
  |    8: Species H            -0.13407000        1.27425000        1.75947000
  |    9: Species H            -0.13407000        2.16087000        0.22380000
  |   10: Species C            -0.39425000       -1.28861000        0.74398000
  |   11: Species O            -0.10189000       -1.56493000        1.88303000
  |   12: Species O            -1.10210000       -2.13717000        0.06896000
  |   13: Species H            -0.50115000       -2.89923000        0.12467000
  |

  | The smallest distance between any two atoms is         0.97210079 AA.
  |
  | The first atom of this pair is atom number                     12 .
  | The second atom of this pair is atom number                    13 .

  Number of empty states per atom not set in control.in - providing a guess from actual geometry.
  | Total number of empty states used during s.c.f. cycle:       29
  If you use a very high smearing, use empty_states (per atom!) in control.in to increase this value.

  Structure-dependent array size parameters: 
  | Maximum number of distinct radial functions  :       21
  | Maximum number of basis functions            :      119
  | Number of Kohn-Sham states (occupied + empty):       53
------------------------------------------------------------

------------------------------------------------------------
          Preparing all fixed parts of the calculation.
------------------------------------------------------------
  Determining machine precision:
    2.225073858507201E-308
  Setting up grids for atomic and cluster calculations.

  Creating wave function, potential, and density for free atoms.

  Species: H

  List of occupied orbitals and eigenvalues:
    n    l              occ      energy [Ha]    energy [eV]
    1    0           1.0000        -0.237589        -6.4651


  Species: C

  List of occupied orbitals and eigenvalues:
    n    l              occ      energy [Ha]    energy [eV]
    1    0           2.0000       -10.038835      -273.1706
    2    0           2.0000        -0.502696       -13.6791
    2    1           2.0000        -0.191971        -5.2238


  Species: N

  List of occupied orbitals and eigenvalues:
    n    l              occ      energy [Ha]    energy [eV]
    1    0           2.0000       -14.128000      -384.4424
    2    0           2.0000        -0.681077       -18.5330
    2    1           3.0000        -0.259788        -7.0692


  Species: O

  List of occupied orbitals and eigenvalues:
    n    l              occ      energy [Ha]    energy [eV]
    1    0           2.0000       -18.898188      -514.2459
    2    0           2.0000        -0.878505       -23.9053
    2    1           4.0000        -0.331779        -9.0282

  Creating fixed part of basis set: Ionic, confined, hydrogenic.
 
  H                    hydrogenic:
 
  List of hydrogenic basis orbitals: 
    n    l      effective z      eigenvalue [eV]  inner max. [A]     outer max. [A]     outer radius [A]   
    2    0         2.100000       -14.9728           0.193243           1.317208           4.583499
    2    1         3.500000       -41.6669           0.602369           0.602369           3.723403
 
 
  C                    hydrogenic:
 
  List of hydrogenic basis orbitals: 
    n    l      effective z      eigenvalue [eV]  inner max. [A]     outer max. [A]     outer radius [A]   
    2    1         1.700000        -9.7616           1.230570           1.230570           4.607917
    3    2         6.000000       -54.4224           0.792453           0.792453           3.883070
    2    0         4.900000       -81.6679           0.082559           0.562749           3.078220
 
 
  N                    hydrogenic:
 
  List of hydrogenic basis orbitals: 
    n    l      effective z      eigenvalue [eV]  inner max. [A]     outer max. [A]     outer radius [A]   
    2    1         1.800000       -10.9749           1.177451           1.177451           4.573712
    3    2         6.800000       -69.9026           0.704619           0.704619           3.538137
    3    0         5.800000       -50.8545           0.067388           1.191934           4.250239
 
 
  O                    hydrogenic:
 
  List of hydrogenic basis orbitals: 
    n    l      effective z      eigenvalue [eV]  inner max. [A]     outer max. [A]     outer radius [A]   
    2    1         1.800000       -10.9749           1.164242           1.164242           4.578029
    3    2         7.600000       -87.3180           0.624125           0.624125           3.251020
    3    0         6.400000       -61.9207           0.061167           1.081902           4.001998
 

  Adding cutoff potential to free-atom effective potential.
  Creating atomic-like basis functions for current effective potential.

  Species H                   :

  List of atomic basis orbitals and eigenvalues:
    n    l      energy [Ha]    energy [eV]    outer radius [A]
    1    0        -0.237589        -6.4651       4.527807


  Species C                   :

  List of atomic basis orbitals and eigenvalues:
    n    l      energy [Ha]    energy [eV]    outer radius [A]
    1    0       -10.038835      -273.1706       1.934409
    2    0        -0.502696       -13.6791       4.496620
    2    1        -0.191971        -5.2238       4.551928


  Species N                   :

  List of atomic basis orbitals and eigenvalues:
    n    l      energy [Ha]    energy [eV]    outer radius [A]
    1    0       -14.128000      -384.4424       1.637919
    2    0        -0.681077       -18.5330       4.463241
    2    1        -0.259788        -7.0692       4.518138


  Species O                   :

  List of atomic basis orbitals and eigenvalues:
    n    l      energy [Ha]    energy [eV]    outer radius [A]
    1    0       -18.898188      -514.2459       1.415765
    2    0        -0.878505       -23.9053       4.413171
    2    1        -0.331779        -9.0282       4.522403

  Assembling full basis from fixed parts.
  | Species H :   atomic orbital   1 s accepted.
  | Species H :    hydro orbital   2 s accepted.
  | Species H :    hydro orbital   2 p accepted.
  | Species C :   atomic orbital   1 s accepted.
  | Species C :    hydro orbital   2 s accepted.
  | Species C :   atomic orbital   2 s accepted.
  | Species C :   atomic orbital   2 p accepted.
  | Species C :    hydro orbital   2 p accepted.
  | Species C :    hydro orbital   3 d accepted.
  | Species N :   atomic orbital   1 s accepted.
  | Species N :    hydro orbital   3 s accepted.
  | Species N :   atomic orbital   2 s accepted.
  | Species N :   atomic orbital   2 p accepted.
  | Species N :    hydro orbital   2 p accepted.
  | Species N :    hydro orbital   3 d accepted.
  | Species O :   atomic orbital   1 s accepted.
  | Species O :    hydro orbital   3 s accepted.
  | Species O :   atomic orbital   2 s accepted.
  | Species O :   atomic orbital   2 p accepted.
  | Species O :    hydro orbital   2 p accepted.
  | Species O :    hydro orbital   3 d accepted.
 
  Basis size parameters after reduction:
  | Total number of radial functions:       21
  | Total number of basis functions :      119
 
  Per-task memory consumption for arrays in subroutine allocate_ext:
  |           5.250512MB.
  Testing on-site integration grid accuracy.
  |  Species  Function  <phi|h_atom|phi> (log., in eV)  <phi|h_atom|phi> (rad., in eV)
           1        1                 -6.4663192853                 -6.4651273558
           1        2                 13.7111246313                 13.7170609718
           1        3                 25.2673269279                 25.2674696378
           2        4               -273.1705927641               -273.1705631568
           2        5                -10.7109323383                -10.7107120029
           2        6                 17.4381822266                 17.4352413244
           2        7                 -5.2255326521                 -5.2270484734
           2        8                  8.6835629259                  8.6603288385
           2        9                 27.4952418996                 27.4953360207
           3       10               -384.4424306495               -384.4423701208
           3       11                 12.5842251816                 12.5842222903
           3       12                -15.7264628251                -15.7264433455
           3       13                 -7.0696854293                 -7.0701769954
           3       14                  8.8090390882                  8.7901077751
           3       15                 35.9586762123                 35.9588528632
           4       16               -514.2458688638               -514.2457643834
           4       17                 15.1795651126                 15.1795290741
           4       18                -21.5359799773                -21.5360846186
           4       19                 -9.0283069236                 -9.0284644067
           4       20                  8.3027758564                  8.2834874195
           4       21                 45.8339351984                 45.8338762259

  Preparing densities etc. for the partition functions (integrals / Hartree potential).

  Preparations completed.
  max(cpu_time)          :      0.144 s.
  Wall clock time (cpu1) :      0.145 s.
------------------------------------------------------------

------------------------------------------------------------
          Begin self-consistency loop: Initialization.

          Date     :  20200805, Time     :  182945.230
------------------------------------------------------------

  Initializing index lists of integration centers etc. from given atomic structure:
  | Number of centers in hartree potential         :        13
  | Number of centers in hartree multipole         :        13
  | Number of centers in electron density summation:        13
  | Number of centers in basis integrals           :        13
  | Number of centers in integrals                 :        13
  | Number of centers in hamiltonian               :        13
  Partitioning the integration grid into batches with parallel hashing+maxmin method.
  | Number of batches:      955
  | Maximal batch size:     138
  | Minimal batch size:      66
  | Average batch size:      72.928
  | Standard deviation of batch sizes:      17.651

  Integration load balanced across     1 MPI tasks.
  Work distribution over tasks is as follows:
  Task     0 has      69646 integration points.
  Initializing partition tables, free-atom densities, potentials, etc. across the integration grid (initialize_grid_storage).
  | initialize_grid_storage: Actual outermost partition radius vs. multipole_radius_free
  | (-- VB: in principle, multipole_radius_free should be larger, hence this output)
  | Species        1: Confinement radius =              4.999999999999999 AA, multipole_radius_free =              5.054417573612229 AA.
  | Species        1: outer_partition_radius set to              5.054417573612229 AA .
  | Species        2: Confinement radius =              4.999999999999999 AA, multipole_radius_free =              5.019602836301480 AA.
  | Species        2: outer_partition_radius set to              5.019602836301480 AA .
  | Species        3: Confinement radius =              4.999999999999999 AA, multipole_radius_free =              5.043624274424571 AA.
  | Species        3: outer_partition_radius set to              5.043624274424571 AA .
  | Species        4: Confinement radius =              4.999999999999999 AA, multipole_radius_free =              5.048384829883283 AA.
  | Species        4: outer_partition_radius set to              5.048384829883283 AA .
  | Original list of interatomic distances with          13 x         13 entries is created.
  | Net number of integration points:    69646
  | of which are non-zero points    :    59634
  Renormalizing the initial density to the exact electron count on the 3D integration grid.
  | Initial density: Formal number of electrons (from input files) :      48.0000000000
  | Integrated number of electrons on 3D grid     :      47.9999444074
  | Charge integration error                      :      -0.0000555926
  | Normalization factor for density and gradient :       1.0000011582
  Obtaining max. number of non-zero basis functions in each batch (get_n_compute_maxes).
  | Maximal number of non-zero basis functions:      118 in task     0
  Selecting the method for density update.
  Loop over occupied states selected for charge density update.
  Allocating        0.050 MB for KS_eigenvector
  Integrating Hamiltonian matrix: batch-based integration.
  Time summed over all CPUs for integration: real work        0.488 s, elapsed        0.488 s
  Integrating overlap matrix.
  Time summed over all CPUs for integration: real work        0.220 s, elapsed        0.220 s

  Updating Kohn-Sham eigenvalues and eigenvectors using ELSI and the ELPA eigensolver.
  Overlap matrix is nonsingular
  | Lowest eigenvalue of overlap  :  0.46E-02
  | Highest eigenvalue of overlap :  0.61E+01
  Finished singularity check of overlap matrix
  | Time :     0.002 s
  Finished Cholesky decomposition
  | Time :     0.000 s
  Finished transformation to standard eigenproblem
  | Time :     0.000 s
  Starting LAPACK eigensolver
  Finished solving standard eigenproblem
  | Time :     0.002 s
  Finished back-transformation of eigenvectors
  | Time :     0.000 s

  Obtaining occupation numbers and chemical potential using ELSI.
  | Chemical potential (Fermi level):    -9.84856421eV
  Writing Kohn-Sham eigenvalues.

  State    Occupation    Eigenvalue [Ha]    Eigenvalue [eV]
      1       2.00000         -19.008451         -517.24627
      2       2.00000         -18.977636         -516.40776
      3       2.00000         -14.245794         -387.64779
      4       2.00000         -10.166582         -276.64678
      5       2.00000         -10.141259         -275.95769
      6       2.00000         -10.132155         -275.70998
      7       2.00000          -1.186245          -32.27936
      8       2.00000          -1.095585          -29.81240
      9       2.00000          -0.990829          -26.96182
     10       2.00000          -0.861758          -23.44962
     11       2.00000          -0.754792          -20.53894
     12       2.00000          -0.684876          -18.63641
     13       2.00000          -0.624711          -16.99924
     14       2.00000          -0.612272          -16.66076
     15       2.00000          -0.585053          -15.92011
     16       2.00000          -0.565429          -15.38612
     17       2.00000          -0.553724          -15.06761
     18       2.00000          -0.535479          -14.57113
     19       2.00000          -0.515778          -14.03503
     20       2.00000          -0.492577          -13.40370
     21       2.00000          -0.466203          -12.68602
     22       2.00000          -0.428742          -11.66667
     23       2.00000          -0.411108          -11.18683
     24       2.00000          -0.384109          -10.45215
     25       0.00000          -0.160356           -4.36352
     26       0.00000          -0.060666           -1.65081
     27       0.00000          -0.029000           -0.78913
     28       0.00000          -0.022502           -0.61231
     29       0.00000           0.000774            0.02106
     30       0.00000           0.010940            0.29769
     31       0.00000           0.024520            0.66722
     32       0.00000           0.026267            0.71476
     33       0.00000           0.040830            1.11105
     34       0.00000           0.071911            1.95681
     35       0.00000           0.088297            2.40267
     36       0.00000           0.132920            3.61695
     37       0.00000           0.164188            4.46778
     38       0.00000           0.197574            5.37627
     39       0.00000           0.210017            5.71485
     40       0.00000           0.223394            6.07885
     41       0.00000           0.258692            7.03938
     42       0.00000           0.279009            7.59223
     43       0.00000           0.289562            7.87939
     44       0.00000           0.311454            8.47511
     45       0.00000           0.343506            9.34728
     46       0.00000           0.355795            9.68168
     47       0.00000           0.380301           10.34852
     48       0.00000           0.390011           10.61274
     49       0.00000           0.419693           11.42043
     50       0.00000           0.485175           13.20228
     51       0.00000           0.515735           14.03386
     52       0.00000           0.533893           14.52798
     53       0.00000           0.555114           15.10542

  Highest occupied state (VBM) at    -10.45214519 eV
  | Occupation number:      2.00000000

  Lowest unoccupied state (CBM) at    -4.36351538 eV
  | Occupation number:      0.00000000

  Overall HOMO-LUMO gap:      6.08862981 eV.
  Calculating total energy contributions from superposition of free atom densities.

  Total energy components:
  | Sum of eigenvalues            :        -188.84229706 Ha       -5138.66035522 eV
  | XC energy correction          :         -41.78818342 Ha       -1137.11432648 eV
  | XC potential correction       :          53.71924350 Ha        1461.77499002 eV
  | Free-atom electrostatic energy:        -146.85161996 Ha       -3996.03589521 eV
  | Hartree energy correction     :           0.00000000 Ha           0.00000000 eV
  | vdW energy correction         :           0.00000000 Ha           0.00000000 eV
  | Entropy correction            :           0.00000000 Ha           0.00000000 eV
  | ---------------------------
  | Total energy                  :        -323.76285694 Ha       -8810.03558689 eV
  | Total energy, T -> 0          :        -323.76285694 Ha       -8810.03558689 eV  <-- do not rely on this value for anything but (periodic) metals
  | Electronic free energy        :        -323.76285694 Ha       -8810.03558689 eV

  Derived energy quantities:
  | Kinetic energy                :         320.49305201 Ha        8721.05966788 eV
  | Electrostatic energy          :        -602.46772553 Ha      -16393.98092829 eV
  | Energy correction for multipole
  | error in Hartree potential    :           0.00000000 Ha           0.00000000 eV
  | Sum of eigenvalues per atom                           :        -395.28156579 eV
  | Total energy (T->0) per atom                          :        -677.69504515 eV  <-- do not rely on this value for anything but (periodic) metals
  | Electronic free energy per atom                       :        -677.69504515 eV
  Initialize hartree_potential_storage
  Max. number of atoms included in rho_multipole:           13

  End scf initialization - timings             :  max(cpu_time)    wall_clock(cpu1)
  | Time for scf. initialization               :        1.147 s           1.148 s
  | Boundary condition initialization          :        0.000 s           0.000 s
  | Integration                                :        0.708 s           0.708 s
  | Solution of K.-S. eqns.                    :        0.004 s           0.004 s
  | Grid partitioning                          :        0.109 s           0.109 s
  | Preloading free-atom quantities on grid    :        0.002 s           0.003 s
  | Free-atom superposition energy             :        0.084 s           0.084 s
  | Total energy evaluation                    :        0.000 s           0.000 s

  Partial memory accounting:
  | Current value for overall tracked memory usage on task 0  :           0.165 MB
  | Peak value for overall tracked memory usage on task 0     :           0.670 MB after allocating wave
  | Largest tracked array allocation on task 0 so far         :           0.130 MB  when allocating H_times_psi
  Note:  These values currently only include a subset of arrays which are explicitly tracked.
  The "true" memory usage will be greater.
------------------------------------------------------------

------------------------------------------------------------
          Begin self-consistency iteration #    1

  Date     :  20200805, Time     :  182946.379
------------------------------------------------------------
  Evaluating new KS density.
  Integration grid: deviation in total charge (<rho> - N_e) =   2.131628E-14
  Pulay mixing of updated and previous charge densities.

  Evaluating partitioned Hartree potential by multipole expansion.
  | Analytical far-field extrapolation by fixed multipoles:
  | Hartree multipole sum: apparent total charge =  -0.162828E-03
  Summing up the Hartree potential.
  Time summed over all CPUs for potential: real work        0.280 s, elapsed        0.280 s
  | RMS charge density error from multipole expansion :   0.587788E-02

  Integrating Hamiltonian matrix: batch-based integration.
  Time summed over all CPUs for integration: real work        0.492 s, elapsed        0.492 s

  Updating Kohn-Sham eigenvalues and eigenvectors using ELSI and the ELPA eigensolver.
  Finished Cholesky decomposition
  | Time :     0.000 s
  Finished transformation to standard eigenproblem
  | Time :     0.000 s
  Starting LAPACK eigensolver
  Finished solving standard eigenproblem
  | Time :     0.002 s
  Finished back-transformation of eigenvectors
  | Time :     0.000 s

  Obtaining occupation numbers and chemical potential using ELSI.
  | Chemical potential (Fermi level):    -4.66904055eV
  Writing Kohn-Sham eigenvalues.

  State    Occupation    Eigenvalue [Ha]    Eigenvalue [eV]
      1       2.00000         -18.905144         -514.43515
      2       2.00000         -18.840658         -512.68038
      3       2.00000         -14.093780         -383.51125
      4       2.00000         -10.119197         -275.35735
      5       2.00000         -10.061789         -273.79520
      6       2.00000         -10.026109         -272.82432
      7       2.00000          -1.139437          -31.00565
      8       2.00000          -1.035063          -28.16549
      9       2.00000          -0.919914          -25.03213
     10       2.00000          -0.793213          -21.58441
     11       2.00000          -0.703097          -19.13223
     12       2.00000          -0.640219          -17.42125
     13       2.00000          -0.570070          -15.51239
     14       2.00000          -0.550487          -14.97951
     15       2.00000          -0.529024          -14.39548
     16       2.00000          -0.508530          -13.83781
     17       2.00000          -0.491068          -13.36265
     18       2.00000          -0.471638          -12.83393
     19       2.00000          -0.447966          -12.18977
     20       2.00000          -0.435249          -11.84372
     21       2.00000          -0.408661          -11.12024
     22       2.00000          -0.373670          -10.16809
     23       2.00000          -0.340251           -9.25871
     24       2.00000          -0.308575           -8.39676
     25       0.00000          -0.127030           -3.45665
     26       0.00000          -0.038901           -1.05854
     27       0.00000          -0.004780           -0.13007
     28       0.00000           0.016339            0.44460
     29       0.00000           0.030829            0.83891
     30       0.00000           0.055268            1.50391
     31       0.00000           0.064572            1.75708
     32       0.00000           0.073703            2.00557
     33       0.00000           0.082233            2.23767
     34       0.00000           0.108300            2.94699
     35       0.00000           0.127860            3.47925
     36       0.00000           0.161418            4.39240
     37       0.00000           0.188903            5.14030
     38       0.00000           0.225314            6.13110
     39       0.00000           0.239465            6.51617
     40       0.00000           0.263805            7.17849
     41       0.00000           0.296247            8.06128
     42       0.00000           0.312581            8.50577
     43       0.00000           0.325700            8.86275
     44       0.00000           0.351121            9.55450
     45       0.00000           0.382656           10.41259
     46       0.00000           0.392469           10.67963
     47       0.00000           0.419546           11.41644
     48       0.00000           0.426218           11.59797
     49       0.00000           0.458697           12.48179
     50       0.00000           0.520631           14.16709
     51       0.00000           0.546490           14.87074
     52       0.00000           0.574454           15.63169
     53       0.00000           0.589943           16.05316

  Highest occupied state (VBM) at     -8.39676479 eV
  | Occupation number:      2.00000000

  Lowest unoccupied state (CBM) at    -3.45665276 eV
  | Occupation number:      0.00000000

  Overall HOMO-LUMO gap:      4.94011203 eV.

  Total energy components:
  | Sum of eigenvalues            :        -185.42561772 Ha       -5045.68777982 eV
  | XC energy correction          :         -42.11821684 Ha       -1146.09499281 eV
  | XC potential correction       :          54.14853631 Ha        1473.45664153 eV
  | Free-atom electrostatic energy:        -146.85161996 Ha       -3996.03589521 eV
  | Hartree energy correction     :          -3.33065803 Ha         -90.63181618 eV
  | vdW energy correction         :           0.00000000 Ha           0.00000000 eV
  | Entropy correction            :           0.00000000 Ha           0.00000000 eV
  | ---------------------------
  | Total energy                  :        -323.57757623 Ha       -8804.99384249 eV
  | Total energy, T -> 0          :        -323.57757623 Ha       -8804.99384249 eV  <-- do not rely on this value for anything but (periodic) metals
  | Electronic free energy        :        -323.57757623 Ha       -8804.99384249 eV

  Derived energy quantities:
  | Kinetic energy                :         322.29364935 Ha        8770.05641434 eV
  | Electrostatic energy          :        -603.75300875 Ha      -16428.95526401 eV
  | Energy correction for multipole
  | error in Hartree potential    :           0.01229772 Ha           0.33463806 eV
  | Sum of eigenvalues per atom                           :        -388.12982922 eV
  | Total energy (T->0) per atom                          :        -677.30721865 eV  <-- do not rely on this value for anything but (periodic) metals
  | Electronic free energy per atom                       :        -677.30721865 eV

  Self-consistency convergence accuracy:
  | Change of charge density      :  0.5866E+00
  | Change of sum of eigenvalues  :  0.9297E+02 eV
  | Change of total energy        :  0.5042E+01 eV

  End self-consistency iteration #     1       :  max(cpu_time)    wall_clock(cpu1)
  | Time for this iteration                    :        1.187 s           1.187 s
  | Charge density update                      :        0.398 s           0.398 s
  | Density mixing                             :        0.005 s           0.005 s
  | Hartree multipole update                   :        0.009 s           0.009 s
  | Hartree multipole summation                :        0.281 s           0.281 s
  | Integration                                :        0.492 s           0.492 s
  | Solution of K.-S. eqns.                    :        0.002 s           0.002 s
  | Total energy evaluation                    :        0.000 s           0.000 s

  Partial memory accounting:
  | Current value for overall tracked memory usage on task 0  :           0.165 MB
  | Peak value for overall tracked memory usage on task 0     :           0.686 MB after allocating gradient_basis_wave
  | Largest tracked array allocation on task 0 so far         :           0.391 MB  when allocating gradient_basis_wave
  Note:  These values currently only include a subset of arrays which are explicitly tracked.
  The "true" memory usage will be greater.
------------------------------------------------------------

------------------------------------------------------------
          Begin self-consistency iteration #    2

  Date     :  20200805, Time     :  182947.567
------------------------------------------------------------
  Evaluating new KS density.
  Integration grid: deviation in total charge (<rho> - N_e) =   0.000000E+00
  Pulay mixing of updated and previous charge densities.

  Evaluating partitioned Hartree potential by multipole expansion.
  | Analytical far-field extrapolation by fixed multipoles:
  | Hartree multipole sum: apparent total charge =  -0.299411E-03
  Summing up the Hartree potential.
  Time summed over all CPUs for potential: real work        0.280 s, elapsed        0.280 s
  | RMS charge density error from multipole expansion :   0.139451E-01

  Integrating Hamiltonian matrix: batch-based integration.
  Time summed over all CPUs for integration: real work        0.505 s, elapsed        0.505 s

  Updating Kohn-Sham eigenvalues and eigenvectors using ELSI and the ELPA eigensolver.
  Finished Cholesky decomposition
  | Time :     0.000 s
  Finished transformation to standard eigenproblem
  | Time :     0.000 s
  Starting LAPACK eigensolver
  Finished solving standard eigenproblem
  | Time :     0.002 s
  Finished back-transformation of eigenvectors
  | Time :     0.000 s

  Obtaining occupation numbers and chemical potential using ELSI.
  | Chemical potential (Fermi level):    -3.45902897eV
  Highest occupied state (VBM) at     -6.33114978 eV
  | Occupation number:      2.00000000

  Lowest unoccupied state (CBM) at    -2.29811465 eV
  | Occupation number:      0.00000000

  Overall HOMO-LUMO gap:      4.03303513 eV.

  Checking to see if s.c.f. parameters should be adjusted.

  Total energy components:
  | Sum of eigenvalues            :        -181.83205009 Ha       -4947.90182953 eV
  | XC energy correction          :         -42.47960097 Ha       -1155.92875538 eV
  | XC potential correction       :          54.61711123 Ha        1486.20721396 eV
  | Free-atom electrostatic energy:        -146.85161996 Ha       -3996.03589521 eV
  | Hartree energy correction     :          -6.95168286 Ha        -189.16491514 eV
  | vdW energy correction         :           0.00000000 Ha           0.00000000 eV
  | Entropy correction            :           0.00000000 Ha           0.00000000 eV
  | ---------------------------
  | Total energy                  :        -323.49784265 Ha       -8802.82418129 eV
  | Total energy, T -> 0          :        -323.49784265 Ha       -8802.82418129 eV  <-- do not rely on this value for anything but (periodic) metals
  | Electronic free energy        :        -323.49784265 Ha       -8802.82418129 eV

  Derived energy quantities:
  | Kinetic energy                :         323.62037506 Ha        8806.15845776 eV
  | Electrostatic energy          :        -604.63861674 Ha      -16453.05388367 eV
  | Energy correction for multipole
  | error in Hartree potential    :           0.02708202 Ha           0.73693925 eV
  | Sum of eigenvalues per atom                           :        -380.60783304 eV
  | Total energy (T->0) per atom                          :        -677.14032164 eV  <-- do not rely on this value for anything but (periodic) metals
  | Electronic free energy per atom                       :        -677.14032164 eV

  Self-consistency convergence accuracy:
  | Change of charge density      :  0.3666E+00
  | Change of sum of eigenvalues  :  0.9779E+02 eV
  | Change of total energy        :  0.2170E+01 eV

  End self-consistency iteration #     2       :  max(cpu_time)    wall_clock(cpu1)
  | Time for this iteration                    :        1.177 s           1.185 s
  | Charge density update                      :        0.380 s           0.380 s
  | Density mixing                             :        0.007 s           0.007 s
  | Hartree multipole update                   :        0.009 s           0.009 s
  | Hartree multipole summation                :        0.281 s           0.281 s
  | Integration                                :        0.499 s           0.505 s
  | Solution of K.-S. eqns.                    :        0.002 s           0.002 s
  | Total energy evaluation                    :        0.000 s           0.000 s

  Partial memory accounting:
  | Current value for overall tracked memory usage on task 0  :           0.166 MB
  | Peak value for overall tracked memory usage on task 0     :           0.686 MB after allocating gradient_basis_wave
  | Largest tracked array allocation on task 0 so far         :           0.391 MB  when allocating gradient_basis_wave
  Note:  These values currently only include a subset of arrays which are explicitly tracked.
  The "true" memory usage will be greater.
------------------------------------------------------------

------------------------------------------------------------
          Begin self-consistency iteration #    3

  Date     :  20200805, Time     :  182948.752
------------------------------------------------------------
  Evaluating new KS density.
  Integration grid: deviation in total charge (<rho> - N_e) =   2.131628E-14
  Pulay mixing of updated and previous charge densities.

  Evaluating partitioned Hartree potential by multipole expansion.
  | Analytical far-field extrapolation by fixed multipoles:
  | Hartree multipole sum: apparent total charge =  -0.395516E-03
  Summing up the Hartree potential.
  Time summed over all CPUs for potential: real work        0.280 s, elapsed        0.280 s
  | RMS charge density error from multipole expansion :   0.219740E-01

  Integrating Hamiltonian matrix: batch-based integration.
  Time summed over all CPUs for integration: real work        0.499 s, elapsed        0.499 s

  Updating Kohn-Sham eigenvalues and eigenvectors using ELSI and the ELPA eigensolver.
  Finished Cholesky decomposition
  | Time :     0.000 s
  Finished transformation to standard eigenproblem
  | Time :     0.000 s
  Starting LAPACK eigensolver
  Finished solving standard eigenproblem
  | Time :     0.002 s
  Finished back-transformation of eigenvectors
  | Time :     0.000 s

  Obtaining occupation numbers and chemical potential using ELSI.
  | Chemical potential (Fermi level):    -2.77746839eV
  Highest occupied state (VBM) at     -5.64996909 eV
  | Occupation number:      2.00000000

  Lowest unoccupied state (CBM) at    -1.63535492 eV
  | Occupation number:      0.00000000

  Overall HOMO-LUMO gap:      4.01461417 eV.

  Total energy components:
  | Sum of eigenvalues            :        -180.51056908 Ha       -4911.94250159 eV
  | XC energy correction          :         -42.63277212 Ha       -1160.09675459 eV
  | XC potential correction       :          54.81263561 Ha        1491.52770308 eV
  | Free-atom electrostatic energy:        -146.85161996 Ha       -3996.03589521 eV
  | Hartree energy correction     :          -8.30249128 Ha        -225.92228265 eV
  | vdW energy correction         :           0.00000000 Ha           0.00000000 eV
  | Entropy correction            :           0.00000000 Ha           0.00000000 eV
  | ---------------------------
  | Total energy                  :        -323.48481684 Ha       -8802.46973095 eV
  | Total energy, T -> 0          :        -323.48481684 Ha       -8802.46973095 eV  <-- do not rely on this value for anything but (periodic) metals
  | Electronic free energy        :        -323.48481684 Ha       -8802.46973095 eV

  Derived energy quantities:
  | Kinetic energy                :         323.21582668 Ha        8795.15013626 eV
  | Electrostatic energy          :        -604.06787139 Ha      -16437.52311263 eV
  | Energy correction for multipole
  | error in Hartree potential    :           0.03826312 Ha           1.04119245 eV
  | Sum of eigenvalues per atom                           :        -377.84173089 eV
  | Total energy (T->0) per atom                          :        -677.11305623 eV  <-- do not rely on this value for anything but (periodic) metals
  | Electronic free energy per atom                       :        -677.11305623 eV

  Self-consistency convergence accuracy:
  | Change of charge density      :  0.2049E+00
  | Change of sum of eigenvalues  :  0.3596E+02 eV
  | Change of total energy        :  0.3545E+00 eV

  End self-consistency iteration #     3       :  max(cpu_time)    wall_clock(cpu1)
  | Time for this iteration                    :        1.178 s           1.179 s
  | Charge density update                      :        0.379 s           0.380 s
  | Density mixing                             :        0.008 s           0.008 s
  | Hartree multipole update                   :        0.009 s           0.009 s
  | Hartree multipole summation                :        0.280 s           0.280 s
  | Integration                                :        0.499 s           0.499 s
  | Solution of K.-S. eqns.                    :        0.002 s           0.003 s
  | Total energy evaluation                    :        0.000 s           0.000 s

  Partial memory accounting:
  | Current value for overall tracked memory usage on task 0  :           0.166 MB
  | Peak value for overall tracked memory usage on task 0     :           0.687 MB after allocating gradient_basis_wave
  | Largest tracked array allocation on task 0 so far         :           0.391 MB  when allocating gradient_basis_wave
  Note:  These values currently only include a subset of arrays which are explicitly tracked.
  The "true" memory usage will be greater.
------------------------------------------------------------

------------------------------------------------------------
          Begin self-consistency iteration #    4

  Date     :  20200805, Time     :  182949.931
------------------------------------------------------------
  Evaluating new KS density.
  Integration grid: deviation in total charge (<rho> - N_e) =   9.237056E-14
  Pulay mixing of updated and previous charge densities.

  Evaluating partitioned Hartree potential by multipole expansion.
  | Analytical far-field extrapolation by fixed multipoles:
  | Hartree multipole sum: apparent total charge =  -0.427344E-03
  Summing up the Hartree potential.
  Time summed over all CPUs for potential: real work        0.281 s, elapsed        0.281 s
  | RMS charge density error from multipole expansion :   0.253663E-01

  Integrating Hamiltonian matrix: batch-based integration.
  Time summed over all CPUs for integration: real work        0.498 s, elapsed        0.498 s

  Updating Kohn-Sham eigenvalues and eigenvectors using ELSI and the ELPA eigensolver.
  Finished Cholesky decomposition
  | Time :     0.000 s
  Finished transformation to standard eigenproblem
  | Time :     0.000 s
  Starting LAPACK eigensolver
  Finished solving standard eigenproblem
  | Time :     0.002 s
  Finished back-transformation of eigenvectors
  | Time :     0.000 s

  Obtaining occupation numbers and chemical potential using ELSI.
  | Chemical potential (Fermi level):    -2.66423675eV
  Highest occupied state (VBM) at     -5.47348918 eV
  | Occupation number:      2.00000000

  Lowest unoccupied state (CBM) at    -1.54831955 eV
  | Occupation number:      0.00000000

  Overall HOMO-LUMO gap:      3.92516963 eV.

  Total energy components:
  | Sum of eigenvalues            :        -180.35978165 Ha       -4907.83936675 eV
  | XC energy correction          :         -42.67021477 Ha       -1161.11562073 eV
  | XC potential correction       :          54.85982497 Ha        1492.81179095 eV
  | Free-atom electrostatic energy:        -146.85161996 Ha       -3996.03589521 eV
  | Hartree energy correction     :          -8.46213118 Ha        -230.26630511 eV
  | vdW energy correction         :           0.00000000 Ha           0.00000000 eV
  | Entropy correction            :           0.00000000 Ha           0.00000000 eV
  | ---------------------------
  | Total energy                  :        -323.48392258 Ha       -8802.44539686 eV
  | Total energy, T -> 0          :        -323.48392258 Ha       -8802.44539686 eV  <-- do not rely on this value for anything but (periodic) metals
  | Electronic free energy        :        -323.48392258 Ha       -8802.44539686 eV

  Derived energy quantities:
  | Kinetic energy                :         322.83246624 Ha        8784.71836790 eV
  | Electrostatic energy          :        -603.64617405 Ha      -16426.04814402 eV
  | Energy correction for multipole
  | error in Hartree potential    :           0.04243759 Ha           1.15478566 eV
  | Sum of eigenvalues per atom                           :        -377.52610513 eV
  | Total energy (T->0) per atom                          :        -677.11118437 eV  <-- do not rely on this value for anything but (periodic) metals
  | Electronic free energy per atom                       :        -677.11118437 eV

  Self-consistency convergence accuracy:
  | Change of charge density      :  0.6512E-01
  | Change of sum of eigenvalues  :  0.4103E+01 eV
  | Change of total energy        :  0.2433E-01 eV

  End self-consistency iteration #     4       :  max(cpu_time)    wall_clock(cpu1)
  | Time for this iteration                    :        1.179 s           1.181 s
  | Charge density update                      :        0.380 s           0.380 s
  | Density mixing                             :        0.009 s           0.010 s
  | Hartree multipole update                   :        0.009 s           0.008 s
  | Hartree multipole summation                :        0.281 s           0.281 s
  | Integration                                :        0.498 s           0.499 s
  | Solution of K.-S. eqns.                    :        0.002 s           0.002 s
  | Total energy evaluation                    :        0.000 s           0.001 s

  Partial memory accounting:
  | Current value for overall tracked memory usage on task 0  :           0.166 MB
  | Peak value for overall tracked memory usage on task 0     :           0.687 MB after allocating gradient_basis_wave
  | Largest tracked array allocation on task 0 so far         :           0.391 MB  when allocating gradient_basis_wave
  Note:  These values currently only include a subset of arrays which are explicitly tracked.
  The "true" memory usage will be greater.
------------------------------------------------------------

------------------------------------------------------------
          Begin self-consistency iteration #    5

  Date     :  20200805, Time     :  182951.112
------------------------------------------------------------
  Evaluating new KS density.
  Integration grid: deviation in total charge (<rho> - N_e) =   5.684342E-14
  Pulay mixing of updated and previous charge densities.

  Evaluating partitioned Hartree potential by multipole expansion.
  | Analytical far-field extrapolation by fixed multipoles:
  | Hartree multipole sum: apparent total charge =  -0.421340E-03
  Summing up the Hartree potential.
  Time summed over all CPUs for potential: real work        0.280 s, elapsed        0.280 s
  | RMS charge density error from multipole expansion :   0.251411E-01

  Integrating Hamiltonian matrix: batch-based integration.
  Time summed over all CPUs for integration: real work        0.499 s, elapsed        0.499 s

  Updating Kohn-Sham eigenvalues and eigenvectors using ELSI and the ELPA eigensolver.
  Finished Cholesky decomposition
  | Time :     0.000 s
  Finished transformation to standard eigenproblem
  | Time :     0.000 s
  Starting LAPACK eigensolver
  Finished solving standard eigenproblem
  | Time :     0.001 s
  Finished back-transformation of eigenvectors
  | Time :     0.000 s

  Obtaining occupation numbers and chemical potential using ELSI.
  | Chemical potential (Fermi level):    -2.72910336eV
  Highest occupied state (VBM) at     -5.56321545 eV
  | Occupation number:      2.00000000

  Lowest unoccupied state (CBM) at    -1.63520808 eV
  | Occupation number:      0.00000000

  Overall HOMO-LUMO gap:      3.92800737 eV.

  Total energy components:
  | Sum of eigenvalues            :        -180.56475448 Ha       -4913.41696139 eV
  | XC energy correction          :         -42.64503963 Ha       -1160.43057034 eV
  | XC potential correction       :          54.82716328 Ha        1491.92302117 eV
  | Free-atom electrostatic energy:        -146.85161996 Ha       -3996.03589521 eV
  | Hartree energy correction     :          -8.24937611 Ha        -224.47694530 eV
  | vdW energy correction         :           0.00000000 Ha           0.00000000 eV
  | Entropy correction            :           0.00000000 Ha           0.00000000 eV
  | ---------------------------
  | Total energy                  :        -323.48362690 Ha       -8802.43735106 eV
  | Total energy, T -> 0          :        -323.48362690 Ha       -8802.43735106 eV  <-- do not rely on this value for anything but (periodic) metals
  | Electronic free energy        :        -323.48362690 Ha       -8802.43735106 eV

  Derived energy quantities:
  | Kinetic energy                :         322.71008460 Ha        8781.38819415 eV
  | Electrostatic energy          :        -603.54867188 Ha      -16423.39497487 eV
  | Energy correction for multipole
  | error in Hartree potential    :           0.04178281 Ha           1.13696817 eV
  | Sum of eigenvalues per atom                           :        -377.95515088 eV
  | Total energy (T->0) per atom                          :        -677.11056547 eV  <-- do not rely on this value for anything but (periodic) metals
  | Electronic free energy per atom                       :        -677.11056547 eV

  Self-consistency convergence accuracy:
  | Change of charge density      :  0.2061E-01
  | Change of sum of eigenvalues  : -0.5578E+01 eV
  | Change of total energy        :  0.8046E-02 eV

  End self-consistency iteration #     5       :  max(cpu_time)    wall_clock(cpu1)
  | Time for this iteration                    :        1.180 s           1.181 s
  | Charge density update                      :        0.380 s           0.380 s
  | Density mixing                             :        0.011 s           0.011 s
  | Hartree multipole update                   :        0.009 s           0.009 s
  | Hartree multipole summation                :        0.280 s           0.280 s
  | Integration                                :        0.499 s           0.499 s
  | Solution of K.-S. eqns.                    :        0.002 s           0.002 s
  | Total energy evaluation                    :        0.000 s           0.000 s

  Partial memory accounting:
  | Current value for overall tracked memory usage on task 0  :           0.166 MB
  | Peak value for overall tracked memory usage on task 0     :           0.687 MB after allocating gradient_basis_wave
  | Largest tracked array allocation on task 0 so far         :           0.391 MB  when allocating gradient_basis_wave
  Note:  These values currently only include a subset of arrays which are explicitly tracked.
  The "true" memory usage will be greater.
------------------------------------------------------------

------------------------------------------------------------
          Begin self-consistency iteration #    6

  Date     :  20200805, Time     :  182952.294
------------------------------------------------------------
  Evaluating new KS density.
  Integration grid: deviation in total charge (<rho> - N_e) =   1.421085E-14
  Pulay mixing of updated and previous charge densities.

  Evaluating partitioned Hartree potential by multipole expansion.
  | Analytical far-field extrapolation by fixed multipoles:
  | Hartree multipole sum: apparent total charge =  -0.425456E-03
  Summing up the Hartree potential.
  Time summed over all CPUs for potential: real work        0.280 s, elapsed        0.280 s
  | RMS charge density error from multipole expansion :   0.256067E-01

  Integrating Hamiltonian matrix: batch-based integration.
  Time summed over all CPUs for integration: real work        0.498 s, elapsed        0.498 s

  Updating Kohn-Sham eigenvalues and eigenvectors using ELSI and the ELPA eigensolver.
  Finished Cholesky decomposition
  | Time :     0.000 s
  Finished transformation to standard eigenproblem
  | Time :     0.000 s
  Starting LAPACK eigensolver
  Finished solving standard eigenproblem
  | Time :     0.002 s
  Finished back-transformation of eigenvectors
  | Time :     0.000 s

  Obtaining occupation numbers and chemical potential using ELSI.
  | Chemical potential (Fermi level):    -2.72483113eV
  Highest occupied state (VBM) at     -5.52414355 eV
  | Occupation number:      2.00000000

  Lowest unoccupied state (CBM) at    -1.64378608 eV
  | Occupation number:      0.00000000

  Overall HOMO-LUMO gap:      3.88035748 eV.

  Total energy components:
  | Sum of eigenvalues            :        -180.55407749 Ha       -4913.12642575 eV
  | XC energy correction          :         -42.64541913 Ha       -1160.44089708 eV
  | XC potential correction       :          54.82763481 Ha        1491.93585197 eV
  | Free-atom electrostatic energy:        -146.85161996 Ha       -3996.03589521 eV
  | Hartree energy correction     :          -8.26010213 Ha        -224.76881493 eV
  | vdW energy correction         :           0.00000000 Ha           0.00000000 eV
  | Entropy correction            :           0.00000000 Ha           0.00000000 eV
  | ---------------------------
  | Total energy                  :        -323.48358390 Ha       -8802.43618101 eV
  | Total energy, T -> 0          :        -323.48358390 Ha       -8802.43618101 eV  <-- do not rely on this value for anything but (periodic) metals
  | Electronic free energy        :        -323.48358390 Ha       -8802.43618101 eV

  Derived energy quantities:
  | Kinetic energy                :         322.63211087 Ha        8779.26642086 eV
  | Electrostatic energy          :        -603.47027564 Ha      -16421.26170479 eV
  | Energy correction for multipole
  | error in Hartree potential    :           0.04220029 Ha           1.14832843 eV
  | Sum of eigenvalues per atom                           :        -377.93280198 eV
  | Total energy (T->0) per atom                          :        -677.11047546 eV  <-- do not rely on this value for anything but (periodic) metals
  | Electronic free energy per atom                       :        -677.11047546 eV

  Self-consistency convergence accuracy:
  | Change of charge density      :  0.1075E-01
  | Change of sum of eigenvalues  :  0.2905E+00 eV
  | Change of total energy        :  0.1170E-02 eV

  End self-consistency iteration #     6       :  max(cpu_time)    wall_clock(cpu1)
  | Time for this iteration                    :        1.181 s           1.182 s
  | Charge density update                      :        0.380 s           0.380 s
  | Density mixing                             :        0.012 s           0.012 s
  | Hartree multipole update                   :        0.009 s           0.008 s
  | Hartree multipole summation                :        0.280 s           0.281 s
  | Integration                                :        0.498 s           0.498 s
  | Solution of K.-S. eqns.                    :        0.002 s           0.003 s
  | Total energy evaluation                    :        0.000 s           0.000 s

  Partial memory accounting:
  | Current value for overall tracked memory usage on task 0  :           0.166 MB
  | Peak value for overall tracked memory usage on task 0     :           0.687 MB after allocating gradient_basis_wave
  | Largest tracked array allocation on task 0 so far         :           0.391 MB  when allocating gradient_basis_wave
  Note:  These values currently only include a subset of arrays which are explicitly tracked.
  The "true" memory usage will be greater.
------------------------------------------------------------

------------------------------------------------------------
          Begin self-consistency iteration #    7

  Date     :  20200805, Time     :  182953.476
------------------------------------------------------------
  Evaluating new KS density.
  Integration grid: deviation in total charge (<rho> - N_e) =   3.552714E-14
  Pulay mixing of updated and previous charge densities.

  Evaluating partitioned Hartree potential by multipole expansion.
  | Analytical far-field extrapolation by fixed multipoles:
  | Hartree multipole sum: apparent total charge =  -0.426404E-03
  Summing up the Hartree potential.
  Time summed over all CPUs for potential: real work        0.280 s, elapsed        0.280 s
  | RMS charge density error from multipole expansion :   0.257221E-01

  Integrating Hamiltonian matrix: batch-based integration.
  Time summed over all CPUs for integration: real work        0.498 s, elapsed        0.498 s

  Updating Kohn-Sham eigenvalues and eigenvectors using ELSI and the ELPA eigensolver.
  Finished Cholesky decomposition
  | Time :     0.000 s
  Finished transformation to standard eigenproblem
  | Time :     0.000 s
  Starting LAPACK eigensolver
  Finished solving standard eigenproblem
  | Time :     0.001 s
  Finished back-transformation of eigenvectors
  | Time :     0.000 s

[...]
  |   Hirshfeld dipole moment :      0.06000371
  |   Hirshfeld second moments:      0.00704175      -0.02884092      -0.01951598
  |                                 -0.02884092      -0.01245224       0.01299432
  |                                 -0.01951598       0.01299432      -0.01467034
  ----------------------------------------------------------------------
  | Atom    12: O
  |   Hirshfeld charge        :     -0.14477255
  |   Free atom volume        :     23.61338643
  |   Hirshfeld volume        :     20.51289966
  |   Hirshfeld dipole vector :      0.02829866       0.01326902       0.01038867
  |   Hirshfeld dipole moment :      0.03293638
  |   Hirshfeld second moments:      0.05660433      -0.02535985      -0.00457042
  |                                 -0.02535985       0.10551935       0.01190760
  |                                 -0.00457042       0.01190760       0.04351097
  ----------------------------------------------------------------------
  | Atom    13: H
  |   Hirshfeld charge        :      0.18772415
  |   Free atom volume        :      9.95071624
  |   Hirshfeld volume        :      6.02773536
  |   Hirshfeld dipole vector :      0.07276358      -0.10321445      -0.01421131
  |   Hirshfeld dipole moment :      0.12708156
  |   Hirshfeld second moments:      0.12033851       0.00080937      -0.00549286
  |                                  0.00080937       0.12830841       0.00211470
  |                                 -0.00549286       0.00211470       0.10508286
  ----------------------------------------------------------------------


  Total energy components:
  | Sum of eigenvalues            :        -180.55008616 Ha       -4913.01781602 eV
  | XC energy correction          :         -42.64247589 Ha       -1160.36080760 eV
  | XC potential correction       :          54.82391372 Ha        1491.83459612 eV
  | Free-atom electrostatic energy:        -146.85161996 Ha       -3996.03589521 eV
  | Hartree energy correction     :          -8.26329308 Ha        -224.85564510 eV
  | vdW energy correction         :          -0.00332186 Ha          -0.09039239 eV
  | Entropy correction            :           0.00000000 Ha           0.00000000 eV
  | ---------------------------
  | Total energy                  :        -323.48688323 Ha       -8802.52596021 eV
  | Total energy, T -> 0          :        -323.48688323 Ha       -8802.52596021 eV  <-- do not rely on this value for anything but (periodic) metals
  | Electronic free energy        :        -323.48688323 Ha       -8802.52596021 eV

  Derived energy quantities:
  | Kinetic energy                :         322.59447907 Ha        8778.24240764 eV
  | Electrostatic energy          :        -603.43556455 Ha      -16420.31716785 eV
  | Energy correction for multipole
  | error in Hartree potential    :           0.04223443 Ha           1.14925718 eV
  | Sum of eigenvalues per atom                           :        -377.92444739 eV
  | Total energy (T->0) per atom                          :        -677.11738155 eV  <-- do not rely on this value for anything but (periodic) metals
  | Electronic free energy per atom                       :        -677.11738155 eV

  atomic forces [eV/Ang]:
  -----------------------
  atom #    1
   Hellmann-Feynman              : -0.107455E+00  0.362772E+00  0.800878E+00
   Ionic forces                  :  0.000000E+00  0.000000E+00  0.000000E+00
   Multipole                     :  0.209189E+00  0.135755E+00 -0.222647E+00
   Pulay + GGA                   : -0.899285E+00 -0.292406E+00 -0.112956E+01
   Van der Waals                 :  0.267903E-02  0.686959E-02 -0.164093E-02
   ----------------------------------------------------------------
   Total forces(   1)            : -0.794872E+00  0.212991E+00 -0.552969E+00
  atom #    2
   Hellmann-Feynman              :  0.270968E+00 -0.396908E-01  0.118108E+00
   Ionic forces                  :  0.000000E+00  0.000000E+00  0.000000E+00
   Multipole                     :  0.179993E+00  0.144808E-01  0.566755E-02
   Pulay + GGA                   : -0.126187E+00  0.244345E-01  0.393165E-01
   Van der Waals                 :  0.522472E-02 -0.544173E-02 -0.545864E-02
   ----------------------------------------------------------------
   Total forces(   2)            :  0.329998E+00 -0.621722E-02  0.157633E+00
  atom #    3
   Hellmann-Feynman              : -0.589387E+01  0.941358E+01 -0.861304E+00
   Ionic forces                  :  0.000000E+00  0.000000E+00  0.000000E+00
   Multipole                     : -0.188504E+00  0.248092E+00 -0.106929E+01
   Pulay + GGA                   :  0.643508E+01 -0.925180E+01  0.243800E+01
   Van der Waals                 :  0.348111E-02 -0.883181E-02 -0.636326E-02
   ----------------------------------------------------------------
   Total forces(   3)            :  0.356184E+00  0.401044E+00  0.501051E+00
  atom #    4
   Hellmann-Feynman              : -0.694562E-01 -0.268264E+00 -0.145599E+00
   Ionic forces                  :  0.000000E+00  0.000000E+00  0.000000E+00
   Multipole                     :  0.344510E-01 -0.113643E-01 -0.104949E+00
   Pulay + GGA                   : -0.181103E+00  0.922858E-01  0.112814E+00
   Van der Waals                 : -0.386727E-02 -0.160803E-03  0.620222E-02
   ----------------------------------------------------------------
   Total forces(   4)            : -0.219976E+00 -0.187503E+00 -0.131532E+00
  atom #    5
   Hellmann-Feynman              :  0.642518E-01 -0.237454E+00 -0.243207E+00
   Ionic forces                  :  0.000000E+00  0.000000E+00  0.000000E+00
   Multipole                     : -0.492784E-01 -0.700485E-01 -0.736989E-01
   Pulay + GGA                   :  0.725724E-01  0.211573E+00  0.615777E-01
   Van der Waals                 : -0.107980E-02  0.376216E-02  0.124093E-02
   ----------------------------------------------------------------
   Total forces(   5)            :  0.864661E-01 -0.921669E-01 -0.254087E+00
  atom #    6
   Hellmann-Feynman              :  0.522587E-01 -0.429543E+00  0.564229E+00
   Ionic forces                  :  0.000000E+00  0.000000E+00  0.000000E+00
   Multipole                     : -0.847830E-01  0.622550E+00  0.235863E+00
   Pulay + GGA                   :  0.210169E+00 -0.482361E+00 -0.581101E+00
   Van der Waals                 : -0.227124E-02  0.582639E-02 -0.436295E-02
   ----------------------------------------------------------------
   Total forces(   6)            :  0.175373E+00 -0.283528E+00  0.214629E+00
  atom #    7
   Hellmann-Feynman              : -0.198432E+00 -0.538231E-01 -0.614489E-01
   Ionic forces                  :  0.000000E+00  0.000000E+00  0.000000E+00
   Multipole                     : -0.119861E+00  0.496132E-01  0.227559E-01
   Pulay + GGA                   :  0.122409E+00  0.962927E-02 -0.199698E-01
   Van der Waals                 : -0.138160E-02  0.985369E-03  0.261712E-02
   ----------------------------------------------------------------
   Total forces(   7)            : -0.197266E+00  0.640475E-02 -0.560457E-01
  atom #    8
   Hellmann-Feynman              :  0.755713E-01 -0.335747E-01  0.187737E+00
   Ionic forces                  :  0.000000E+00  0.000000E+00  0.000000E+00
   Multipole                     :  0.159734E-01  0.606910E-01  0.121476E+00
   Pulay + GGA                   : -0.409862E-01 -0.326876E-01 -0.819755E-01
   Van der Waals                 : -0.256280E-02  0.115401E-01  0.167090E-02
   ----------------------------------------------------------------
   Total forces(   8)            :  0.479957E-01  0.596880E-02  0.228908E+00
  atom #    9
   Hellmann-Feynman              :  0.939656E-01  0.160402E-01 -0.179220E+00
   Ionic forces                  :  0.000000E+00  0.000000E+00  0.000000E+00
   Multipole                     :  0.143682E-01  0.126977E+00 -0.141179E-01
   Pulay + GGA                   : -0.619436E-01 -0.965268E-01  0.290270E-01
   Van der Waals                 : -0.190357E-02  0.228069E-02  0.303802E-02
   ----------------------------------------------------------------
   Total forces(   9)            :  0.444866E-01  0.487707E-01 -0.161273E+00
  atom #   10
   Hellmann-Feynman              :  0.341466E+01  0.577453E+01  0.181860E+01
   Ionic forces                  :  0.000000E+00  0.000000E+00  0.000000E+00
   Multipole                     :  0.209312E-01 -0.408437E-01  0.226612E+00
   Pulay + GGA                   : -0.224304E+01 -0.286770E+01 -0.175225E+00
   Van der Waals                 :  0.313543E-02 -0.129009E-01  0.105428E-02
   ----------------------------------------------------------------
   Total forces(  10)            :  0.119568E+01  0.285309E+01  0.187105E+01
  atom #   11
   Hellmann-Feynman              :  0.407387E+01 -0.215293E+01  0.139750E+02
   Ionic forces                  :  0.000000E+00  0.000000E+00  0.000000E+00
   Multipole                     :  0.116638E+00 -0.708764E+00  0.744706E+00
   Pulay + GGA                   : -0.313675E+01  0.333765E+01 -0.135779E+02
   Van der Waals                 : -0.360988E-02 -0.113580E-01  0.156403E-02
   ----------------------------------------------------------------
   Total forces(  11)            :  0.105015E+01  0.464596E+00  0.114342E+01
  atom #   12
   Hellmann-Feynman              : -0.127190E+02  0.693502E+00 -0.100754E+02
   Ionic forces                  :  0.000000E+00  0.000000E+00  0.000000E+00
   Multipole                     : -0.102665E+01 -0.108246E+01 -0.394574E+00
   Pulay + GGA                   :  0.124471E+02 -0.194050E+01  0.748133E+01
   Van der Waals                 :  0.201600E-02  0.737712E-02  0.278413E-02
   ----------------------------------------------------------------
   Total forces(  12)            : -0.129650E+01 -0.232208E+01 -0.298582E+01
  atom #   13
   Hellmann-Feynman              : -0.570657E+00 -0.134132E+01  0.560886E-01
   Ionic forces                  :  0.000000E+00  0.000000E+00  0.000000E+00
   Multipole                     :  0.486193E-01 -0.645069E-01 -0.333525E-01
   Pulay + GGA                   : -0.254655E+00  0.298163E+00  0.162941E-02
   Van der Waals                 :  0.139857E-03  0.517501E-04 -0.234586E-02
   ----------------------------------------------------------------
   Total forces(  13)            : -0.776552E+00 -0.110761E+01  0.220197E-01

  Timings for VdW correction (Tkatchenko-Scheffler 2009 or later):
  | CPU time:        0.088 s, Wall clock time:        0.088 s.
  Removing unitary transformations (pure translations, rotations) from forces on atoms.
  Atomic forces before filtering:
  | Net force on center of mass :   0.117238E-02 -0.623865E-02 -0.302373E-02 eV/A
  | Net torque on center of mass:  -0.709534E-02  0.419723E-02 -0.236388E-02 eV
  Atomic forces after filtering:
  | Net force on center of mass :   0.356812E-15 -0.178406E-15  0.947783E-15 eV/A
  | Net torque on center of mass:   0.654959E-15 -0.737566E-18  0.377634E-15 eV

  Energy and forces in a compact form:
  | Total energy uncorrected      :         -0.880252596020901E+04 eV
  | Total energy corrected        :         -0.880252596020901E+04 eV  <-- do not rely on this value for anything but (periodic) metals
  | Electronic free energy        :         -0.880252596020901E+04 eV
  Total atomic forces (unitary forces cleaned) [eV/Ang]:
  |   1         -0.794958042546228E+00          0.213508609163718E+00         -0.552641285666841E+00
  |   2          0.329912134101449E+00         -0.563201616237945E-02          0.158151953751102E+00
  |   3          0.356344598113073E+00          0.401754800841534E+00          0.501295340125640E+00
  |   4         -0.219703524648047E+00         -0.186644102134675E+00         -0.131154579726682E+00
  |   5          0.867011547102341E-01         -0.914715371640883E-01         -0.254076099282241E+00
  |   6          0.175081310893781E+00         -0.283156113857569E+00          0.215069089986827E+00
  |   7         -0.197561938912367E+00          0.670601223612313E-02         -0.557915748797182E-01
  |   8          0.475231143761230E-01          0.619996455488550E-02          0.229413880940887E+00
  |   9          0.442272401714165E-01          0.492444467318413E-01         -0.160627334818622E+00
  |  10          0.119554420292951E+01          0.285346283377659E+01          0.187110186931328E+01
  |  11          0.104983663697507E+01          0.464810104688623E+00          0.114348075347837E+01
  |  12         -0.129646653691792E+01         -0.232164204753024E+01         -0.298602411498350E+01
  |  13         -0.776480349246107E+00         -0.110714095514436E+01          0.218021017614988E-01

  ------------------------------------ 
  Start decomposition of the XC Energy 
  ------------------------------------ 
  X and C from original XC functional choice 
  Hartree-Fock Energy :          0.000000000 Ha              0.000000000 eV
  X Energy            :        -41.041476135 Ha          -1116.795387566 eV
  C Energy            :         -1.600999759 Ha            -43.565420033 eV
  Total XC Energy     :        -42.642475895 Ha          -1160.360807599 eV
  ------------------------------------ 
  LDA X and C from self-consistent density 
  X Energy LDA        :        -37.260827146 Ha          -1013.918694247 eV
  C Energy LDA        :         -3.138853045 Ha            -85.412537094 eV
  ------------------------------------ 
  End decomposition of the XC Energy 
  ------------------------------------ 

------------------------------------------------------------

------------------------------------------------------------------------------
  Final output of selected total energy values:

  The following output summarizes some interesting total energy values
  at the end of a run (AFTER all relaxation, molecular dynamics, etc.).

  | Total energy of the DFT / Hartree-Fock s.c.f. calculation      :          -8802.525960209 eV
  | Final zero-broadening corrected energy (caution - metals only) :          -8802.525960209 eV
  | For reference only, the value of 1 Hartree used in FHI-aims is :             27.211384500 eV

  Before relying on these values, please be sure to understand exactly which
  total energy value is referred to by a given number. Different objects may
  all carry the same name 'total energy'. Definitions:

  Total energy of the DFT / Hartree-Fock s.c.f. calculation:
  | Note that this energy does not include ANY quantities calculated after the
  | s.c.f. cycle, in particular not ANY RPA, MP2, etc. many-body perturbation terms.

  Final zero-broadening corrected energy:
  | For metallic systems only, a broadening of the occupation numbers at the Fermi
  | level can be extrapolated back to zero broadening by an electron-gas inspired
  | formula. For all systems that are not real metals, this value can be
  | meaningless and should be avoided.

------------------------------------------------------------------------------
  Methods described in the following list of references were used in this FHI-aims run.
  If you publish the results, please make sure to cite these reference if they apply.
  FHI-aims is an academic code, and for our developers (often, Ph.D. students
  and postdocs), scientific credit in the community is essential.
  Thank you for helping us!

  For any use of FHI-aims, please cite:

    Volker Blum, Ralf Gehrke, Felix Hanke, Paula Havu, Ville Havu,
    Xinguo Ren, Karsten Reuter, and Matthias Scheffler
    'Ab initio molecular simulations with numeric atom-centered orbitals'
    Computer Physics Communications 180, 2175-2196 (2009)
    http://dx.doi.org/10.1016/j.cpc.2009.06.022


  The scalable eigensolver library ELPA was used in your run.
  ELPA is essential especially for large systems on hundreds or thousands of CPUs.
  For ELPA, please cite:

    Andreas Marek, Volker Blum, Rainer Johanni, Ville Havu, Bruno Lang,
    Thomas Auckenthaler, Alexander Heinecke, Hans-Joachim Bungartz, and Hermann Lederer,
    'The ELPA Library - Scalable Parallel Eigenvalue Solutions
    for Electronic Structure Theory and Computational Science'
    The Journal of Physics: Condensed Matter 26, 213201 (2014).
    http://dx.doi.org/10.1088/0953-8984/26/21/213201


  The ELSI infrastructure was used in your run to solve the Kohn-Sham electronic structure.
  Please check out http://elsi-interchange.org to learn more.
  If scalability is important for your project, please acknowledge ELSI by citing:

    V. W-z. Yu, F. Corsetti, A. Garcia, W. P. Huhn, M. Jacquelin, W. Jia,
    B. Lange, L. Lin, J. Lu, W. Mi, A. Seifitokaldani, A. Vazquez-Mayagoitia,
    C. Yang, H. Yang, and V. Blum
    'ELSI: A unified software interface for Kohn-Sham electronic structure solvers'
    Computer Physics Communications 222, 267-285 (2018).
    http://dx.doi.org/10.1016/j.cpc.2017.09.007


  For the real-space grid partitioning and parallelization used in this calculation, please cite:

    Ville Havu, Volker Blum, Paula Havu, and Matthias Scheffler,
    'Efficient O(N) integration for all-electron electronic structure calculation'
    'using numerically tabulated basis functions'
    Journal of Computational Physics 228, 8367-8379 (2009).
    http://dx.doi.org/10.1016/j.jcp.2009.08.008

  Of course, there are many other important community references, e.g., those cited in the
  above references. Our list is limited to references that describe implementations in the
  FHI-aims code. The reason is purely practical (length of this list) - please credit others as well.

------------------------------------------------------------
          Leaving FHI-aims.
          Date     :  20200805, Time     :  183007.688

          Computational steps:
          | Number of self-consistency cycles          :           16
          | Number of SCF (re)initializations          :            1

          Detailed time accounting                     :  max(cpu_time)    wall_clock(cpu1)
          | Total time                                 :       22.577 s          22.616 s
          | Preparation time                           :        0.144 s           0.145 s
          | Boundary condition initalization           :        0.000 s           0.000 s
          | Grid partitioning                          :        0.109 s           0.109 s
          | Preloading free-atom quantities on grid    :        0.002 s           0.003 s
          | Free-atom superposition energy             :        0.084 s           0.084 s
          | Total time for integrations                :        8.673 s           8.682 s
          | Total time for solution of K.-S. equations :        0.036 s           0.038 s
          | Total time for density & force components  :        7.036 s           7.048 s
          | Total time for mixing                      :        0.211 s           0.215 s
          | Total time for Hartree multipole update    :        0.139 s           0.141 s
          | Total time for Hartree multipole sum       :        5.747 s           5.748 s
          | Total time for total energy evaluation     :        0.003 s           0.003 s
          | Total time for vdW correction              :        0.088 s           0.088 s

          Partial memory accounting:
          | Residual value for overall tracked memory usage across tasks :           0.000 MB (should be 0.000 MB)
          | Peak values for overall tracked memory usage (after allocating hessian_basis_wave):
          |   Minimum:        1.601 MB (on task 1)
          |   Maximum:        1.601 MB (on task 1)
          |   Average:        1.601 MB
          | Largest tracked array allocation (hessian_basis_wave):
          |   Minimum:        0.782 MB (on task 1)
          |   Maximum:        0.782 MB (on task 1)
          |   Average:        0.782 MB
          Note:  These values currently only include a subset of arrays which are explicitly tracked.
          The "true" memory usage will be greater.

          Have a nice day.
------------------------------------------------------------
