  MPI-parallelism will be employed.
------------------------------------------------------------
          Invoking FHI-aims ...
          Version 171221_1
          Compiled on 2019/09/09 at 14:39:39 on host puhti-login2.bullx.

          When using FHI-aims, please cite the following reference:

          Volker Blum, Ralf Gehrke, Felix Hanke, Paula Havu,
          Ville Havu, Xinguo Ren, Karsten Reuter, and Matthias Scheffler,
          'Ab Initio Molecular Simulations with Numeric Atom-Centered Orbitals',
          Computer Physics Communications 180, 2175-2196 (2009)

          For any questions about FHI-aims, please visit the aimsclub website
          with its forums and wiki. Contributions to both the forums and the
          wiki are warmly encouraged - they are for you, and everyone is welcome there.

------------------------------------------------------------



  Date     :  20200616, Time     :  050956.174
  Time zero on CPU 1             :   0.375790000000000E-01  s.
  Internal wall clock time zero  :           361516196.174  s.

  FHI-aims created a unique identifier for this run for later identification
  aims_uuid : C0AFD7BD-FC46-4CBE-A27E-94D32330BDE3

  Using       20 parallel tasks.
  Task        0 on host r14c43.bullx reporting.
  Task        1 on host r14c43.bullx reporting.
  Task        2 on host r14c43.bullx reporting.
  Task        3 on host r14c43.bullx reporting.
  Task        4 on host r14c43.bullx reporting.
  Task        5 on host r14c43.bullx reporting.
  Task        6 on host r14c43.bullx reporting.
  Task        7 on host r14c43.bullx reporting.
  Task        8 on host r14c43.bullx reporting.
  Task        9 on host r14c43.bullx reporting.
  Task       10 on host r14c43.bullx reporting.
  Task       11 on host r14c43.bullx reporting.
  Task       12 on host r14c43.bullx reporting.
  Task       13 on host r14c43.bullx reporting.
  Task       14 on host r14c43.bullx reporting.
  Task       15 on host r14c43.bullx reporting.
  Task       16 on host r14c43.bullx reporting.
  Task       17 on host r14c43.bullx reporting.
  Task       18 on host r14c43.bullx reporting.
  Task       19 on host r14c43.bullx reporting.

  Performing system and environment tests:
  | Environment variable OMP_NUM_THREADS correctly set to 1.
  | Stacksize not measured: no C compiler
  | Checking for scalapack...
  | Testing pdtran()...
  | All pdtran() tests passed.

  Obtaining array dimensions for all initial allocations:
  
  -----------------------------------------------------------------------
  Parsing control.in (first pass over file, find array dimensions only).
  The contents of control.in will be repeated verbatim below
  unless switched off by setting 'verbatim_writeout .false.' .
  in the first line of control.in .
  -----------------------------------------------------------------------
  
  #########################################################################################
  #
  #  Volker Blum, FHI 2009 : Test run input file control.in for simple H2O
  #
  #########################################################################################
  #
  #  Physical model
  #
    xc                 pbe
    vdw_correction_hirshfeld
    spin               none
    relativistic       none
    charge             0.
  #
  #  SCF convergence
  #
    occupation_type    gaussian 0.01
    mixer              pulay
      n_max_pulay        10
      charge_mix_param   0.2
    sc_accuracy_rho    1E-5
    sc_accuracy_eev    1E-3
    sc_accuracy_etot   1E-6
    sc_accuracy_forces 1E-4
    sc_iter_limit      100
  #
  #  Relaxation
  #
  #  relax_geometry   bfgs 1.e-3
  #
  ################################################################################
  #
  #  FHI-aims code project
  #  VB, Fritz-Haber Institut, 2009
  #
  #  Suggested "light" defaults for H atom (to be pasted into control.in file)
  #  Be sure to double-check any results obtained with these settings for post-processing,
  #  e.g., with the "tight" defaults and larger basis sets.
  #
  ################################################################################
    species        H
  #     global species definitions
      nucleus             1
      mass                1.00794
  #
      l_hartree           4
  #
      cut_pot             3.5  1.5  1.0
      basis_dep_cutoff    1e-4
  #
      radial_base         24 5.0
      radial_multiplier   1
      angular_grids       specified
        division   0.2421   50
        division   0.3822  110
        division   0.4799  194
        division   0.5341  302
  #      division   0.5626  434
  #      division   0.5922  590
  #      division   0.6542  770
  #      division   0.6868 1202
  #      outer_grid  770
        outer_grid  302
  ################################################################################
  #
  #  Definition of "minimal" basis
  #
  ################################################################################
  #     valence basis states
      valence      1  s   1.
  #     ion occupancy
      ion_occ      1  s   0.5
  ################################################################################
  #
  #  Suggested additional basis functions. For production calculations,
  #  uncomment them one after another (the most important basis functions are
  #  listed first).
  #
  #  Basis constructed for dimers: 0.5 A, 0.7 A, 1.0 A, 1.5 A, 2.5 A
  #
  ################################################################################
  #  "First tier" - improvements: -1014.90 meV to -62.69 meV
       hydro 2 s 2.1
       hydro 2 p 3.5
  #  "Second tier" - improvements: -12.89 meV to -1.83 meV
  #     hydro 1 s 0.85
  #     hydro 2 p 3.7
  #     hydro 2 s 1.2
  #     hydro 3 d 7
  #  "Third tier" - improvements: -0.25 meV to -0.12 meV
  #     hydro 4 f 11.2
  #     hydro 3 p 4.8
  #     hydro 4 d 9
  #     hydro 3 s 3.2
  ################################################################################
  #
  #  FHI-aims code project
  #  VB, Fritz-Haber Institut, 2009
  #
  #  Suggested "light" defaults for C atom (to be pasted into control.in file)
  #  Be sure to double-check any results obtained with these settings for post-processing,
  #  e.g., with the "tight" defaults and larger basis sets.
  #
  ################################################################################
    species        C
  #     global species definitions
      nucleus             6
      mass                12.0107
  #
      l_hartree           4
  #
      cut_pot             3.5  1.5  1.0
      basis_dep_cutoff    1e-4
  #
      radial_base         34 5.0
      radial_multiplier   1
      angular_grids specified
        division   0.3326   50
        division   0.5710  110
        division   0.7727  194
        division   0.8772  302
  #      division   0.9334  434
  #      division   0.9625  590
  #      division   0.9924  770
  #      division   1.0230  974
  #      division   1.4589 1202
  #     outer_grid  974
       outer_grid 302
  ################################################################################
  #
  #  Definition of "minimal" basis
  #
  ################################################################################
  #     valence basis states
      valence      2  s   2.
      valence      2  p   2.
  #     ion occupancy
      ion_occ      2  s   1.
      ion_occ      2  p   1.
  ################################################################################
  #
  #  Suggested additional basis functions. For production calculations,
  #  uncomment them one after another (the most important basis functions are
  #  listed first).
  #
  #  Constructed for dimers: 1.0 A, 1.25 A, 1.5 A, 2.0 A, 3.0 A
  #
  ################################################################################
  #  "First tier" - improvements: -1214.57 meV to -155.61 meV
       hydro 2 p 1.7
       hydro 3 d 6
       hydro 2 s 4.9
  #  "Second tier" - improvements: -67.75 meV to -5.23 meV
  #     hydro 4 f 9.8
  #     hydro 3 p 5.2
  #     hydro 3 s 4.3
  #     hydro 5 g 14.4
  #     hydro 3 d 6.2
  #  "Third tier" - improvements: -2.43 meV to -0.60 meV
  #     hydro 2 p 5.6
  #     hydro 2 s 1.4
  #     hydro 3 d 4.9
  #     hydro 4 f 11.2
  #  "Fourth tier" - improvements: -0.39 meV to -0.18 meV
  #     hydro 2 p 2.1
  #     hydro 5 g 16.4
  #     hydro 4 d 13.2
  #     hydro 3 s 13.6
  #     hydro 4 f 17.6
  #  Further basis functions - improvements: -0.08 meV and below
  #     hydro 3 s 2
  #     hydro 3 p 6
  #     hydro 4 d 20
  ################################################################################
  #
  #  FHI-aims code project
  #  VB, Fritz-Haber Institut, 2009
  #
  #  Suggested "light" defaults for N atom (to be pasted into control.in file)
  #  Be sure to double-check any results obtained with these settings for post-processing,
  #  e.g., with the "tight" defaults and larger basis sets.
  #
  ################################################################################
    species        N
  #     global species definitions
      nucleus             7
      mass                14.0067
  #
      l_hartree           4
  #
      cut_pot             3.5  1.5  1.0
      basis_dep_cutoff    1e-4
  #
      radial_base         35 5.0
      radial_multiplier   1
      angular_grids       specified
        division   0.2599   50
        division   0.4601  110
        division   0.5885  194
        division   0.6503  302
  #      division   0.6939  434
  #      division   0.7396  590
  #      division   0.7632  770
  #      division   0.8122  974
  #      division   1.1604 1202
  #      outer_grid  974
        outer_grid  302
  ################################################################################
  #
  #  Definition of "minimal" basis
  #
  ################################################################################
  #     valence basis states
      valence      2  s   2.
      valence      2  p   3.
  #     ion occupancy
      ion_occ      2  s   1.
      ion_occ      2  p   2.
  ################################################################################
  #
  #  Suggested additional basis functions. For production calculations,
  #  uncomment them one after another (the most important basis functions are
  #  listed first).
  #
  #  Constructed for dimers: 1.0 A, 1.1 A, 1.5 A, 2.0 A, 3.0 A
  #
  ################################################################################
  #  "First tier" - improvements: -1193.42 meV to -220.60 meV
       hydro 2 p 1.8
       hydro 3 d 6.8
       hydro 3 s 5.8
  #  "Second tier" - improvements: -80.21 meV to -6.86 meV
  #     hydro 4 f 10.8
  #     hydro 3 p 5.8
  #     hydro 1 s 0.8
  #     hydro 5 g 16
  #     hydro 3 d 4.9
  #  "Third tier" - improvements: -4.29 meV to -0.53 meV
  #     hydro 3 s 16
  #     ionic 2 p auto
  #     hydro 3 d 6.6
  #     hydro 4 f 11.6
  #  "Fourth tier" - improvements: -0.75 meV to -0.25 meV
  #     hydro 2 p 4.5
  #     hydro 2 s 2.4
  #     hydro 5 g 14.4
  #     hydro 4 d 14.4
  #     hydro 4 f 16.8
  # Further basis functions - -0.21 meV and below
  #     hydro 3 p 14.8
  #     hydro 3 s 4.4
  #     hydro 3 d 19.6
  #     hydro 5 g 12.8
  ################################################################################
  #
  #  FHI-aims code project
  #  VB, Fritz-Haber Institut, 2009
  #
  #  Suggested "light" defaults for O atom (to be pasted into control.in file)
  #  Be sure to double-check any results obtained with these settings for post-processing,
  #  e.g., with the "tight" defaults and larger basis sets.
  #
  ################################################################################
    species        O
  #     global species definitions
      nucleus             8
      mass                15.9994
  #
      l_hartree           4
  #
      cut_pot             3.5  1.5  1.0
      basis_dep_cutoff    1e-4
  #
      radial_base         36 5.0
      radial_multiplier   1
       angular_grids specified
        division   0.2659   50
        division   0.4451  110
        division   0.6052  194
        division   0.7543  302
  #      division   0.8014  434
  #      division   0.8507  590
  #      division   0.8762  770
  #      division   0.9023  974
  #      division   1.2339 1202
  #      outer_grid 974
        outer_grid 302
  ################################################################################
  #
  #  Definition of "minimal" basis
  #
  ################################################################################
  #     valence basis states
      valence      2  s   2.
      valence      2  p   4.
  #     ion occupancy
      ion_occ      2  s   1.
      ion_occ      2  p   3.
  ################################################################################
  #
  #  Suggested additional basis functions. For production calculations,
  #  uncomment them one after another (the most important basis functions are
  #  listed first).
  #
  #  Constructed for dimers: 1.0 A, 1.208 A, 1.5 A, 2.0 A, 3.0 A
  #
  ################################################################################
  #  "First tier" - improvements: -699.05 meV to -159.38 meV
       hydro 2 p 1.8
       hydro 3 d 7.6
       hydro 3 s 6.4
  #  "Second tier" - improvements: -49.91 meV to -5.39 meV
  #     hydro 4 f 11.6
  #     hydro 3 p 6.2
  #     hydro 3 d 5.6
  #     hydro 5 g 17.6
  #     hydro 1 s 0.75
  #  "Third tier" - improvements: -2.83 meV to -0.50 meV
  #     ionic 2 p auto
  #     hydro 4 f 10.8
  #     hydro 4 d 4.7
  #     hydro 2 s 6.8
  #  "Fourth tier" - improvements: -0.40 meV to -0.12 meV
  #     hydro 3 p 5
  #     hydro 3 s 3.3
  #     hydro 5 g 15.6
  #     hydro 4 f 17.6
  #     hydro 4 d 14
  # Further basis functions - -0.08 meV and below
  #     hydro 3 s 2.1
  #     hydro 4 d 11.6
  #     hydro 3 p 16
  #     hydro 2 s 17.2
  
  -----------------------------------------------------------------------
  Completed first pass over input file control.in .
  -----------------------------------------------------------------------
  
  
  -----------------------------------------------------------------------
  Parsing geometry.in (first pass over file, find array dimensions only).
  The contents of geometry.in will be repeated verbatim below
  unless switched off by setting 'verbatim_writeout .false.' .
  in the first line of geometry.in .
  -----------------------------------------------------------------------
  
  atom  0.00000 0.00000 0.00000 C
  atom  1.09300 0.00000 0.00000 H
  atom  -0.47961 0.00000 -1.41207 N
  atom  0.32784 -0.07653 -2.03175 H
  atom  -1.10225 -0.79408 -1.54579 H
  atom  -0.49584 1.26211 0.72868 C
  atom  -0.19344 2.16006 0.18481 H
  atom  -1.58556 1.25438 0.80619 H
  atom  -0.07703 1.30987 1.73658 H
  atom  -0.39425 -1.28861 0.74398 C
  atom  -1.37103 -1.43241 1.44002 O
  atom  0.40728 -2.29478 0.59583 O
  atom  -0.09784 -2.95408 1.10096 H
  
  -----------------------------------------------------------------------
  Completed first pass over input file geometry.in .
  -----------------------------------------------------------------------
  

  Basic array size parameters:
  | Number of species                 :        4
  | Number of atoms                   :       13
  | Max. basis fn. angular momentum   :        2
  | Max. atomic/ionic basis occupied n:        2
  | Max. number of basis fn. types    :        2
  | Max. radial fns per species/type  :        3
  | Max. logarithmic grid size        :     1301
  | Max. radial integration grid size :       36
  | Max. angular integration grid size:      302
  | Max. angular grid division number :        8
  | Radial grid for Hartree potential :     1301
  | Number of spin channels           :        1

------------------------------------------------------------
          Reading file control.in.
------------------------------------------------------------
  XC: Using PBE gradient-corrected functionals.
  Spin treatment: No spin polarisation.
  Non-relativistic treatment of kinetic energy.
  Charge =   0.000000E+00: Neutral system requested explicitly.
  Occupation type: Gaussian broadening, width =   0.100000E-01 eV.
  Using pulay charge density mixing.
  Pulay mixing - number of memorized iterations:   10
  Charge density mixing - mixing parameter:     0.2000
  Convergence accuracy of self-consistent charge density:  0.1000E-04
  Convergence accuracy of sum of eigenvalues:  0.1000E-02
  Convergence accuracy of total energy:  0.1000E-05
  Convergence accuracy of forces:  0.1000E-03
  Maximum number of s.-c. iterations  :   100
 
  Reading configuration options for species H                   .
  | Found nuclear charge :   1.0000
  | Found atomic mass :    1.00794000000000      amu
  | Found l_max for Hartree potential  :   4
  | Found cutoff potl. onset [A], width [A], scale factor :    3.50000    1.50000    1.00000
  | Threshold for basis-dependent cutoff potential is   0.100000E-03
  | Found data for basic radial integration grid :    24 points, outermost radius =    5.000 A
  | Found multiplier for basic radial grid :   1
  | Found angular grid specification: user-specified.
  | Specified grid contains     5 separate shells.
  | Check grid settings after all constraints further below.
  | Found free-atom valence shell :  1 s   1.000
  | No ionic wave fns used. Skipping ion_occ.
  | Found hydrogenic basis function :  2 s   2.100
  | Found hydrogenic basis function :  2 p   3.500
  Species H                   : Missing cutoff potential type.
  Defaulting to exp(1/x)/(1-x)^2 type cutoff potential.
  Species H : No 'logarithmic' tag. Using default grid for free atom:
  | Default logarithmic grid data [bohr] : 0.1000E-03 0.1000E+03 0.1012E+01
  Species H : On-site basis accuracy parameter (for Gram-Schmidt orthonormalisation) not specified.
  Using default value basis_acc =  0.1000000E-03.
  Species H                   : Using default innermost maximum threshold i_radial=  2 for radial functions.
  Species H                   : Default cutoff onset for free atom density etc. : 0.35000000E+01 AA.
  Species H                   : Basic radial grid will be enhanced according to radial_multiplier =   1, to contain    24 grid points.
 
  Reading configuration options for species C                   .
  | Found nuclear charge :   6.0000
  | Found atomic mass :    12.0107000000000      amu
  | Found l_max for Hartree potential  :   4
  | Found cutoff potl. onset [A], width [A], scale factor :    3.50000    1.50000    1.00000
  | Threshold for basis-dependent cutoff potential is   0.100000E-03
  | Found data for basic radial integration grid :    34 points, outermost radius =    5.000 A
  | Found multiplier for basic radial grid :   1
  | Found angular grid specification: user-specified.
  | Specified grid contains     5 separate shells.
  | Check grid settings after all constraints further below.
  | Found free-atom valence shell :  2 s   2.000
  | Found free-atom valence shell :  2 p   2.000
  | No ionic wave fns used. Skipping ion_occ.
  | No ionic wave fns used. Skipping ion_occ.
  | Found hydrogenic basis function :  2 p   1.700
  | Found hydrogenic basis function :  3 d   6.000
  | Found hydrogenic basis function :  2 s   4.900
  Species C                   : Missing cutoff potential type.
  Defaulting to exp(1/x)/(1-x)^2 type cutoff potential.
  Species C : No 'logarithmic' tag. Using default grid for free atom:
  | Default logarithmic grid data [bohr] : 0.1000E-03 0.1000E+03 0.1012E+01
  Species C : On-site basis accuracy parameter (for Gram-Schmidt orthonormalisation) not specified.
  Using default value basis_acc =  0.1000000E-03.
  Species C                   : Using default innermost maximum threshold i_radial=  2 for radial functions.
  Species C                   : Default cutoff onset for free atom density etc. : 0.35000000E+01 AA.
  Species C                   : Basic radial grid will be enhanced according to radial_multiplier =   1, to contain    34 grid points.
 
  Reading configuration options for species N                   .
  | Found nuclear charge :   7.0000
  | Found atomic mass :    14.0067000000000      amu
  | Found l_max for Hartree potential  :   4
  | Found cutoff potl. onset [A], width [A], scale factor :    3.50000    1.50000    1.00000
  | Threshold for basis-dependent cutoff potential is   0.100000E-03
  | Found data for basic radial integration grid :    35 points, outermost radius =    5.000 A
  | Found multiplier for basic radial grid :   1
  | Found angular grid specification: user-specified.
  | Specified grid contains     5 separate shells.
  | Check grid settings after all constraints further below.
  | Found free-atom valence shell :  2 s   2.000
  | Found free-atom valence shell :  2 p   3.000
  | No ionic wave fns used. Skipping ion_occ.
  | No ionic wave fns used. Skipping ion_occ.
  | Found hydrogenic basis function :  2 p   1.800
  | Found hydrogenic basis function :  3 d   6.800
  | Found hydrogenic basis function :  3 s   5.800
  Species N                   : Missing cutoff potential type.
  Defaulting to exp(1/x)/(1-x)^2 type cutoff potential.
  Species N : No 'logarithmic' tag. Using default grid for free atom:
  | Default logarithmic grid data [bohr] : 0.1000E-03 0.1000E+03 0.1012E+01
  Species N : On-site basis accuracy parameter (for Gram-Schmidt orthonormalisation) not specified.
  Using default value basis_acc =  0.1000000E-03.
  Species N                   : Using default innermost maximum threshold i_radial=  2 for radial functions.
  Species N                   : Default cutoff onset for free atom density etc. : 0.35000000E+01 AA.
  Species N                   : Basic radial grid will be enhanced according to radial_multiplier =   1, to contain    35 grid points.
 
  Reading configuration options for species O                   .
  | Found nuclear charge :   8.0000
  | Found atomic mass :    15.9994000000000      amu
  | Found l_max for Hartree potential  :   4
  | Found cutoff potl. onset [A], width [A], scale factor :    3.50000    1.50000    1.00000
  | Threshold for basis-dependent cutoff potential is   0.100000E-03
  | Found data for basic radial integration grid :    36 points, outermost radius =    5.000 A
  | Found multiplier for basic radial grid :   1
  | Found angular grid specification: user-specified.
  | Specified grid contains     5 separate shells.
  | Check grid settings after all constraints further below.
  | Found free-atom valence shell :  2 s   2.000
  | Found free-atom valence shell :  2 p   4.000
  | No ionic wave fns used. Skipping ion_occ.
  | No ionic wave fns used. Skipping ion_occ.
  | Found hydrogenic basis function :  2 p   1.800
  | Found hydrogenic basis function :  3 d   7.600
  | Found hydrogenic basis function :  3 s   6.400
  Species O                   : Missing cutoff potential type.
  Defaulting to exp(1/x)/(1-x)^2 type cutoff potential.
  Species O : No 'logarithmic' tag. Using default grid for free atom:
  | Default logarithmic grid data [bohr] : 0.1000E-03 0.1000E+03 0.1012E+01
  Species O : On-site basis accuracy parameter (for Gram-Schmidt orthonormalisation) not specified.
  Using default value basis_acc =  0.1000000E-03.
  Species O                   : Using default innermost maximum threshold i_radial=  2 for radial functions.
  Species O                   : Default cutoff onset for free atom density etc. : 0.35000000E+01 AA.
  Species O                   : Basic radial grid will be enhanced according to radial_multiplier =   1, to contain    36 grid points.
 
  Finished reading input file 'control.in'. Consistency checks are next.
 
  MPI_IN_PLACE appears to work with this MPI implementation.
  | Keeping use_mpi_in_place .true. (see manual).
  Target number of points in a grid batch is not set. Defaulting to  100
  Method for grid partitioning is not set. Defaulting to parallel hash+maxmin partitioning.
  Batch size limit is not set. Defaulting to    200
  By default, will store active basis functions for each batch.
  If in need of memory, prune_basis_once .false. can be used to disable this option.
  communication_type for Hartree potential was not specified.
  Defaulting to calc_hartree .
  Pulay mixer: Number of initial linear mixing iterations not set.
  Defaulting to    0 iterations.
  Work space size for distributed Hartree potential not set.
  Defaulting to   0.200000E+03 MB.
  Algorithm-dependent basis array size parameters:
  | n_max_pulay                         :       10
  Presetting      1001 iterations before the initial mixing cycle
  is restarted anyway using the sc_init_iter criterion / keyword.
  Presetting a factor      1.000 between actual scf density residual
  and density convergence criterion sc_accuracy_rho below which sc_init_iter
  takes no effect.
  Geometry relaxation not requested: no relaxation will be performed.
  Handling of forces: Unphysical translation and rotation will be removed from forces.
  No accuracy limit for integral partition fn. given. Defaulting to  0.1000E-14.
  No threshold value for u(r) in integrations given. Defaulting to  0.1000E-05.
  No accuracy for occupation numbers given. Defaulting to  0.1000E-12.
  No threshold value for occupation numbers given. Defaulting to  0.0000E+00.
  No accuracy for fermi level given. Defaulting to  0.1000E-19.
  Maximum # of iterations to find E_F not set. Defaulting to  200.
  Preferred method for the eigenvalue solver ('KS_method') not specified in 'control.in'.
  Calling BLACS routine to test compilation state
  Since ScaLAPACK support is enabled, defaulting to 'elsi'.
  Will not use alltoall communication since running on < 1024 CPUs.
  Threshold for basis singularities not set.
  Default threshold for basis singularities:  0.1000E-04
  partition_type (choice of integration weights) for integrals was not specified.
  | Using a version of the partition function of Stratmann and coworkers ('stratmann_smoother').
  | At each grid point, the set of atoms used to build the partition table is smoothly restricted to
  | only those atoms whose free-atom density would be non-zero at that grid point.
  Partitioning for Hartree potential was not defined. Using partition_type for integrals.
  | Adjusted default value of keyword multip_moments_threshold to:       0.10000000E-11
  | This value may affect high angular momentum components of the Hartree potential in periodic systems.
  No q(lm)/r^(l+1) cutoff set for long-range Hartree potential.
  | Using default value of  0.100000E-09 .
  | Verify using the multipole_threshold keyword.
  Defaulting to new monopole extrapolation.
  Density update method: automatic selection selected.
------------------------------------------------------------


------------------------------------------------------------
          Reading geometry description geometry.in.
------------------------------------------------------------
  Input structure read successfully.
  The structure contains       13 atoms,  and a total of         48.000 electrons.

  Input geometry:
  | No unit cell requested.
  | Atomic structure:
  |       Atom                x [A]            y [A]            z [A]
  |    1: Species C             0.00000000        0.00000000        0.00000000
  |    2: Species H             1.09300000        0.00000000        0.00000000
  |    3: Species N            -0.47961000        0.00000000       -1.41207000
  |    4: Species H             0.32784000       -0.07653000       -2.03175000
  |    5: Species H            -1.10225000       -0.79408000       -1.54579000
  |    6: Species C            -0.49584000        1.26211000        0.72868000
  |    7: Species H            -0.19344000        2.16006000        0.18481000
  |    8: Species H            -1.58556000        1.25438000        0.80619000
  |    9: Species H            -0.07703000        1.30987000        1.73658000
  |   10: Species C            -0.39425000       -1.28861000        0.74398000
  |   11: Species O            -1.37103000       -1.43241000        1.44002000
  |   12: Species O             0.40728000       -2.29478000        0.59583000
  |   13: Species H            -0.09784000       -2.95408000        1.10096000
  |

  | The smallest distance between any two atoms is         0.97210031 AA.
  |
  | The first atom of this pair is atom number                     12 .
  | The second atom of this pair is atom number                    13 .

  Number of empty states per atom not set in control.in - providing a guess from actual geometry.
  | Total number of empty states used during s.c.f. cycle:       29
  If you use a very high smearing, use empty_states (per atom!) in control.in to increase this value.

  Structure-dependent array size parameters: 
  | Maximum number of distinct radial functions  :       21
  | Maximum number of basis functions            :      119
  | Number of Kohn-Sham states (occupied + empty):       53
------------------------------------------------------------

------------------------------------------------------------
          Preparing all fixed parts of the calculation.
------------------------------------------------------------
  Determining machine precision:
    2.225073858507201E-308
  Setting up grids for atomic and cluster calculations.

  Creating wave function, potential, and density for free atoms.

  Species: H

  List of occupied orbitals and eigenvalues:
    n    l              occ      energy [Ha]    energy [eV]
    1    0           1.0000        -0.237589        -6.4651


  Species: C

  List of occupied orbitals and eigenvalues:
    n    l              occ      energy [Ha]    energy [eV]
    1    0           2.0000       -10.038835      -273.1706
    2    0           2.0000        -0.502696       -13.6791
    2    1           2.0000        -0.191971        -5.2238


  Species: N

  List of occupied orbitals and eigenvalues:
    n    l              occ      energy [Ha]    energy [eV]
    1    0           2.0000       -14.128000      -384.4424
    2    0           2.0000        -0.681077       -18.5330
    2    1           3.0000        -0.259788        -7.0692


  Species: O

  List of occupied orbitals and eigenvalues:
    n    l              occ      energy [Ha]    energy [eV]
    1    0           2.0000       -18.898188      -514.2459
    2    0           2.0000        -0.878505       -23.9053
    2    1           4.0000        -0.331779        -9.0282

  Creating fixed part of basis set: Ionic, confined, hydrogenic.
 
  H                    hydrogenic:
 
  List of hydrogenic basis orbitals: 
    n    l      effective z      eigenvalue [eV]  inner max. [A]     outer max. [A]     outer radius [A]   
    2    0         2.100000       -14.9728           0.193243           1.317208           4.583499
    2    1         3.500000       -41.6669           0.602369           0.602369           3.723403
 
 
  C                    hydrogenic:
 
  List of hydrogenic basis orbitals: 
    n    l      effective z      eigenvalue [eV]  inner max. [A]     outer max. [A]     outer radius [A]   
    2    1         1.700000        -9.7616           1.230570           1.230570           4.607917
    3    2         6.000000       -54.4224           0.792453           0.792453           3.883070
    2    0         4.900000       -81.6679           0.082559           0.562749           3.078220
 
 
  N                    hydrogenic:
 
  List of hydrogenic basis orbitals: 
    n    l      effective z      eigenvalue [eV]  inner max. [A]     outer max. [A]     outer radius [A]   
    2    1         1.800000       -10.9749           1.177451           1.177451           4.573712
    3    2         6.800000       -69.9026           0.704619           0.704619           3.538137
    3    0         5.800000       -50.8545           0.067388           1.191934           4.250239
 
 
  O                    hydrogenic:
 
  List of hydrogenic basis orbitals: 
    n    l      effective z      eigenvalue [eV]  inner max. [A]     outer max. [A]     outer radius [A]   
    2    1         1.800000       -10.9749           1.164242           1.164242           4.578029
    3    2         7.600000       -87.3180           0.624125           0.624125           3.251020
    3    0         6.400000       -61.9207           0.061167           1.081902           4.001998
 

  Adding cutoff potential to free-atom effective potential.
  Creating atomic-like basis functions for current effective potential.

  Species H                   :

  List of atomic basis orbitals and eigenvalues:
    n    l      energy [Ha]    energy [eV]    outer radius [A]
    1    0        -0.237589        -6.4651       4.527807


  Species C                   :

  List of atomic basis orbitals and eigenvalues:
    n    l      energy [Ha]    energy [eV]    outer radius [A]
    1    0       -10.038835      -273.1706       1.934409
    2    0        -0.502696       -13.6791       4.496620
    2    1        -0.191971        -5.2238       4.551928


  Species N                   :

  List of atomic basis orbitals and eigenvalues:
    n    l      energy [Ha]    energy [eV]    outer radius [A]
    1    0       -14.128000      -384.4424       1.637919
    2    0        -0.681077       -18.5330       4.463241
    2    1        -0.259788        -7.0692       4.518138


  Species O                   :

  List of atomic basis orbitals and eigenvalues:
    n    l      energy [Ha]    energy [eV]    outer radius [A]
    1    0       -18.898188      -514.2459       1.415765
    2    0        -0.878505       -23.9053       4.413171
    2    1        -0.331779        -9.0282       4.522403

  Assembling full basis from fixed parts.
  | Species H :   atomic orbital   1 s accepted.
  | Species H :    hydro orbital   2 s accepted.
  | Species H :    hydro orbital   2 p accepted.
  | Species C :   atomic orbital   1 s accepted.
  | Species C :    hydro orbital   2 s accepted.
  | Species C :   atomic orbital   2 s accepted.
  | Species C :   atomic orbital   2 p accepted.
  | Species C :    hydro orbital   2 p accepted.
  | Species C :    hydro orbital   3 d accepted.
  | Species N :   atomic orbital   1 s accepted.
  | Species N :    hydro orbital   3 s accepted.
  | Species N :   atomic orbital   2 s accepted.
  | Species N :   atomic orbital   2 p accepted.
  | Species N :    hydro orbital   2 p accepted.
  | Species N :    hydro orbital   3 d accepted.
  | Species O :   atomic orbital   1 s accepted.
  | Species O :    hydro orbital   3 s accepted.
  | Species O :   atomic orbital   2 s accepted.
  | Species O :   atomic orbital   2 p accepted.
  | Species O :    hydro orbital   2 p accepted.
  | Species O :    hydro orbital   3 d accepted.
 
  Basis size parameters after reduction:
  | Total number of radial functions:       21
  | Total number of basis functions :      119
 
  Per-task memory consumption for arrays in subroutine allocate_ext:
  |           5.250512MB.
  Testing on-site integration grid accuracy.
  |  Species  Function  <phi|h_atom|phi> (log., in eV)  <phi|h_atom|phi> (rad., in eV)
           1        1                 -6.4663192853                 -6.4651273558
           1        2                 13.7111246313                 13.7170609718
           1        3                 25.2673269279                 25.2674696378
           2        4               -273.1705927641               -273.1705631568
           2        5                -10.7109323383                -10.7107120029
           2        6                 17.4381822266                 17.4352413244
           2        7                 -5.2255326521                 -5.2270484734
           2        8                  8.6835629259                  8.6603288385
           2        9                 27.4952418996                 27.4953360207
           3       10               -384.4424306495               -384.4423701208
           3       11                 12.5842251816                 12.5842222903
           3       12                -15.7264628251                -15.7264433455
           3       13                 -7.0696854293                 -7.0701769954
           3       14                  8.8090390882                  8.7901077751
           3       15                 35.9586762123                 35.9588528632
           4       16               -514.2458688638               -514.2457643834
           4       17                 15.1795651126                 15.1795290741
           4       18                -21.5359799773                -21.5360846186
           4       19                 -9.0283069236                 -9.0284644067
           4       20                  8.3027758564                  8.2834874195
           4       21                 45.8339351984                 45.8338762259

  Preparing densities etc. for the partition functions (integrals / Hartree potential).

  Preparations completed.
  max(cpu_time)          :      0.168 s.
  Wall clock time (cpu1) :      0.168 s.
------------------------------------------------------------

------------------------------------------------------------
          Begin self-consistency loop: Initialization.

          Date     :  20200616, Time     :  050956.388
------------------------------------------------------------

  Initializing index lists of integration centers etc. from given atomic structure:
  | Number of centers in hartree potential         :        13
  | Number of centers in hartree multipole         :        13
  | Number of centers in electron density summation:        13
  | Number of centers in basis integrals           :        13
  | Number of centers in integrals                 :        13
  | Number of centers in hamiltonian               :        13
  * Using 20 tasks for Scalapack Eigenvalue solver.
  Detailed listing of tasks and assigned k-points:
  (for non-periodic systems, the "k-point" denotes an internal label only)
   Task     0 k-point     1 on r14c43.bullx
   Task     1 k-point     1 on r14c43.bullx
   Task     2 k-point     1 on r14c43.bullx
   Task     3 k-point     1 on r14c43.bullx
   Task     4 k-point     1 on r14c43.bullx
   Task     5 k-point     1 on r14c43.bullx
   Task     6 k-point     1 on r14c43.bullx
   Task     7 k-point     1 on r14c43.bullx
   Task     8 k-point     1 on r14c43.bullx
   Task     9 k-point     1 on r14c43.bullx
   Task    10 k-point     1 on r14c43.bullx
   Task    11 k-point     1 on r14c43.bullx
   Task    12 k-point     1 on r14c43.bullx
   Task    13 k-point     1 on r14c43.bullx
   Task    14 k-point     1 on r14c43.bullx
   Task    15 k-point     1 on r14c43.bullx
   Task    16 k-point     1 on r14c43.bullx
   Task    17 k-point     1 on r14c43.bullx
   Task    18 k-point     1 on r14c43.bullx
   Task    19 k-point     1 on r14c43.bullx
  Tasks:    20 split into      5 X      4 BLACS grid
  Calculating block size based on n_basis =          119  max_nprow =            5  max_npcol =            4
  ScaLAPACK block size set to:           16
  Allocating        0.008 MB for ovlp
  Allocating        0.008 MB for ham
  Allocating        0.008 MB for eigenvec
  Required Scalapack workspace - INTEGER:            1  REAL:             1
  Partitioning the integration grid into batches with parallel hashing+maxmin method.
  | Number of batches:      833
  | Maximal batch size:     192
  | Minimal batch size:      53
  | Average batch size:      83.609
  | Standard deviation of batch sizes:      18.663

  Integration load balanced across    20 MPI tasks.
  Work distribution over tasks is as follows:
  Task     0 has       3497 integration points.
  Task     1 has       3494 integration points.
  Task     2 has       3443 integration points.
  Task     3 has       3445 integration points.
  Task     4 has       3437 integration points.
  Task     5 has       3496 integration points.
  Task     6 has       3432 integration points.
  Task     7 has       3493 integration points.
  Task     8 has       3459 integration points.
  Task     9 has       3495 integration points.
  Task    10 has       3528 integration points.
  Task    11 has       3533 integration points.
  Task    12 has       3536 integration points.
  Task    13 has       3490 integration points.
  Task    14 has       3445 integration points.
  Task    15 has       3527 integration points.
  Task    16 has       3481 integration points.
  Task    17 has       3499 integration points.
  Task    18 has       3490 integration points.
  Task    19 has       3426 integration points.
  Initializing partition tables, free-atom densities, potentials, etc. across the integration grid (initialize_grid_storage).
  | initialize_grid_storage: Actual outermost partition radius vs. multipole_radius_free
  | (-- VB: in principle, multipole_radius_free should be larger, hence this output)
  | Species        1: Confinement radius =              4.999999999999999 AA, multipole_radius_free =              5.054417573612229 AA.
  | Species        1: outer_partition_radius set to              5.054417573612229 AA .
  | Species        2: Confinement radius =              4.999999999999999 AA, multipole_radius_free =              5.019602836301480 AA.
  | Species        2: outer_partition_radius set to              5.019602836301480 AA .
  | Species        3: Confinement radius =              4.999999999999999 AA, multipole_radius_free =              5.043624274424571 AA.
  | Species        3: outer_partition_radius set to              5.043624274424571 AA .
  | Species        4: Confinement radius =              4.999999999999999 AA, multipole_radius_free =              5.048384829883283 AA.
  | Species        4: outer_partition_radius set to              5.048384829883283 AA .
  | Original list of interatomic distances with          13 x         13 entries is created.
  | Net number of integration points:    69646
  | of which are non-zero points    :    59693
  Renormalizing the initial density to the exact electron count on the 3D integration grid.
  | Initial density: Formal number of electrons (from input files) :      48.0000000000
  | Integrated number of electrons on 3D grid     :      48.0000324657
  | Charge integration error                      :       0.0000324657
  | Normalization factor for density and gradient :       0.9999993236
  Obtaining max. number of non-zero basis functions in each batch (get_n_compute_maxes).
  | Maximal number of non-zero basis functions:      117 in task     0
  | Maximal number of non-zero basis functions:      117 in task     1
  | Maximal number of non-zero basis functions:      119 in task     2
  | Maximal number of non-zero basis functions:      118 in task     3
  | Maximal number of non-zero basis functions:      117 in task     4
  | Maximal number of non-zero basis functions:      117 in task     5
  | Maximal number of non-zero basis functions:      118 in task     6
  | Maximal number of non-zero basis functions:      118 in task     7
  | Maximal number of non-zero basis functions:      118 in task     8
  | Maximal number of non-zero basis functions:      118 in task     9
  | Maximal number of non-zero basis functions:      118 in task    10
  | Maximal number of non-zero basis functions:      118 in task    11
  | Maximal number of non-zero basis functions:      118 in task    12
  | Maximal number of non-zero basis functions:      118 in task    13
  | Maximal number of non-zero basis functions:      118 in task    14
  | Maximal number of non-zero basis functions:      118 in task    15
  | Maximal number of non-zero basis functions:      119 in task    16
  | Maximal number of non-zero basis functions:      117 in task    17
  | Maximal number of non-zero basis functions:      119 in task    18
  | Maximal number of non-zero basis functions:      118 in task    19
  Selecting the method for density update.
  Loop over occupied states selected for charge density update.
  Allocating        0.050 MB for KS_eigenvector
  Integrating Hamiltonian matrix: batch-based integration.
  Time summed over all CPUs for integration: real work        0.518 s, elapsed        0.560 s
  Integrating overlap matrix.
  Time summed over all CPUs for integration: real work        0.214 s, elapsed        0.231 s
  Deallocating overlap matrix.

  Updating Kohn-Sham eigenvalues and eigenvectors using ELSI and the ELPA eigensolver.
  ELPA settings:
  | ELPA solver          1
  | Time full => band           :     0.001 s
  | Time band => tridiagonal    :     0.001 s
  | Time solve tridiagonal      :     0.001 s
  Overlap matrix is nonsingular
  | Lowest eigenvalue of overlap  :  0.48E-02
  | Highest eigenvalue of overlap :  0.60E+01
  Finished singularity check of overlap matrix
  | Time :     0.003 s
  Finished Cholesky decomposition
  | Time :     0.002 s
  Finished transformation to standard eigenproblem
  | Time :     0.001 s
  Starting ELPA eigensolver
  | Time full => tridiagonal    :     0.002 s
  | Time solve tridiagonal      :     0.000 s
  | Time ev tridiagonal => full :     0.001 s
  Finished solving standard eigenproblem
  | Time :     0.003 s
  Finished back-transformation of eigenvectors
  | Time :     0.000 s

  Obtaining occupation numbers and chemical potential using ELSI.
  | Chemical potential (Fermi level):   -10.11372798eV
  Writing Kohn-Sham eigenvalues.

  State    Occupation    Eigenvalue [Ha]    Eigenvalue [eV]
      1       2.00000         -19.007582         -517.22262
      2       2.00000         -18.978415         -516.42895
      3       2.00000         -14.245724         -387.64586
      4       2.00000         -10.166594         -276.64709
      5       2.00000         -10.141234         -275.95702
      6       2.00000         -10.132152         -275.70989
      7       2.00000          -1.188324          -32.33594
      8       2.00000          -1.092897          -29.73923
      9       2.00000          -0.990785          -26.96064
     10       2.00000          -0.862219          -23.46218
     11       2.00000          -0.761420          -20.71930
     12       2.00000          -0.674960          -18.36660
     13       2.00000          -0.629450          -17.12821
     14       2.00000          -0.600308          -16.33522
     15       2.00000          -0.593151          -16.14046
     16       2.00000          -0.563168          -15.32457
     17       2.00000          -0.541587          -14.73732
     18       2.00000          -0.530818          -14.44429
     19       2.00000          -0.517461          -14.08082
     20       2.00000          -0.505403          -13.75271
     21       2.00000          -0.475809          -12.94743
     22       2.00000          -0.428582          -11.66231
     23       2.00000          -0.405753          -11.04111
     24       2.00000          -0.389759          -10.60587
     25       0.00000          -0.157244           -4.27884
     26       0.00000          -0.051809           -1.40980
     27       0.00000          -0.026749           -0.72788
     28       0.00000          -0.011296           -0.30738
     29       0.00000          -0.009929           -0.27019
     30       0.00000           0.010419            0.28351
     31       0.00000           0.019932            0.54237
     32       0.00000           0.025220            0.68628
     33       0.00000           0.037401            1.01774
     34       0.00000           0.072885            1.98331
     35       0.00000           0.090753            2.46951
     36       0.00000           0.119517            3.25223
     37       0.00000           0.140306            3.81791
     38       0.00000           0.214150            5.82732
     39       0.00000           0.223358            6.07788
     40       0.00000           0.230354            6.26825
     41       0.00000           0.246167            6.69853
     42       0.00000           0.256905            6.99074
     43       0.00000           0.298669            8.12720
     44       0.00000           0.317171            8.63067
     45       0.00000           0.322125            8.76546
     46       0.00000           0.349981            9.52346
     47       0.00000           0.373501           10.16347
     48       0.00000           0.408938           11.12776
     49       0.00000           0.456398           12.41923
     50       0.00000           0.485120           13.20077
     51       0.00000           0.498705           13.57044
     52       0.00000           0.521412           14.18834
     53       0.00000           0.544847           14.82605

  Highest occupied state (VBM) at    -10.60587429 eV
  | Occupation number:      2.00000000

  Lowest unoccupied state (CBM) at    -4.27883715 eV
  | Occupation number:      0.00000000

  Overall HOMO-LUMO gap:      6.32703714 eV.
  Calculating total energy contributions from superposition of free atom densities.

  Total energy components:
  | Sum of eigenvalues            :        -188.84710971 Ha       -5138.79131409 eV
  | XC energy correction          :         -41.78414039 Ha       -1137.00431012 eV
  | XC potential correction       :          53.71346689 Ha        1461.61780024 eV
  | Free-atom electrostatic energy:        -146.85617317 Ha       -3996.15979437 eV
  | Hartree energy correction     :           0.00000000 Ha           0.00000000 eV
  | vdW energy correction         :           0.00000000 Ha           0.00000000 eV
  | Entropy correction            :           0.00000000 Ha           0.00000000 eV
  | ---------------------------
  | Total energy                  :        -323.77395639 Ha       -8810.33761833 eV
  | Total energy, T -> 0          :        -323.77395639 Ha       -8810.33761833 eV  <-- do not rely on this value for anything but (periodic) metals
  | Electronic free energy        :        -323.77395639 Ha       -8810.33761833 eV

  Derived energy quantities:
  | Kinetic energy                :         320.47474569 Ha        8720.56152754 eV
  | Electrostatic energy          :        -602.46456169 Ha      -16393.89483575 eV
  | Energy correction for multipole
  | error in Hartree potential    :           0.00000000 Ha           0.00000000 eV
  | Sum of eigenvalues per atom                           :        -395.29163955 eV
  | Total energy (T->0) per atom                          :        -677.71827833 eV  <-- do not rely on this value for anything but (periodic) metals
  | Electronic free energy per atom                       :        -677.71827833 eV
  Initialize hartree_potential_storage
  Max. number of atoms included in rho_multipole:           13

  End scf initialization - timings             :  max(cpu_time)    wall_clock(cpu1)
  | Time for scf. initialization               :        0.095 s           0.095 s
  | Boundary condition initialization          :        0.000 s           0.000 s
  | Integration                                :        0.041 s           0.041 s
  | Solution of K.-S. eqns.                    :        0.010 s           0.010 s
  | Grid partitioning                          :        0.021 s           0.021 s
  | Preloading free-atom quantities on grid    :        0.002 s           0.002 s
  | Free-atom superposition energy             :        0.005 s           0.005 s
  | Total energy evaluation                    :        0.000 s           0.000 s

  Partial memory accounting:
  | Current value for overall tracked memory usage on task 0  :           0.133 MB
  | Peak value for overall tracked memory usage on task 0     :           0.841 MB after allocating wave
  | Largest tracked array allocation on task 0 so far         :           0.180 MB  when allocating H_times_psi
  Note:  These values currently only include a subset of arrays which are explicitly tracked.
  The "true" memory usage will be greater.
------------------------------------------------------------

------------------------------------------------------------
          Begin self-consistency iteration #    1

  Date     :  20200616, Time     :  050956.484
------------------------------------------------------------
  Evaluating new KS density.
  Integration grid: deviation in total charge (<rho> - N_e) =   2.131628E-14
  Pulay mixing of updated and previous charge densities.

  Evaluating partitioned Hartree potential by multipole expansion.
  | Analytical far-field extrapolation by fixed multipoles:
  | Hartree multipole sum: apparent total charge =  -0.733940E-04
  Summing up the Hartree potential.
  Time summed over all CPUs for potential: real work        0.423 s, elapsed        0.439 s
  | RMS charge density error from multipole expansion :   0.584870E-02

  Integrating Hamiltonian matrix: batch-based integration.
  Time summed over all CPUs for integration: real work        0.508 s, elapsed        0.547 s

  Updating Kohn-Sham eigenvalues and eigenvectors using ELSI and the ELPA eigensolver.
  ELPA settings:
  | ELPA solver          1
  Finished transformation to standard eigenproblem
  | Time :     0.000 s
  Starting ELPA eigensolver
  | Time full => tridiagonal    :     0.002 s
  | Time solve tridiagonal      :     0.000 s
  | Time ev tridiagonal => full :     0.000 s
  Finished solving standard eigenproblem
  | Time :     0.003 s
  Finished back-transformation of eigenvectors
  | Time :     0.000 s

  Obtaining occupation numbers and chemical potential using ELSI.
  | Chemical potential (Fermi level):    -4.76703764eV
  Writing Kohn-Sham eigenvalues.

  State    Occupation    Eigenvalue [Ha]    Eigenvalue [eV]
      1       2.00000         -18.910770         -514.58824
      2       2.00000         -18.839094         -512.63784
      3       2.00000         -14.097620         -383.61575
      4       2.00000         -10.116358         -275.28010
      5       2.00000         -10.060811         -273.76858
      6       2.00000         -10.023771         -272.76070
      7       2.00000          -1.141977          -31.07477
      8       2.00000          -1.032105          -28.08501
      9       2.00000          -0.920888          -25.05863
     10       2.00000          -0.793645          -21.59617
     11       2.00000          -0.711190          -19.35246
     12       2.00000          -0.624936          -17.00536
     13       2.00000          -0.575004          -15.64665
     14       2.00000          -0.541882          -14.74535
     15       2.00000          -0.531014          -14.44962
     16       2.00000          -0.502207          -13.66574
     17       2.00000          -0.490100          -13.33631
     18       2.00000          -0.468928          -12.76017
     19       2.00000          -0.454378          -12.36425
     20       2.00000          -0.441518          -12.01431
     21       2.00000          -0.420737          -11.44883
     22       2.00000          -0.369694          -10.05989
     23       2.00000          -0.335334           -9.12491
     24       2.00000          -0.315778           -8.59277
     25       0.00000          -0.118419           -3.22234
     26       0.00000          -0.028530           -0.77633
     27       0.00000          -0.004856           -0.13213
     28       0.00000           0.017866            0.48617
     29       0.00000           0.025151            0.68439
     30       0.00000           0.055540            1.51132
     31       0.00000           0.065962            1.79492
     32       0.00000           0.069263            1.88475
     33       0.00000           0.078539            2.13716
     34       0.00000           0.116218            3.16245
     35       0.00000           0.128911            3.50786
     36       0.00000           0.143773            3.91227
     37       0.00000           0.167024            4.54496
     38       0.00000           0.245486            6.68001
     39       0.00000           0.257994            7.02039
     40       0.00000           0.266738            7.25832
     41       0.00000           0.277044            7.53875
     42       0.00000           0.289866            7.88765
     43       0.00000           0.330545            8.99459
     44       0.00000           0.350534            9.53851
     45       0.00000           0.364093            9.90748
     46       0.00000           0.399001           10.85737
     47       0.00000           0.408101           11.10499
     48       0.00000           0.448077           12.19280
     49       0.00000           0.493777           13.43636
     50       0.00000           0.521872           14.20085
     51       0.00000           0.535663           14.57612
     52       0.00000           0.556578           15.14526
     53       0.00000           0.586424           15.95740

  Highest occupied state (VBM) at     -8.59276898 eV
  | Occupation number:      2.00000000

  Lowest unoccupied state (CBM) at    -3.22233992 eV
  | Occupation number:      0.00000000

  Overall HOMO-LUMO gap:      5.37042906 eV.

  Total energy components:
  | Sum of eigenvalues            :        -185.43947356 Ha       -5046.06481655 eV
  | XC energy correction          :         -42.11230762 Ha       -1145.93419480 eV
  | XC potential correction       :          54.14032499 Ha        1473.23320014 eV
  | Free-atom electrostatic energy:        -146.85617317 Ha       -3996.15979437 eV
  | Hartree energy correction     :          -3.32576757 Ha         -90.49874006 eV
  | vdW energy correction         :           0.00000000 Ha           0.00000000 eV
  | Entropy correction            :           0.00000000 Ha           0.00000000 eV
  | ---------------------------
  | Total energy                  :        -323.59339693 Ha       -8805.42434564 eV
  | Total energy, T -> 0          :        -323.59339693 Ha       -8805.42434564 eV  <-- do not rely on this value for anything but (periodic) metals
  | Electronic free energy        :        -323.59339693 Ha       -8805.42434564 eV

  Derived energy quantities:
  | Kinetic energy                :         322.25761743 Ha        8769.07593581 eV
  | Electrostatic energy          :        -603.73870674 Ha      -16428.56608664 eV
  | Energy correction for multipole
  | error in Hartree potential    :           0.01208196 Ha           0.32876680 eV
  | Sum of eigenvalues per atom                           :        -388.15883204 eV
  | Total energy (T->0) per atom                          :        -677.34033428 eV  <-- do not rely on this value for anything but (periodic) metals
  | Electronic free energy per atom                       :        -677.34033428 eV

  Self-consistency convergence accuracy:
  | Change of charge density      :  0.5791E+00
  | Change of sum of eigenvalues  :  0.9273E+02 eV
  | Change of total energy        :  0.4913E+01 eV

  End self-consistency iteration #     1       :  max(cpu_time)    wall_clock(cpu1)
  | Time for this iteration                    :        0.079 s           0.079 s
  | Charge density update                      :        0.022 s           0.021 s
  | Density mixing                             :        0.000 s           0.001 s
  | Hartree multipole update                   :        0.001 s           0.001 s
  | Hartree multipole summation                :        0.023 s           0.023 s
  | Integration                                :        0.028 s           0.028 s
  | Solution of K.-S. eqns.                    :        0.004 s           0.004 s
  | Total energy evaluation                    :        0.000 s           0.001 s

  Partial memory accounting:
  | Current value for overall tracked memory usage on task 0  :           0.133 MB
  | Peak value for overall tracked memory usage on task 0     :           0.852 MB after allocating gradient_basis_wave
  | Largest tracked array allocation on task 0 so far         :           0.539 MB  when allocating gradient_basis_wave
  Note:  These values currently only include a subset of arrays which are explicitly tracked.
  The "true" memory usage will be greater.
------------------------------------------------------------

------------------------------------------------------------
          Begin self-consistency iteration #    2

  Date     :  20200616, Time     :  050956.568
------------------------------------------------------------
  Evaluating new KS density.
  Integration grid: deviation in total charge (<rho> - N_e) =  -7.105427E-15
  Pulay mixing of updated and previous charge densities.

  Evaluating partitioned Hartree potential by multipole expansion.
  | Analytical far-field extrapolation by fixed multipoles:
  | Hartree multipole sum: apparent total charge =  -0.209325E-03
  Summing up the Hartree potential.
  Time summed over all CPUs for potential: real work        0.421 s, elapsed        0.437 s
  | RMS charge density error from multipole expansion :   0.139726E-01

  Integrating Hamiltonian matrix: batch-based integration.
  Time summed over all CPUs for integration: real work        0.507 s, elapsed        0.546 s

  Updating Kohn-Sham eigenvalues and eigenvectors using ELSI and the ELPA eigensolver.
  ELPA settings:
  | ELPA solver          1
  Finished transformation to standard eigenproblem
  | Time :     0.000 s
  Starting ELPA eigensolver
  | Time full => tridiagonal    :     0.002 s
  | Time solve tridiagonal      :     0.000 s
  | Time ev tridiagonal => full :     0.000 s
  Finished solving standard eigenproblem
  | Time :     0.003 s
  Finished back-transformation of eigenvectors
  | Time :     0.000 s

  Obtaining occupation numbers and chemical potential using ELSI.
  | Chemical potential (Fermi level):    -3.35150067eV
  Highest occupied state (VBM) at     -6.57463989 eV
  | Occupation number:      2.00000000

  Lowest unoccupied state (CBM) at    -1.91411732 eV
  | Occupation number:      0.00000000

  Overall HOMO-LUMO gap:      4.66052257 eV.

  Checking to see if s.c.f. parameters should be adjusted.

  Total energy components:
  | Sum of eigenvalues            :        -181.83500201 Ha       -4947.98215523 eV
  | XC energy correction          :         -42.47471724 Ha       -1155.79586227 eV
  | XC potential correction       :          54.61021184 Ha        1486.01947213 eV
  | Free-atom electrostatic energy:        -146.85617317 Ha       -3996.15979437 eV
  | Hartree energy correction     :          -6.96031934 Ha        -189.39992588 eV
  | vdW energy correction         :           0.00000000 Ha           0.00000000 eV
  | Entropy correction            :           0.00000000 Ha           0.00000000 eV
  | ---------------------------
  | Total energy                  :        -323.51599992 Ha       -8803.31826562 eV
  | Total energy, T -> 0          :        -323.51599992 Ha       -8803.31826562 eV  <-- do not rely on this value for anything but (periodic) metals
  | Electronic free energy        :        -323.51599992 Ha       -8803.31826562 eV

  Derived energy quantities:
  | Kinetic energy                :         323.58834713 Ha        8805.28693345 eV
  | Electrostatic energy          :        -604.62962981 Ha      -16452.80933680 eV
  | Energy correction for multipole
  | error in Hartree potential    :           0.02687690 Ha           0.73135767 eV
  | Sum of eigenvalues per atom                           :        -380.61401194 eV
  | Total energy (T->0) per atom                          :        -677.17832812 eV  <-- do not rely on this value for anything but (periodic) metals
  | Electronic free energy per atom                       :        -677.17832812 eV

  Self-consistency convergence accuracy:
  | Change of charge density      :  0.3622E+00
  | Change of sum of eigenvalues  :  0.9808E+02 eV
  | Change of total energy        :  0.2106E+01 eV

  End self-consistency iteration #     2       :  max(cpu_time)    wall_clock(cpu1)
  | Time for this iteration                    :        0.087 s           0.085 s
  | Charge density update                      :        0.030 s           0.028 s
  | Density mixing                             :        0.001 s           0.001 s
  | Hartree multipole update                   :        0.001 s           0.001 s
  | Hartree multipole summation                :        0.022 s           0.023 s
  | Integration                                :        0.028 s           0.027 s
  | Solution of K.-S. eqns.                    :        0.004 s           0.005 s
  | Total energy evaluation                    :        0.000 s           0.000 s

  Partial memory accounting:
  | Current value for overall tracked memory usage on task 0  :           0.134 MB
  | Peak value for overall tracked memory usage on task 0     :           0.852 MB after allocating gradient_basis_wave
  | Largest tracked array allocation on task 0 so far         :           0.539 MB  when allocating gradient_basis_wave
  Note:  These values currently only include a subset of arrays which are explicitly tracked.
  The "true" memory usage will be greater.
------------------------------------------------------------

------------------------------------------------------------
          Begin self-consistency iteration #    3

  Date     :  20200616, Time     :  050956.661
------------------------------------------------------------
  Evaluating new KS density.
  Integration grid: deviation in total charge (<rho> - N_e) =   0.000000E+00
  Pulay mixing of updated and previous charge densities.

  Evaluating partitioned Hartree potential by multipole expansion.
  | Analytical far-field extrapolation by fixed multipoles:
  | Hartree multipole sum: apparent total charge =  -0.303848E-03
  Summing up the Hartree potential.
  Time summed over all CPUs for potential: real work        0.421 s, elapsed        0.438 s
  | RMS charge density error from multipole expansion :   0.220761E-01

  Integrating Hamiltonian matrix: batch-based integration.
  Time summed over all CPUs for integration: real work        0.507 s, elapsed        0.544 s

  Updating Kohn-Sham eigenvalues and eigenvectors using ELSI and the ELPA eigensolver.
  ELPA settings:
  | ELPA solver          1
  Finished transformation to standard eigenproblem
  | Time :     0.000 s
  Starting ELPA eigensolver
  | Time full => tridiagonal    :     0.002 s
  | Time solve tridiagonal      :     0.000 s
  | Time ev tridiagonal => full :     0.000 s
  Finished solving standard eigenproblem
  | Time :     0.003 s
  Finished back-transformation of eigenvectors
  | Time :     0.000 s

  Obtaining occupation numbers and chemical potential using ELSI.
  | Chemical potential (Fermi level):    -2.61248668eV
  Highest occupied state (VBM) at     -5.98439693 eV
  | Occupation number:      2.00000000

  Lowest unoccupied state (CBM) at    -1.24172732 eV
  | Occupation number:      0.00000000

  Overall HOMO-LUMO gap:      4.74266961 eV.

  Total energy components:
  | Sum of eigenvalues            :        -180.55665617 Ha       -4913.19659520 eV
  | XC energy correction          :         -42.62405223 Ha       -1159.85947409 eV
  | XC potential correction       :          54.80066214 Ha        1491.20188837 eV
  | Free-atom electrostatic energy:        -146.85617317 Ha       -3996.15979437 eV
  | Hartree energy correction     :          -8.26766627 Ha        -224.97464566 eV
  | vdW energy correction         :           0.00000000 Ha           0.00000000 eV
  | Entropy correction            :           0.00000000 Ha           0.00000000 eV
  | ---------------------------
  | Total energy                  :        -323.50388570 Ha       -8802.98862095 eV
  | Total energy, T -> 0          :        -323.50388570 Ha       -8802.98862095 eV  <-- do not rely on this value for anything but (periodic) metals
  | Electronic free energy        :        -323.50388570 Ha       -8802.98862095 eV

  Derived energy quantities:
  | Kinetic energy                :         323.17132695 Ha        8793.93923700 eV
  | Electrostatic energy          :        -604.05116042 Ha      -16437.06838387 eV
  | Energy correction for multipole
  | error in Hartree potential    :           0.03832115 Ha           1.04277167 eV
  | Sum of eigenvalues per atom                           :        -377.93819963 eV
  | Total energy (T->0) per atom                          :        -677.15297084 eV  <-- do not rely on this value for anything but (periodic) metals
  | Electronic free energy per atom                       :        -677.15297084 eV

  Self-consistency convergence accuracy:
  | Change of charge density      :  0.2012E+00
  | Change of sum of eigenvalues  :  0.3479E+02 eV
  | Change of total energy        :  0.3296E+00 eV

  End self-consistency iteration #     3       :  max(cpu_time)    wall_clock(cpu1)
  | Time for this iteration                    :        0.085 s           0.081 s
  | Charge density update                      :        0.028 s           0.024 s
  | Density mixing                             :        0.001 s           0.001 s
  | Hartree multipole update                   :        0.001 s           0.001 s
  | Hartree multipole summation                :        0.022 s           0.023 s
  | Integration                                :        0.028 s           0.027 s
  | Solution of K.-S. eqns.                    :        0.004 s           0.005 s
  | Total energy evaluation                    :        0.000 s           0.000 s

  Partial memory accounting:
  | Current value for overall tracked memory usage on task 0  :           0.134 MB
  | Peak value for overall tracked memory usage on task 0     :           0.853 MB after allocating gradient_basis_wave
  | Largest tracked array allocation on task 0 so far         :           0.539 MB  when allocating gradient_basis_wave
  Note:  These values currently only include a subset of arrays which are explicitly tracked.
  The "true" memory usage will be greater.
------------------------------------------------------------

------------------------------------------------------------
          Begin self-consistency iteration #    4

  Date     :  20200616, Time     :  050956.754
------------------------------------------------------------
  Evaluating new KS density.
  Integration grid: deviation in total charge (<rho> - N_e) =   2.131628E-14
  Pulay mixing of updated and previous charge densities.

  Evaluating partitioned Hartree potential by multipole expansion.
  | Analytical far-field extrapolation by fixed multipoles:
  | Hartree multipole sum: apparent total charge =  -0.335728E-03
  Summing up the Hartree potential.
  Time summed over all CPUs for potential: real work        0.421 s, elapsed        0.437 s
  | RMS charge density error from multipole expansion :   0.255267E-01

  Integrating Hamiltonian matrix: batch-based integration.
  Time summed over all CPUs for integration: real work        0.506 s, elapsed        0.544 s

  Updating Kohn-Sham eigenvalues and eigenvectors using ELSI and the ELPA eigensolver.
  ELPA settings:
  | ELPA solver          1
  Finished transformation to standard eigenproblem
  | Time :     0.000 s
  Starting ELPA eigensolver
  | Time full => tridiagonal    :     0.002 s
  | Time solve tridiagonal      :     0.000 s
  | Time ev tridiagonal => full :     0.000 s
  Finished solving standard eigenproblem
  | Time :     0.003 s
  Finished back-transformation of eigenvectors
  | Time :     0.000 s

  Obtaining occupation numbers and chemical potential using ELSI.
  | Chemical potential (Fermi level):    -2.48810608eV
  Highest occupied state (VBM) at     -5.80657573 eV
  | Occupation number:      2.00000000

  Lowest unoccupied state (CBM) at    -1.15281348 eV
  | Occupation number:      0.00000000

  Overall HOMO-LUMO gap:      4.65376224 eV.

  Total energy components:
  | Sum of eigenvalues            :        -180.39352439 Ha       -4908.75755356 eV
  | XC energy correction          :         -42.66255750 Ha       -1160.90725588 eV
  | XC potential correction       :          54.84919580 Ha        1492.52255642 eV
  | Free-atom electrostatic energy:        -146.85617317 Ha       -3996.15979437 eV
  | Hartree energy correction     :          -8.43999370 Ha        -229.66391368 eV
  | vdW energy correction         :           0.00000000 Ha           0.00000000 eV
  | Entropy correction            :           0.00000000 Ha           0.00000000 eV
  | ---------------------------
  | Total energy                  :        -323.50305296 Ha       -8802.96596107 eV
  | Total energy, T -> 0          :        -323.50305296 Ha       -8802.96596107 eV  <-- do not rely on this value for anything but (periodic) metals
  | Electronic free energy        :        -323.50305296 Ha       -8802.96596107 eV

  Derived energy quantities:
  | Kinetic energy                :         322.79860505 Ha        8783.79695817 eV
  | Electrostatic energy          :        -603.63910052 Ha      -16425.85566336 eV
  | Energy correction for multipole
  | error in Hartree potential    :           0.04269553 Ha           1.16180443 eV
  | Sum of eigenvalues per atom                           :        -377.59673489 eV
  | Total energy (T->0) per atom                          :        -677.15122777 eV  <-- do not rely on this value for anything but (periodic) metals
  | Electronic free energy per atom                       :        -677.15122777 eV

  Self-consistency convergence accuracy:
  | Change of charge density      :  0.6360E-01
  | Change of sum of eigenvalues  :  0.4439E+01 eV
  | Change of total energy        :  0.2266E-01 eV

  End self-consistency iteration #     4       :  max(cpu_time)    wall_clock(cpu1)
  | Time for this iteration                    :        0.091 s           0.083 s
  | Charge density update                      :        0.034 s           0.026 s
  | Density mixing                             :        0.001 s           0.001 s
  | Hartree multipole update                   :        0.001 s           0.001 s
  | Hartree multipole summation                :        0.022 s           0.022 s
  | Integration                                :        0.028 s           0.028 s
  | Solution of K.-S. eqns.                    :        0.004 s           0.004 s
  | Total energy evaluation                    :        0.000 s           0.001 s

  Partial memory accounting:
  | Current value for overall tracked memory usage on task 0  :           0.134 MB
  | Peak value for overall tracked memory usage on task 0     :           0.853 MB after allocating gradient_basis_wave
  | Largest tracked array allocation on task 0 so far         :           0.539 MB  when allocating gradient_basis_wave
  Note:  These values currently only include a subset of arrays which are explicitly tracked.
  The "true" memory usage will be greater.
------------------------------------------------------------

------------------------------------------------------------
          Begin self-consistency iteration #    5

  Date     :  20200616, Time     :  050956.846
------------------------------------------------------------
  Evaluating new KS density.
  Integration grid: deviation in total charge (<rho> - N_e) =  -7.105427E-15
  Pulay mixing of updated and previous charge densities.

  Evaluating partitioned Hartree potential by multipole expansion.
  | Analytical far-field extrapolation by fixed multipoles:
  | Hartree multipole sum: apparent total charge =  -0.329926E-03
  Summing up the Hartree potential.
  Time summed over all CPUs for potential: real work        0.421 s, elapsed        0.437 s
  | RMS charge density error from multipole expansion :   0.252695E-01

  Integrating Hamiltonian matrix: batch-based integration.
  Time summed over all CPUs for integration: real work        0.507 s, elapsed        0.545 s

  Updating Kohn-Sham eigenvalues and eigenvectors using ELSI and the ELPA eigensolver.
  ELPA settings:
  | ELPA solver          1
  Finished transformation to standard eigenproblem
  | Time :     0.000 s
  Starting ELPA eigensolver
  | Time full => tridiagonal    :     0.002 s
  | Time solve tridiagonal      :     0.000 s
  | Time ev tridiagonal => full :     0.000 s
  Finished solving standard eigenproblem
  | Time :     0.003 s
  Finished back-transformation of eigenvectors
  | Time :     0.000 s

  Obtaining occupation numbers and chemical potential using ELSI.
  | Chemical potential (Fermi level):    -2.55517153eV
  Highest occupied state (VBM) at     -5.88538596 eV
  | Occupation number:      2.00000000

  Lowest unoccupied state (CBM) at    -1.23394547 eV
  | Occupation number:      0.00000000

  Overall HOMO-LUMO gap:      4.65144049 eV.

  Total energy components:
  | Sum of eigenvalues            :        -180.57491054 Ha       -4913.69332173 eV
  | XC energy correction          :         -42.64043463 Ha       -1160.30526204 eV
  | XC potential correction       :          54.82051422 Ha        1491.74209103 eV
  | Free-atom electrostatic energy:        -146.85617317 Ha       -3996.15979437 eV
  | Hartree energy correction     :          -8.25175564 Ha        -224.54169564 eV
  | vdW energy correction         :           0.00000000 Ha           0.00000000 eV
  | Entropy correction            :           0.00000000 Ha           0.00000000 eV
  | ---------------------------
  | Total energy                  :        -323.50275976 Ha       -8802.95798276 eV
  | Total energy, T -> 0          :        -323.50275976 Ha       -8802.95798276 eV  <-- do not rely on this value for anything but (periodic) metals
  | Electronic free energy        :        -323.50275976 Ha       -8802.95798276 eV

  Derived energy quantities:
  | Kinetic energy                :         322.70292578 Ha        8781.19339269 eV
  | Electrostatic energy          :        -603.56525091 Ha      -16423.84611340 eV
  | Energy correction for multipole
  | error in Hartree potential    :           0.04208263 Ha           1.14512661 eV
  | Sum of eigenvalues per atom                           :        -377.97640936 eV
  | Total energy (T->0) per atom                          :        -677.15061406 eV  <-- do not rely on this value for anything but (periodic) metals
  | Electronic free energy per atom                       :        -677.15061406 eV

  Self-consistency convergence accuracy:
  | Change of charge density      :  0.2071E-01
  | Change of sum of eigenvalues  : -0.4936E+01 eV
  | Change of total energy        :  0.7978E-02 eV

  End self-consistency iteration #     5       :  max(cpu_time)    wall_clock(cpu1)
  | Time for this iteration                    :        0.087 s           0.081 s
  | Charge density update                      :        0.030 s           0.024 s
  | Density mixing                             :        0.001 s           0.001 s
  | Hartree multipole update                   :        0.001 s           0.001 s
  | Hartree multipole summation                :        0.022 s           0.023 s
  | Integration                                :        0.028 s           0.028 s
  | Solution of K.-S. eqns.                    :        0.004 s           0.004 s
  | Total energy evaluation                    :        0.000 s           0.000 s

  Partial memory accounting:
  | Current value for overall tracked memory usage on task 0  :           0.134 MB
  | Peak value for overall tracked memory usage on task 0     :           0.853 MB after allocating gradient_basis_wave
  | Largest tracked array allocation on task 0 so far         :           0.539 MB  when allocating gradient_basis_wave
  Note:  These values currently only include a subset of arrays which are explicitly tracked.
  The "true" memory usage will be greater.
------------------------------------------------------------

------------------------------------------------------------
          Begin self-consistency iteration #    6

  Date     :  20200616, Time     :  050956.935
------------------------------------------------------------
  Evaluating new KS density.
  Integration grid: deviation in total charge (<rho> - N_e) =   1.421085E-14
  Pulay mixing of updated and previous charge densities.

[...]
  |   Hirshfeld dipole moment :      0.06203999
  |   Hirshfeld second moments:     -0.00968147       0.00375801       0.02180134
  |                                  0.00375801      -0.00826313       0.01271916
  |                                  0.02180134       0.01271916       0.01153094
  ----------------------------------------------------------------------
  | Atom    12: O
  |   Hirshfeld charge        :     -0.14844345
  |   Free atom volume        :     23.61338643
  |   Hirshfeld volume        :     20.83351816
  |   Hirshfeld dipole vector :     -0.04058207       0.00688155       0.02353115
  |   Hirshfeld dipole moment :      0.04741281
  |   Hirshfeld second moments:      0.02951846       0.01385544       0.01271227
  |                                  0.01385544       0.09447788      -0.02013768
  |                                  0.01271227      -0.02013768       0.05297057
  ----------------------------------------------------------------------
  | Atom    13: H
  |   Hirshfeld charge        :      0.16850517
  |   Free atom volume        :      9.95071624
  |   Hirshfeld volume        :      6.45085275
  |   Hirshfeld dipole vector :     -0.03149472      -0.09660351       0.04738763
  |   Hirshfeld dipole moment :      0.11211486
  |   Hirshfeld second moments:      0.08661935       0.00427281       0.02021840
  |                                  0.00427281       0.12129497      -0.00346510
  |                                  0.02021840      -0.00346510       0.10815855
  ----------------------------------------------------------------------


  Total energy components:
  | Sum of eigenvalues            :        -180.59229700 Ha       -4914.16643148 eV
  | XC energy correction          :         -42.63404959 Ha       -1160.13151615 eV
  | XC potential correction       :          54.81230034 Ha        1491.51857991 eV
  | Free-atom electrostatic energy:        -146.85617317 Ha       -3996.15979437 eV
  | Hartree energy correction     :          -8.23246648 Ha        -224.01681072 eV
  | vdW energy correction         :          -0.00340905 Ha          -0.09276488 eV
  | Entropy correction            :           0.00000000 Ha           0.00000000 eV
  | ---------------------------
  | Total energy                  :        -323.50609495 Ha       -8803.04873769 eV
  | Total energy, T -> 0          :        -323.50609495 Ha       -8803.04873769 eV  <-- do not rely on this value for anything but (periodic) metals
  | Electronic free energy        :        -323.50609495 Ha       -8803.04873769 eV

  Derived energy quantities:
  | Kinetic energy                :         322.57144526 Ha        8777.61562571 eV
  | Electrostatic energy          :        -603.44008157 Ha      -16420.44008238 eV
  | Energy correction for multipole
  | error in Hartree potential    :           0.04251376 Ha           1.15685832 eV
  | Sum of eigenvalues per atom                           :        -378.01280242 eV
  | Total energy (T->0) per atom                          :        -677.15759521 eV  <-- do not rely on this value for anything but (periodic) metals
  | Electronic free energy per atom                       :        -677.15759521 eV

  atomic forces [eV/Ang]:
  -----------------------
  atom #    1
   Hellmann-Feynman              :  0.146884E+01  0.666093E+00  0.215422E+01
   Ionic forces                  :  0.000000E+00  0.000000E+00  0.000000E+00
   Multipole                     :  0.585026E-01  0.246823E+00 -0.363346E+00
   Pulay + GGA                   : -0.165672E+01 -0.529293E+00 -0.167772E+01
   Van der Waals                 :  0.147177E-02  0.857261E-03 -0.139913E-02
   ----------------------------------------------------------------
   Total forces(   1)            : -0.127904E+00  0.384480E+00  0.111755E+00
  atom #    2
   Hellmann-Feynman              :  0.220926E+00  0.223887E-01 -0.103653E+00
   Ionic forces                  :  0.000000E+00  0.000000E+00  0.000000E+00
   Multipole                     :  0.194769E+00  0.211274E-01  0.224137E-01
   Pulay + GGA                   : -0.108461E+00  0.181725E-01  0.195140E-01
   Van der Waals                 :  0.223380E-02 -0.559583E-02 -0.206690E-03
   ----------------------------------------------------------------
   Total forces(   2)            :  0.309468E+00  0.560927E-01 -0.619318E-01
  atom #    3
   Hellmann-Feynman              : -0.591401E+01  0.101677E+02 -0.145001E+01
   Ionic forces                  :  0.000000E+00  0.000000E+00  0.000000E+00
   Multipole                     : -0.100951E+00  0.132438E+00 -0.763054E+00
   Pulay + GGA                   :  0.618157E+01 -0.103008E+02  0.274010E+01
   Van der Waals                 :  0.910479E-03 -0.673902E-02 -0.100350E-01
   ----------------------------------------------------------------
   Total forces(   3)            :  0.167521E+00 -0.738200E-02  0.516996E+00
  atom #    4
   Hellmann-Feynman              : -0.581306E-01 -0.357596E+00 -0.140594E+00
   Ionic forces                  :  0.000000E+00  0.000000E+00  0.000000E+00
   Multipole                     :  0.427706E-01 -0.193887E-01 -0.111466E+00
   Pulay + GGA                   : -0.171858E+00  0.899535E-01  0.122598E+00
   Van der Waals                 : -0.231289E-02  0.916340E-03  0.586382E-02
   ----------------------------------------------------------------
   Total forces(   4)            : -0.189531E+00 -0.286115E+00 -0.123599E+00
  atom #    5
   Hellmann-Feynman              : -0.482923E-01 -0.220567E+00 -0.330644E+00
   Ionic forces                  :  0.000000E+00  0.000000E+00  0.000000E+00
   Multipole                     : -0.567884E-01 -0.790999E-01 -0.740097E-01
   Pulay + GGA                   :  0.689549E-01  0.239329E+00  0.247660E-01
   Van der Waals                 : -0.544929E-04  0.194816E-02  0.365957E-02
   ----------------------------------------------------------------
   Total forces(   5)            : -0.361802E-01 -0.583904E-01 -0.376228E+00
  atom #    6
   Hellmann-Feynman              : -0.147166E+00 -0.794771E+00  0.190872E-01
   Ionic forces                  :  0.000000E+00  0.000000E+00  0.000000E+00
   Multipole                     : -0.107314E+00  0.648343E+00  0.232347E+00
   Pulay + GGA                   :  0.308444E+00 -0.347678E+00 -0.259330E+00
   Van der Waals                 :  0.406516E-02  0.357012E-02 -0.228404E-02
   ----------------------------------------------------------------
   Total forces(   6)            :  0.580296E-01 -0.490536E+00 -0.101797E-01
  atom #    7
   Hellmann-Feynman              :  0.141684E+00 -0.121123E-02 -0.203992E+00
   Ionic forces                  :  0.000000E+00  0.000000E+00  0.000000E+00
   Multipole                     :  0.404031E-02  0.130540E+00 -0.100242E-01
   Pulay + GGA                   : -0.550576E-01 -0.965671E-01  0.349415E-01
   Van der Waals                 : -0.230214E-02  0.200720E-02  0.289236E-02
   ----------------------------------------------------------------
   Total forces(   7)            :  0.883645E-01  0.347691E-01 -0.176182E+00
  atom #    8
   Hellmann-Feynman              : -0.183247E+00 -0.410943E-01 -0.154264E-01
   Ionic forces                  :  0.000000E+00  0.000000E+00  0.000000E+00
   Multipole                     : -0.116577E+00  0.411288E-01  0.299035E-01
   Pulay + GGA                   :  0.125993E+00 -0.322825E-01 -0.100347E-02
   Van der Waals                 : -0.305308E-02  0.114227E-01  0.807447E-03
   ----------------------------------------------------------------
   Total forces(   8)            : -0.176884E+00 -0.208253E-01  0.142811E-01
  atom #    9
   Hellmann-Feynman              :  0.882565E-01 -0.386609E-01  0.213081E+00
   Ionic forces                  :  0.000000E+00  0.000000E+00  0.000000E+00
   Multipole                     :  0.209977E-01  0.668795E-01  0.120163E+00
   Pulay + GGA                   : -0.652812E-01  0.145472E-02 -0.765267E-01
   Van der Waals                 : -0.194535E-02  0.516980E-02  0.204140E-02
   ----------------------------------------------------------------
   Total forces(   9)            :  0.420277E-01  0.348431E-01  0.258759E+00
  atom #   10
   Hellmann-Feynman              : -0.155926E+01  0.614382E+01 -0.127010E+01
   Ionic forces                  :  0.000000E+00  0.000000E+00  0.000000E+00
   Multipole                     : -0.154000E+00 -0.173650E+00  0.282004E+00
   Pulay + GGA                   :  0.895889E+00 -0.339361E+01  0.735255E+00
   Van der Waals                 :  0.272854E-02 -0.130415E-01  0.120157E-02
   ----------------------------------------------------------------
   Total forces(  10)            : -0.814641E+00  0.256352E+01 -0.251637E+00
  atom #   11
   Hellmann-Feynman              : -0.125378E+02 -0.888837E+00  0.844688E+01
   Ionic forces                  :  0.000000E+00  0.000000E+00  0.000000E+00
   Multipole                     : -0.608122E+00 -0.334084E+00  0.645560E+00
   Pulay + GGA                   :  0.114582E+02  0.168498E+01 -0.830706E+01
   Van der Waals                 :  0.202917E-03 -0.999491E-02  0.120973E-03
   ----------------------------------------------------------------
   Total forces(  11)            : -0.168750E+01  0.452068E+00  0.785505E+00
  atom #   12
   Hellmann-Feynman              :  0.138378E+02 -0.147103E+01 -0.780270E+01
   Ionic forces                  :  0.000000E+00  0.000000E+00  0.000000E+00
   Multipole                     :  0.107352E+01 -0.103769E+01 -0.241299E+00
   Pulay + GGA                   : -0.127013E+02  0.794108E+00  0.706193E+01
   Van der Waals                 : -0.221996E-02  0.387362E-02  0.525398E-03
   ----------------------------------------------------------------
   Total forces(  12)            :  0.220783E+01 -0.171074E+01 -0.981542E+00
  atom #   13
   Hellmann-Feynman              :  0.676893E-01 -0.118083E+01  0.401033E+00
   Ionic forces                  :  0.000000E+00  0.000000E+00  0.000000E+00
   Multipole                     : -0.767810E-01 -0.614160E-01  0.685435E-01
   Pulay + GGA                   :  0.164840E+00  0.278807E+00 -0.172703E+00
   Van der Waals                 :  0.275253E-03  0.560599E-02 -0.318767E-02
   ----------------------------------------------------------------
   Total forces(  13)            :  0.156024E+00 -0.957831E+00  0.293685E+00

  Timings for VdW correction (Tkatchenko-Scheffler 2009 or later):
  | CPU time:        0.014 s, Wall clock time:        0.011 s.
  Removing unitary transformations (pure translations, rotations) from forces on atoms.
  Atomic forces before filtering:
  | Net force on center of mass :  -0.336900E-02 -0.604501E-02 -0.318280E-03 eV/A
  | Net torque on center of mass:  -0.460392E-02 -0.352182E-02 -0.124181E-01 eV
  Atomic forces after filtering:
  | Net force on center of mass :   0.334511E-15 -0.713624E-15  0.892031E-16 eV/A
  | Net torque on center of mass:  -0.132172E-14 -0.826074E-15 -0.151054E-14 eV

  Energy and forces in a compact form:
  | Total energy uncorrected      :         -0.880304873769256E+04 eV
  | Total energy corrected        :         -0.880304873769256E+04 eV  <-- do not rely on this value for anything but (periodic) metals
  | Electronic free energy        :         -0.880304873769256E+04 eV
  Total atomic forces (unitary forces cleaned) [eV/Ang]:
  |   1         -0.127747312933758E+00          0.385070603512619E+00          0.111759510391730E+00
  |   2          0.309625007117008E+00          0.570756592771514E-01         -0.620694230476311E-01
  |   3          0.167494681315209E+00         -0.683806108834072E-02          0.517062197498181E+00
  |   4         -0.189610063702791E+00         -0.285226227825370E+00         -0.123643787399922E+00
  |   5         -0.359391064776667E-01         -0.580580426637463E-01         -0.376150766610689E+00
  |   6          0.578281559116379E-01         -0.490188227078676E+00         -0.999887267322982E-02
  |   7          0.877701291401686E-01          0.352738566249566E-01         -0.175960605417514E+00
  |   8         -0.177073108740517E+00         -0.208753886558601E-01          0.146027905226341E-01
  |   9          0.419399745028056E-01          0.352517377319498E-01          0.258889699897215E+00
  |  10         -0.813924573049177E+00          0.256390144049066E+01         -0.251696067542803E+00
  |  11         -0.168663986454742E+01          0.452038375500750E+00          0.785559919752590E+00
  |  12          0.220889182005809E+01         -0.171005279333963E+01         -0.981794662474554E+00
  |  13          0.157384261406416E+00         -0.957372932486469E+00          0.293440067103993E+00

  ------------------------------------ 
  Start decomposition of the XC Energy 
  ------------------------------------ 
  X and C from original XC functional choice 
  Hartree-Fock Energy :          0.000000000 Ha              0.000000000 eV
  X Energy            :        -41.034726812 Ha          -1116.611729145 eV
  C Energy            :         -1.599322776 Ha            -43.519787003 eV
  Total XC Energy     :        -42.634049589 Ha          -1160.131516148 eV
  ------------------------------------ 
  LDA X and C from self-consistent density 
  X Energy LDA        :        -37.251914049 Ha          -1013.676156552 eV
  C Energy LDA        :         -3.138142717 Ha            -85.393208083 eV
  ------------------------------------ 
  End decomposition of the XC Energy 
  ------------------------------------ 

------------------------------------------------------------

------------------------------------------------------------------------------
  Final output of selected total energy values:

  The following output summarizes some interesting total energy values
  at the end of a run (AFTER all relaxation, molecular dynamics, etc.).

  | Total energy of the DFT / Hartree-Fock s.c.f. calculation      :          -8803.048737693 eV
  | Final zero-broadening corrected energy (caution - metals only) :          -8803.048737693 eV
  | For reference only, the value of 1 Hartree used in FHI-aims is :             27.211384500 eV

  Before relying on these values, please be sure to understand exactly which
  total energy value is referred to by a given number. Different objects may
  all carry the same name 'total energy'. Definitions:

  Total energy of the DFT / Hartree-Fock s.c.f. calculation:
  | Note that this energy does not include ANY quantities calculated after the
  | s.c.f. cycle, in particular not ANY RPA, MP2, etc. many-body perturbation terms.

  Final zero-broadening corrected energy:
  | For metallic systems only, a broadening of the occupation numbers at the Fermi
  | level can be extrapolated back to zero broadening by an electron-gas inspired
  | formula. For all systems that are not real metals, this value can be
  | meaningless and should be avoided.

------------------------------------------------------------------------------
  Methods described in the following list of references were used in this FHI-aims run.
  If you publish the results, please make sure to cite these reference if they apply.
  FHI-aims is an academic code, and for our developers (often, Ph.D. students
  and postdocs), scientific credit in the community is essential.
  Thank you for helping us!

  For any use of FHI-aims, please cite:

    Volker Blum, Ralf Gehrke, Felix Hanke, Paula Havu, Ville Havu,
    Xinguo Ren, Karsten Reuter, and Matthias Scheffler
    'Ab initio molecular simulations with numeric atom-centered orbitals'
    Computer Physics Communications 180, 2175-2196 (2009)
    http://dx.doi.org/10.1016/j.cpc.2009.06.022


  The scalable eigensolver library ELPA was used in your run.
  ELPA is essential especially for large systems on hundreds or thousands of CPUs.
  For ELPA, please cite:

    Andreas Marek, Volker Blum, Rainer Johanni, Ville Havu, Bruno Lang,
    Thomas Auckenthaler, Alexander Heinecke, Hans-Joachim Bungartz, and Hermann Lederer,
    'The ELPA Library - Scalable Parallel Eigenvalue Solutions
    for Electronic Structure Theory and Computational Science'
    The Journal of Physics: Condensed Matter 26, 213201 (2014).
    http://dx.doi.org/10.1088/0953-8984/26/21/213201


  The ELSI infrastructure was used in your run to solve the Kohn-Sham electronic structure.
  Please check out http://elsi-interchange.org to learn more.
  If scalability is important for your project, please acknowledge ELSI by citing:

    V. W-z. Yu, F. Corsetti, A. Garcia, W. P. Huhn, M. Jacquelin, W. Jia,
    B. Lange, L. Lin, J. Lu, W. Mi, A. Seifitokaldani, A. Vazquez-Mayagoitia,
    C. Yang, H. Yang, and V. Blum
    'ELSI: A unified software interface for Kohn-Sham electronic structure solvers'
    Computer Physics Communications 222, 267-285 (2018).
    http://dx.doi.org/10.1016/j.cpc.2017.09.007


  For the real-space grid partitioning and parallelization used in this calculation, please cite:

    Ville Havu, Volker Blum, Paula Havu, and Matthias Scheffler,
    'Efficient O(N) integration for all-electron electronic structure calculation'
    'using numerically tabulated basis functions'
    Journal of Computational Physics 228, 8367-8379 (2009).
    http://dx.doi.org/10.1016/j.jcp.2009.08.008

  Of course, there are many other important community references, e.g., those cited in the
  above references. Our list is limited to references that describe implementations in the
  FHI-aims code. The reason is purely practical (length of this list) - please credit others as well.

------------------------------------------------------------
          Leaving FHI-aims.
          Date     :  20200616, Time     :  050958.082

          Computational steps:
          | Number of self-consistency cycles          :           16
          | Number of SCF (re)initializations          :            1

          Detailed time accounting                     :  max(cpu_time)    wall_clock(cpu1)
          | Total time                                 :        1.831 s           1.908 s
          | Preparation time                           :        0.168 s           0.168 s
          | Boundary condition initalization           :        0.000 s           0.000 s
          | Grid partitioning                          :        0.021 s           0.021 s
          | Preloading free-atom quantities on grid    :        0.002 s           0.002 s
          | Free-atom superposition energy             :        0.005 s           0.005 s
          | Total time for integrations                :        0.483 s           0.483 s
          | Total time for solution of K.-S. equations :        0.077 s           0.079 s
          | Total time for density & force components  :        0.526 s           0.439 s
          | Total time for mixing                      :        0.018 s           0.017 s
          | Total time for Hartree multipole update    :        0.020 s           0.018 s
          | Total time for Hartree multipole sum       :        0.437 s           0.441 s
          | Total time for total energy evaluation     :        0.003 s           0.005 s
          | Total time for vdW correction              :        0.014 s           0.011 s

          Partial memory accounting:
          | Residual value for overall tracked memory usage across tasks :           0.000 MB (should be 0.000 MB)
          | Peak values for overall tracked memory usage (after allocating hessian_basis_wave):
          |   Minimum:        2.102 MB (on task 18)
          |   Maximum:        2.145 MB (on task  3)
          |   Average:        2.120 MB
          | Largest tracked array allocation (hessian_basis_wave):
          |   Minimum:        1.078 MB (on task  1)
          |   Maximum:        1.097 MB (on task  3)
          |   Average:        1.087 MB
          Note:  These values currently only include a subset of arrays which are explicitly tracked.
          The "true" memory usage will be greater.

          Have a nice day.
------------------------------------------------------------
