  MPI-parallelism will be employed.
------------------------------------------------------------
          Invoking FHI-aims ...
          Version 171221_1
          Compiled on 2019/09/09 at 14:39:39 on host puhti-login2.bullx.

          When using FHI-aims, please cite the following reference:

          Volker Blum, Ralf Gehrke, Felix Hanke, Paula Havu,
          Ville Havu, Xinguo Ren, Karsten Reuter, and Matthias Scheffler,
          'Ab Initio Molecular Simulations with Numeric Atom-Centered Orbitals',
          Computer Physics Communications 180, 2175-2196 (2009)

          For any questions about FHI-aims, please visit the aimsclub website
          with its forums and wiki. Contributions to both the forums and the
          wiki are warmly encouraged - they are for you, and everyone is welcome there.

------------------------------------------------------------



  Date     :  20200815, Time     :  004710.373
  Time zero on CPU 1             :   0.123420000000000E-01  s.
  Internal wall clock time zero  :           366684430.373  s.

  FHI-aims created a unique identifier for this run for later identification
  aims_uuid : DA3424D2-EDE5-4AE7-AFB8-57D99C3DCFA1

  Using        1 parallel tasks.
  Task        0 on host r18c47.bullx reporting.

  Performing system and environment tests:
  | Environment variable OMP_NUM_THREADS correctly set to 1.
  | Stacksize not measured: no C compiler
  | Checking for scalapack...
  | Testing pdtran()...
  | All pdtran() tests passed.

  Obtaining array dimensions for all initial allocations:
  
  -----------------------------------------------------------------------
  Parsing control.in (first pass over file, find array dimensions only).
  The contents of control.in will be repeated verbatim below
  unless switched off by setting 'verbatim_writeout .false.' .
  in the first line of control.in .
  -----------------------------------------------------------------------
  
  #########################################################################################
  #
  #  Volker Blum, FHI 2009 : Test run input file control.in for simple H2O
  #
  #########################################################################################
  #
  #  Physical model
  #
    xc                 pbe
    vdw_correction_hirshfeld
    spin               none
    relativistic       none
    charge             0.
  #
  #  SCF convergence
  #
    occupation_type    gaussian 0.01
    mixer              pulay
      n_max_pulay        10
      charge_mix_param   0.2
    sc_accuracy_rho    1E-5
    sc_accuracy_eev    1E-3
    sc_accuracy_etot   1E-6
    sc_accuracy_forces 1E-4
    sc_iter_limit      100
  #
  #  Relaxation
  #
  #  relax_geometry   bfgs 1.e-3
  #
  ################################################################################
  #
  #  FHI-aims code project
  #  VB, Fritz-Haber Institut, 2009
  #
  #  Suggested "light" defaults for H atom (to be pasted into control.in file)
  #  Be sure to double-check any results obtained with these settings for post-processing,
  #  e.g., with the "tight" defaults and larger basis sets.
  #
  ################################################################################
    species        H
  #     global species definitions
      nucleus             1
      mass                1.00794
  #
      l_hartree           4
  #
      cut_pot             3.5  1.5  1.0
      basis_dep_cutoff    1e-4
  #
      radial_base         24 5.0
      radial_multiplier   1
      angular_grids       specified
        division   0.2421   50
        division   0.3822  110
        division   0.4799  194
        division   0.5341  302
  #      division   0.5626  434
  #      division   0.5922  590
  #      division   0.6542  770
  #      division   0.6868 1202
  #      outer_grid  770
        outer_grid  302
  ################################################################################
  #
  #  Definition of "minimal" basis
  #
  ################################################################################
  #     valence basis states
      valence      1  s   1.
  #     ion occupancy
      ion_occ      1  s   0.5
  ################################################################################
  #
  #  Suggested additional basis functions. For production calculations,
  #  uncomment them one after another (the most important basis functions are
  #  listed first).
  #
  #  Basis constructed for dimers: 0.5 A, 0.7 A, 1.0 A, 1.5 A, 2.5 A
  #
  ################################################################################
  #  "First tier" - improvements: -1014.90 meV to -62.69 meV
       hydro 2 s 2.1
       hydro 2 p 3.5
  #  "Second tier" - improvements: -12.89 meV to -1.83 meV
  #     hydro 1 s 0.85
  #     hydro 2 p 3.7
  #     hydro 2 s 1.2
  #     hydro 3 d 7
  #  "Third tier" - improvements: -0.25 meV to -0.12 meV
  #     hydro 4 f 11.2
  #     hydro 3 p 4.8
  #     hydro 4 d 9
  #     hydro 3 s 3.2
  ################################################################################
  #
  #  FHI-aims code project
  #  VB, Fritz-Haber Institut, 2009
  #
  #  Suggested "light" defaults for C atom (to be pasted into control.in file)
  #  Be sure to double-check any results obtained with these settings for post-processing,
  #  e.g., with the "tight" defaults and larger basis sets.
  #
  ################################################################################
    species        C
  #     global species definitions
      nucleus             6
      mass                12.0107
  #
      l_hartree           4
  #
      cut_pot             3.5  1.5  1.0
      basis_dep_cutoff    1e-4
  #
      radial_base         34 5.0
      radial_multiplier   1
      angular_grids specified
        division   0.3326   50
        division   0.5710  110
        division   0.7727  194
        division   0.8772  302
  #      division   0.9334  434
  #      division   0.9625  590
  #      division   0.9924  770
  #      division   1.0230  974
  #      division   1.4589 1202
  #     outer_grid  974
       outer_grid 302
  ################################################################################
  #
  #  Definition of "minimal" basis
  #
  ################################################################################
  #     valence basis states
      valence      2  s   2.
      valence      2  p   2.
  #     ion occupancy
      ion_occ      2  s   1.
      ion_occ      2  p   1.
  ################################################################################
  #
  #  Suggested additional basis functions. For production calculations,
  #  uncomment them one after another (the most important basis functions are
  #  listed first).
  #
  #  Constructed for dimers: 1.0 A, 1.25 A, 1.5 A, 2.0 A, 3.0 A
  #
  ################################################################################
  #  "First tier" - improvements: -1214.57 meV to -155.61 meV
       hydro 2 p 1.7
       hydro 3 d 6
       hydro 2 s 4.9
  #  "Second tier" - improvements: -67.75 meV to -5.23 meV
  #     hydro 4 f 9.8
  #     hydro 3 p 5.2
  #     hydro 3 s 4.3
  #     hydro 5 g 14.4
  #     hydro 3 d 6.2
  #  "Third tier" - improvements: -2.43 meV to -0.60 meV
  #     hydro 2 p 5.6
  #     hydro 2 s 1.4
  #     hydro 3 d 4.9
  #     hydro 4 f 11.2
  #  "Fourth tier" - improvements: -0.39 meV to -0.18 meV
  #     hydro 2 p 2.1
  #     hydro 5 g 16.4
  #     hydro 4 d 13.2
  #     hydro 3 s 13.6
  #     hydro 4 f 17.6
  #  Further basis functions - improvements: -0.08 meV and below
  #     hydro 3 s 2
  #     hydro 3 p 6
  #     hydro 4 d 20
  ################################################################################
  #
  #  FHI-aims code project
  #  VB, Fritz-Haber Institut, 2009
  #
  #  Suggested "light" defaults for N atom (to be pasted into control.in file)
  #  Be sure to double-check any results obtained with these settings for post-processing,
  #  e.g., with the "tight" defaults and larger basis sets.
  #
  ################################################################################
    species        N
  #     global species definitions
      nucleus             7
      mass                14.0067
  #
      l_hartree           4
  #
      cut_pot             3.5  1.5  1.0
      basis_dep_cutoff    1e-4
  #
      radial_base         35 5.0
      radial_multiplier   1
      angular_grids       specified
        division   0.2599   50
        division   0.4601  110
        division   0.5885  194
        division   0.6503  302
  #      division   0.6939  434
  #      division   0.7396  590
  #      division   0.7632  770
  #      division   0.8122  974
  #      division   1.1604 1202
  #      outer_grid  974
        outer_grid  302
  ################################################################################
  #
  #  Definition of "minimal" basis
  #
  ################################################################################
  #     valence basis states
      valence      2  s   2.
      valence      2  p   3.
  #     ion occupancy
      ion_occ      2  s   1.
      ion_occ      2  p   2.
  ################################################################################
  #
  #  Suggested additional basis functions. For production calculations,
  #  uncomment them one after another (the most important basis functions are
  #  listed first).
  #
  #  Constructed for dimers: 1.0 A, 1.1 A, 1.5 A, 2.0 A, 3.0 A
  #
  ################################################################################
  #  "First tier" - improvements: -1193.42 meV to -220.60 meV
       hydro 2 p 1.8
       hydro 3 d 6.8
       hydro 3 s 5.8
  #  "Second tier" - improvements: -80.21 meV to -6.86 meV
  #     hydro 4 f 10.8
  #     hydro 3 p 5.8
  #     hydro 1 s 0.8
  #     hydro 5 g 16
  #     hydro 3 d 4.9
  #  "Third tier" - improvements: -4.29 meV to -0.53 meV
  #     hydro 3 s 16
  #     ionic 2 p auto
  #     hydro 3 d 6.6
  #     hydro 4 f 11.6
  #  "Fourth tier" - improvements: -0.75 meV to -0.25 meV
  #     hydro 2 p 4.5
  #     hydro 2 s 2.4
  #     hydro 5 g 14.4
  #     hydro 4 d 14.4
  #     hydro 4 f 16.8
  # Further basis functions - -0.21 meV and below
  #     hydro 3 p 14.8
  #     hydro 3 s 4.4
  #     hydro 3 d 19.6
  #     hydro 5 g 12.8
  ################################################################################
  #
  #  FHI-aims code project
  #  VB, Fritz-Haber Institut, 2009
  #
  #  Suggested "light" defaults for O atom (to be pasted into control.in file)
  #  Be sure to double-check any results obtained with these settings for post-processing,
  #  e.g., with the "tight" defaults and larger basis sets.
  #
  ################################################################################
    species        O
  #     global species definitions
      nucleus             8
      mass                15.9994
  #
      l_hartree           4
  #
      cut_pot             3.5  1.5  1.0
      basis_dep_cutoff    1e-4
  #
      radial_base         36 5.0
      radial_multiplier   1
       angular_grids specified
        division   0.2659   50
        division   0.4451  110
        division   0.6052  194
        division   0.7543  302
  #      division   0.8014  434
  #      division   0.8507  590
  #      division   0.8762  770
  #      division   0.9023  974
  #      division   1.2339 1202
  #      outer_grid 974
        outer_grid 302
  ################################################################################
  #
  #  Definition of "minimal" basis
  #
  ################################################################################
  #     valence basis states
      valence      2  s   2.
      valence      2  p   4.
  #     ion occupancy
      ion_occ      2  s   1.
      ion_occ      2  p   3.
  ################################################################################
  #
  #  Suggested additional basis functions. For production calculations,
  #  uncomment them one after another (the most important basis functions are
  #  listed first).
  #
  #  Constructed for dimers: 1.0 A, 1.208 A, 1.5 A, 2.0 A, 3.0 A
  #
  ################################################################################
  #  "First tier" - improvements: -699.05 meV to -159.38 meV
       hydro 2 p 1.8
       hydro 3 d 7.6
       hydro 3 s 6.4
  #  "Second tier" - improvements: -49.91 meV to -5.39 meV
  #     hydro 4 f 11.6
  #     hydro 3 p 6.2
  #     hydro 3 d 5.6
  #     hydro 5 g 17.6
  #     hydro 1 s 0.75
  #  "Third tier" - improvements: -2.83 meV to -0.50 meV
  #     ionic 2 p auto
  #     hydro 4 f 10.8
  #     hydro 4 d 4.7
  #     hydro 2 s 6.8
  #  "Fourth tier" - improvements: -0.40 meV to -0.12 meV
  #     hydro 3 p 5
  #     hydro 3 s 3.3
  #     hydro 5 g 15.6
  #     hydro 4 f 17.6
  #     hydro 4 d 14
  # Further basis functions - -0.08 meV and below
  #     hydro 3 s 2.1
  #     hydro 4 d 11.6
  #     hydro 3 p 16
  #     hydro 2 s 17.2
  
  -----------------------------------------------------------------------
  Completed first pass over input file control.in .
  -----------------------------------------------------------------------
  
  
  -----------------------------------------------------------------------
  Parsing geometry.in (first pass over file, find array dimensions only).
  The contents of geometry.in will be repeated verbatim below
  unless switched off by setting 'verbatim_writeout .false.' .
  in the first line of geometry.in .
  -----------------------------------------------------------------------
  
  atom  0.00000 0.00000 0.00000 C
  atom  1.09300 0.00000 0.00000 H
  atom  -0.47961 0.00000 -1.41207 N
  atom  0.32427 0.11449 -2.03054 H
  atom  -0.94430 -0.88605 -1.59944 H
  atom  -0.49584 1.26211 0.72868 C
  atom  -1.58789 1.28919 0.74431 H
  atom  -0.13407 1.27425 1.75947 H
  atom  -0.13407 2.16087 0.22380 H
  atom  -0.39425 -1.28861 0.74398 C
  atom  -0.10189 -1.56493 1.88303 O
  atom  -1.10210 -2.13717 0.06896 O
  atom  -0.71289 -2.95645 0.41864 H
  
  -----------------------------------------------------------------------
  Completed first pass over input file geometry.in .
  -----------------------------------------------------------------------
  

  Basic array size parameters:
  | Number of species                 :        4
  | Number of atoms                   :       13
  | Max. basis fn. angular momentum   :        2
  | Max. atomic/ionic basis occupied n:        2
  | Max. number of basis fn. types    :        2
  | Max. radial fns per species/type  :        3
  | Max. logarithmic grid size        :     1301
  | Max. radial integration grid size :       36
  | Max. angular integration grid size:      302
  | Max. angular grid division number :        8
  | Radial grid for Hartree potential :     1301
  | Number of spin channels           :        1

------------------------------------------------------------
          Reading file control.in.
------------------------------------------------------------
  XC: Using PBE gradient-corrected functionals.
  Spin treatment: No spin polarisation.
  Non-relativistic treatment of kinetic energy.
  Charge =   0.000000E+00: Neutral system requested explicitly.
  Occupation type: Gaussian broadening, width =   0.100000E-01 eV.
  Using pulay charge density mixing.
  Pulay mixing - number of memorized iterations:   10
  Charge density mixing - mixing parameter:     0.2000
  Convergence accuracy of self-consistent charge density:  0.1000E-04
  Convergence accuracy of sum of eigenvalues:  0.1000E-02
  Convergence accuracy of total energy:  0.1000E-05
  Convergence accuracy of forces:  0.1000E-03
  Maximum number of s.-c. iterations  :   100
 
  Reading configuration options for species H                   .
  | Found nuclear charge :   1.0000
  | Found atomic mass :    1.00794000000000      amu
  | Found l_max for Hartree potential  :   4
  | Found cutoff potl. onset [A], width [A], scale factor :    3.50000    1.50000    1.00000
  | Threshold for basis-dependent cutoff potential is   0.100000E-03
  | Found data for basic radial integration grid :    24 points, outermost radius =    5.000 A
  | Found multiplier for basic radial grid :   1
  | Found angular grid specification: user-specified.
  | Specified grid contains     5 separate shells.
  | Check grid settings after all constraints further below.
  | Found free-atom valence shell :  1 s   1.000
  | No ionic wave fns used. Skipping ion_occ.
  | Found hydrogenic basis function :  2 s   2.100
  | Found hydrogenic basis function :  2 p   3.500
  Species H                   : Missing cutoff potential type.
  Defaulting to exp(1/x)/(1-x)^2 type cutoff potential.
  Species H : No 'logarithmic' tag. Using default grid for free atom:
  | Default logarithmic grid data [bohr] : 0.1000E-03 0.1000E+03 0.1012E+01
  Species H : On-site basis accuracy parameter (for Gram-Schmidt orthonormalisation) not specified.
  Using default value basis_acc =  0.1000000E-03.
  Species H                   : Using default innermost maximum threshold i_radial=  2 for radial functions.
  Species H                   : Default cutoff onset for free atom density etc. : 0.35000000E+01 AA.
  Species H                   : Basic radial grid will be enhanced according to radial_multiplier =   1, to contain    24 grid points.
 
  Reading configuration options for species C                   .
  | Found nuclear charge :   6.0000
  | Found atomic mass :    12.0107000000000      amu
  | Found l_max for Hartree potential  :   4
  | Found cutoff potl. onset [A], width [A], scale factor :    3.50000    1.50000    1.00000
  | Threshold for basis-dependent cutoff potential is   0.100000E-03
  | Found data for basic radial integration grid :    34 points, outermost radius =    5.000 A
  | Found multiplier for basic radial grid :   1
  | Found angular grid specification: user-specified.
  | Specified grid contains     5 separate shells.
  | Check grid settings after all constraints further below.
  | Found free-atom valence shell :  2 s   2.000
  | Found free-atom valence shell :  2 p   2.000
  | No ionic wave fns used. Skipping ion_occ.
  | No ionic wave fns used. Skipping ion_occ.
  | Found hydrogenic basis function :  2 p   1.700
  | Found hydrogenic basis function :  3 d   6.000
  | Found hydrogenic basis function :  2 s   4.900
  Species C                   : Missing cutoff potential type.
  Defaulting to exp(1/x)/(1-x)^2 type cutoff potential.
  Species C : No 'logarithmic' tag. Using default grid for free atom:
  | Default logarithmic grid data [bohr] : 0.1000E-03 0.1000E+03 0.1012E+01
  Species C : On-site basis accuracy parameter (for Gram-Schmidt orthonormalisation) not specified.
  Using default value basis_acc =  0.1000000E-03.
  Species C                   : Using default innermost maximum threshold i_radial=  2 for radial functions.
  Species C                   : Default cutoff onset for free atom density etc. : 0.35000000E+01 AA.
  Species C                   : Basic radial grid will be enhanced according to radial_multiplier =   1, to contain    34 grid points.
 
  Reading configuration options for species N                   .
  | Found nuclear charge :   7.0000
  | Found atomic mass :    14.0067000000000      amu
  | Found l_max for Hartree potential  :   4
  | Found cutoff potl. onset [A], width [A], scale factor :    3.50000    1.50000    1.00000
  | Threshold for basis-dependent cutoff potential is   0.100000E-03
  | Found data for basic radial integration grid :    35 points, outermost radius =    5.000 A
  | Found multiplier for basic radial grid :   1
  | Found angular grid specification: user-specified.
  | Specified grid contains     5 separate shells.
  | Check grid settings after all constraints further below.
  | Found free-atom valence shell :  2 s   2.000
  | Found free-atom valence shell :  2 p   3.000
  | No ionic wave fns used. Skipping ion_occ.
  | No ionic wave fns used. Skipping ion_occ.
  | Found hydrogenic basis function :  2 p   1.800
  | Found hydrogenic basis function :  3 d   6.800
  | Found hydrogenic basis function :  3 s   5.800
  Species N                   : Missing cutoff potential type.
  Defaulting to exp(1/x)/(1-x)^2 type cutoff potential.
  Species N : No 'logarithmic' tag. Using default grid for free atom:
  | Default logarithmic grid data [bohr] : 0.1000E-03 0.1000E+03 0.1012E+01
  Species N : On-site basis accuracy parameter (for Gram-Schmidt orthonormalisation) not specified.
  Using default value basis_acc =  0.1000000E-03.
  Species N                   : Using default innermost maximum threshold i_radial=  2 for radial functions.
  Species N                   : Default cutoff onset for free atom density etc. : 0.35000000E+01 AA.
  Species N                   : Basic radial grid will be enhanced according to radial_multiplier =   1, to contain    35 grid points.
 
  Reading configuration options for species O                   .
  | Found nuclear charge :   8.0000
  | Found atomic mass :    15.9994000000000      amu
  | Found l_max for Hartree potential  :   4
  | Found cutoff potl. onset [A], width [A], scale factor :    3.50000    1.50000    1.00000
  | Threshold for basis-dependent cutoff potential is   0.100000E-03
  | Found data for basic radial integration grid :    36 points, outermost radius =    5.000 A
  | Found multiplier for basic radial grid :   1
  | Found angular grid specification: user-specified.
  | Specified grid contains     5 separate shells.
  | Check grid settings after all constraints further below.
  | Found free-atom valence shell :  2 s   2.000
  | Found free-atom valence shell :  2 p   4.000
  | No ionic wave fns used. Skipping ion_occ.
  | No ionic wave fns used. Skipping ion_occ.
  | Found hydrogenic basis function :  2 p   1.800
  | Found hydrogenic basis function :  3 d   7.600
  | Found hydrogenic basis function :  3 s   6.400
  Species O                   : Missing cutoff potential type.
  Defaulting to exp(1/x)/(1-x)^2 type cutoff potential.
  Species O : No 'logarithmic' tag. Using default grid for free atom:
  | Default logarithmic grid data [bohr] : 0.1000E-03 0.1000E+03 0.1012E+01
  Species O : On-site basis accuracy parameter (for Gram-Schmidt orthonormalisation) not specified.
  Using default value basis_acc =  0.1000000E-03.
  Species O                   : Using default innermost maximum threshold i_radial=  2 for radial functions.
  Species O                   : Default cutoff onset for free atom density etc. : 0.35000000E+01 AA.
  Species O                   : Basic radial grid will be enhanced according to radial_multiplier =   1, to contain    36 grid points.
 
  Finished reading input file 'control.in'. Consistency checks are next.
 
  MPI_IN_PLACE appears to work with this MPI implementation.
  | Keeping use_mpi_in_place .true. (see manual).
  Target number of points in a grid batch is not set. Defaulting to  100
  Method for grid partitioning is not set. Defaulting to parallel hash+maxmin partitioning.
  Batch size limit is not set. Defaulting to    200
  By default, will store active basis functions for each batch.
  If in need of memory, prune_basis_once .false. can be used to disable this option.
  communication_type for Hartree potential was not specified.
  Defaulting to calc_hartree .
  Pulay mixer: Number of initial linear mixing iterations not set.
  Defaulting to    0 iterations.
  Work space size for distributed Hartree potential not set.
  Defaulting to   0.200000E+03 MB.
  Algorithm-dependent basis array size parameters:
  | n_max_pulay                         :       10
  Presetting      1001 iterations before the initial mixing cycle
  is restarted anyway using the sc_init_iter criterion / keyword.
  Presetting a factor      1.000 between actual scf density residual
  and density convergence criterion sc_accuracy_rho below which sc_init_iter
  takes no effect.
  Geometry relaxation not requested: no relaxation will be performed.
  Handling of forces: Unphysical translation and rotation will be removed from forces.
  No accuracy limit for integral partition fn. given. Defaulting to  0.1000E-14.
  No threshold value for u(r) in integrations given. Defaulting to  0.1000E-05.
  No accuracy for occupation numbers given. Defaulting to  0.1000E-12.
  No threshold value for occupation numbers given. Defaulting to  0.0000E+00.
  No accuracy for fermi level given. Defaulting to  0.1000E-19.
  Maximum # of iterations to find E_F not set. Defaulting to  200.
  Preferred method for the eigenvalue solver ('KS_method') not specified in 'control.in'.
  Defaulting to serial version, 'lapack_fast'.
  Will not use alltoall communication since running on < 1024 CPUs.
  Threshold for basis singularities not set.
  Default threshold for basis singularities:  0.1000E-04
  partition_type (choice of integration weights) for integrals was not specified.
  | Using a version of the partition function of Stratmann and coworkers ('stratmann_smoother').
  | At each grid point, the set of atoms used to build the partition table is smoothly restricted to
  | only those atoms whose free-atom density would be non-zero at that grid point.
  Partitioning for Hartree potential was not defined. Using partition_type for integrals.
  | Adjusted default value of keyword multip_moments_threshold to:       0.10000000E-11
  | This value may affect high angular momentum components of the Hartree potential in periodic systems.
  No q(lm)/r^(l+1) cutoff set for long-range Hartree potential.
  | Using default value of  0.100000E-09 .
  | Verify using the multipole_threshold keyword.
  Defaulting to new monopole extrapolation.
  Density update method: automatic selection selected.
------------------------------------------------------------


------------------------------------------------------------
          Reading geometry description geometry.in.
------------------------------------------------------------
  Input structure read successfully.
  The structure contains       13 atoms,  and a total of         48.000 electrons.

  Input geometry:
  | No unit cell requested.
  | Atomic structure:
  |       Atom                x [A]            y [A]            z [A]
  |    1: Species C             0.00000000        0.00000000        0.00000000
  |    2: Species H             1.09300000        0.00000000        0.00000000
  |    3: Species N            -0.47961000        0.00000000       -1.41207000
  |    4: Species H             0.32427000        0.11449000       -2.03054000
  |    5: Species H            -0.94430000       -0.88605000       -1.59944000
  |    6: Species C            -0.49584000        1.26211000        0.72868000
  |    7: Species H            -1.58789000        1.28919000        0.74431000
  |    8: Species H            -0.13407000        1.27425000        1.75947000
  |    9: Species H            -0.13407000        2.16087000        0.22380000
  |   10: Species C            -0.39425000       -1.28861000        0.74398000
  |   11: Species O            -0.10189000       -1.56493000        1.88303000
  |   12: Species O            -1.10210000       -2.13717000        0.06896000
  |   13: Species H            -0.71289000       -2.95645000        0.41864000
  |

  | The smallest distance between any two atoms is         0.97210094 AA.
  |
  | The first atom of this pair is atom number                     12 .
  | The second atom of this pair is atom number                    13 .

  Number of empty states per atom not set in control.in - providing a guess from actual geometry.
  | Total number of empty states used during s.c.f. cycle:       29
  If you use a very high smearing, use empty_states (per atom!) in control.in to increase this value.

  Structure-dependent array size parameters: 
  | Maximum number of distinct radial functions  :       21
  | Maximum number of basis functions            :      119
  | Number of Kohn-Sham states (occupied + empty):       53
------------------------------------------------------------

------------------------------------------------------------
          Preparing all fixed parts of the calculation.
------------------------------------------------------------
  Determining machine precision:
    2.225073858507201E-308
  Setting up grids for atomic and cluster calculations.

  Creating wave function, potential, and density for free atoms.

  Species: H

  List of occupied orbitals and eigenvalues:
    n    l              occ      energy [Ha]    energy [eV]
    1    0           1.0000        -0.237589        -6.4651


  Species: C

  List of occupied orbitals and eigenvalues:
    n    l              occ      energy [Ha]    energy [eV]
    1    0           2.0000       -10.038835      -273.1706
    2    0           2.0000        -0.502696       -13.6791
    2    1           2.0000        -0.191971        -5.2238


  Species: N

  List of occupied orbitals and eigenvalues:
    n    l              occ      energy [Ha]    energy [eV]
    1    0           2.0000       -14.128000      -384.4424
    2    0           2.0000        -0.681077       -18.5330
    2    1           3.0000        -0.259788        -7.0692


  Species: O

  List of occupied orbitals and eigenvalues:
    n    l              occ      energy [Ha]    energy [eV]
    1    0           2.0000       -18.898188      -514.2459
    2    0           2.0000        -0.878505       -23.9053
    2    1           4.0000        -0.331779        -9.0282

  Creating fixed part of basis set: Ionic, confined, hydrogenic.
 
  H                    hydrogenic:
 
  List of hydrogenic basis orbitals: 
    n    l      effective z      eigenvalue [eV]  inner max. [A]     outer max. [A]     outer radius [A]   
    2    0         2.100000       -14.9728           0.193243           1.317208           4.583499
    2    1         3.500000       -41.6669           0.602369           0.602369           3.723403
 
 
  C                    hydrogenic:
 
  List of hydrogenic basis orbitals: 
    n    l      effective z      eigenvalue [eV]  inner max. [A]     outer max. [A]     outer radius [A]   
    2    1         1.700000        -9.7616           1.230570           1.230570           4.607917
    3    2         6.000000       -54.4224           0.792453           0.792453           3.883070
    2    0         4.900000       -81.6679           0.082559           0.562749           3.078220
 
 
  N                    hydrogenic:
 
  List of hydrogenic basis orbitals: 
    n    l      effective z      eigenvalue [eV]  inner max. [A]     outer max. [A]     outer radius [A]   
    2    1         1.800000       -10.9749           1.177451           1.177451           4.573712
    3    2         6.800000       -69.9026           0.704619           0.704619           3.538137
    3    0         5.800000       -50.8545           0.067388           1.191934           4.250239
 
 
  O                    hydrogenic:
 
  List of hydrogenic basis orbitals: 
    n    l      effective z      eigenvalue [eV]  inner max. [A]     outer max. [A]     outer radius [A]   
    2    1         1.800000       -10.9749           1.164242           1.164242           4.578029
    3    2         7.600000       -87.3180           0.624125           0.624125           3.251020
    3    0         6.400000       -61.9207           0.061167           1.081902           4.001998
 

  Adding cutoff potential to free-atom effective potential.
  Creating atomic-like basis functions for current effective potential.

  Species H                   :

  List of atomic basis orbitals and eigenvalues:
    n    l      energy [Ha]    energy [eV]    outer radius [A]
    1    0        -0.237589        -6.4651       4.527807


  Species C                   :

  List of atomic basis orbitals and eigenvalues:
    n    l      energy [Ha]    energy [eV]    outer radius [A]
    1    0       -10.038835      -273.1706       1.934409
    2    0        -0.502696       -13.6791       4.496620
    2    1        -0.191971        -5.2238       4.551928


  Species N                   :

  List of atomic basis orbitals and eigenvalues:
    n    l      energy [Ha]    energy [eV]    outer radius [A]
    1    0       -14.128000      -384.4424       1.637919
    2    0        -0.681077       -18.5330       4.463241
    2    1        -0.259788        -7.0692       4.518138


  Species O                   :

  List of atomic basis orbitals and eigenvalues:
    n    l      energy [Ha]    energy [eV]    outer radius [A]
    1    0       -18.898188      -514.2459       1.415765
    2    0        -0.878505       -23.9053       4.413171
    2    1        -0.331779        -9.0282       4.522403

  Assembling full basis from fixed parts.
  | Species H :   atomic orbital   1 s accepted.
  | Species H :    hydro orbital   2 s accepted.
  | Species H :    hydro orbital   2 p accepted.
  | Species C :   atomic orbital   1 s accepted.
  | Species C :    hydro orbital   2 s accepted.
  | Species C :   atomic orbital   2 s accepted.
  | Species C :   atomic orbital   2 p accepted.
  | Species C :    hydro orbital   2 p accepted.
  | Species C :    hydro orbital   3 d accepted.
  | Species N :   atomic orbital   1 s accepted.
  | Species N :    hydro orbital   3 s accepted.
  | Species N :   atomic orbital   2 s accepted.
  | Species N :   atomic orbital   2 p accepted.
  | Species N :    hydro orbital   2 p accepted.
  | Species N :    hydro orbital   3 d accepted.
  | Species O :   atomic orbital   1 s accepted.
  | Species O :    hydro orbital   3 s accepted.
  | Species O :   atomic orbital   2 s accepted.
  | Species O :   atomic orbital   2 p accepted.
  | Species O :    hydro orbital   2 p accepted.
  | Species O :    hydro orbital   3 d accepted.
 
  Basis size parameters after reduction:
  | Total number of radial functions:       21
  | Total number of basis functions :      119
 
  Per-task memory consumption for arrays in subroutine allocate_ext:
  |           5.250512MB.
  Testing on-site integration grid accuracy.
  |  Species  Function  <phi|h_atom|phi> (log., in eV)  <phi|h_atom|phi> (rad., in eV)
           1        1                 -6.4663192853                 -6.4651273558
           1        2                 13.7111246313                 13.7170609718
           1        3                 25.2673269279                 25.2674696378
           2        4               -273.1705927641               -273.1705631568
           2        5                -10.7109323383                -10.7107120029
           2        6                 17.4381822266                 17.4352413244
           2        7                 -5.2255326521                 -5.2270484734
           2        8                  8.6835629259                  8.6603288385
           2        9                 27.4952418996                 27.4953360207
           3       10               -384.4424306495               -384.4423701208
           3       11                 12.5842251816                 12.5842222903
           3       12                -15.7264628251                -15.7264433455
           3       13                 -7.0696854293                 -7.0701769954
           3       14                  8.8090390882                  8.7901077751
           3       15                 35.9586762123                 35.9588528632
           4       16               -514.2458688638               -514.2457643834
           4       17                 15.1795651126                 15.1795290741
           4       18                -21.5359799773                -21.5360846186
           4       19                 -9.0283069236                 -9.0284644067
           4       20                  8.3027758564                  8.2834874195
           4       21                 45.8339351984                 45.8338762259

  Preparing densities etc. for the partition functions (integrals / Hartree potential).

  Preparations completed.
  max(cpu_time)          :      0.152 s.
  Wall clock time (cpu1) :      0.154 s.
------------------------------------------------------------

------------------------------------------------------------
          Begin self-consistency loop: Initialization.

          Date     :  20200815, Time     :  004710.547
------------------------------------------------------------

  Initializing index lists of integration centers etc. from given atomic structure:
  | Number of centers in hartree potential         :        13
  | Number of centers in hartree multipole         :        13
  | Number of centers in electron density summation:        13
  | Number of centers in basis integrals           :        13
  | Number of centers in integrals                 :        13
  | Number of centers in hamiltonian               :        13
  Partitioning the integration grid into batches with parallel hashing+maxmin method.
  | Number of batches:      956
  | Maximal batch size:     139
  | Minimal batch size:      66
  | Average batch size:      72.851
  | Standard deviation of batch sizes:      17.517

  Integration load balanced across     1 MPI tasks.
  Work distribution over tasks is as follows:
  Task     0 has      69646 integration points.
  Initializing partition tables, free-atom densities, potentials, etc. across the integration grid (initialize_grid_storage).
  | initialize_grid_storage: Actual outermost partition radius vs. multipole_radius_free
  | (-- VB: in principle, multipole_radius_free should be larger, hence this output)
  | Species        1: Confinement radius =              4.999999999999999 AA, multipole_radius_free =              5.054417573612229 AA.
  | Species        1: outer_partition_radius set to              5.054417573612229 AA .
  | Species        2: Confinement radius =              4.999999999999999 AA, multipole_radius_free =              5.019602836301480 AA.
  | Species        2: outer_partition_radius set to              5.019602836301480 AA .
  | Species        3: Confinement radius =              4.999999999999999 AA, multipole_radius_free =              5.043624274424571 AA.
  | Species        3: outer_partition_radius set to              5.043624274424571 AA .
  | Species        4: Confinement radius =              4.999999999999999 AA, multipole_radius_free =              5.048384829883283 AA.
  | Species        4: outer_partition_radius set to              5.048384829883283 AA .
  | Original list of interatomic distances with          13 x         13 entries is created.
  | Net number of integration points:    69646
  | of which are non-zero points    :    59650
  Renormalizing the initial density to the exact electron count on the 3D integration grid.
  | Initial density: Formal number of electrons (from input files) :      48.0000000000
  | Integrated number of electrons on 3D grid     :      48.0000023205
  | Charge integration error                      :       0.0000023205
  | Normalization factor for density and gradient :       0.9999999517
  Obtaining max. number of non-zero basis functions in each batch (get_n_compute_maxes).
  | Maximal number of non-zero basis functions:      119 in task     0
  Selecting the method for density update.
  Loop over occupied states selected for charge density update.
  Allocating        0.050 MB for KS_eigenvector
  Integrating Hamiltonian matrix: batch-based integration.
  Time summed over all CPUs for integration: real work        0.502 s, elapsed        0.502 s
  Integrating overlap matrix.
  Time summed over all CPUs for integration: real work        0.214 s, elapsed        0.214 s

  Updating Kohn-Sham eigenvalues and eigenvectors using ELSI and the ELPA eigensolver.
  Overlap matrix is nonsingular
  | Lowest eigenvalue of overlap  :  0.46E-02
  | Highest eigenvalue of overlap :  0.61E+01
  Finished singularity check of overlap matrix
  | Time :     0.002 s
  Finished Cholesky decomposition
  | Time :     0.000 s
  Finished transformation to standard eigenproblem
  | Time :     0.000 s
  Starting LAPACK eigensolver
  Finished solving standard eigenproblem
  | Time :     0.002 s
  Finished back-transformation of eigenvectors
  | Time :     0.000 s

  Obtaining occupation numbers and chemical potential using ELSI.
  | Chemical potential (Fermi level):    -9.84823234eV
  Writing Kohn-Sham eigenvalues.

  State    Occupation    Eigenvalue [Ha]    Eigenvalue [eV]
      1       2.00000         -19.008466         -517.24667
      2       2.00000         -18.977985         -516.41725
      3       2.00000         -14.245787         -387.64760
      4       2.00000         -10.166583         -276.64679
      5       2.00000         -10.141242         -275.95723
      6       2.00000         -10.132155         -275.70997
      7       2.00000          -1.187750          -32.32033
      8       2.00000          -1.094381          -29.77962
      9       2.00000          -0.991001          -26.96651
     10       2.00000          -0.861822          -23.45136
     11       2.00000          -0.757185          -20.60405
     12       2.00000          -0.684598          -18.62886
     13       2.00000          -0.622315          -16.93405
     14       2.00000          -0.610085          -16.60126
     15       2.00000          -0.586274          -15.95333
     16       2.00000          -0.564903          -15.37179
     17       2.00000          -0.549539          -14.95373
     18       2.00000          -0.536346          -14.59470
     19       2.00000          -0.516117          -14.04425
     20       2.00000          -0.493238          -13.42168
     21       2.00000          -0.474975          -12.92472
     22       2.00000          -0.429786          -11.69507
     23       2.00000          -0.407519          -11.08916
     24       2.00000          -0.386608          -10.52013
     25       0.00000          -0.154715           -4.21002
     26       0.00000          -0.058322           -1.58702
     27       0.00000          -0.028233           -0.76827
     28       0.00000          -0.022694           -0.61754
     29       0.00000           0.002707            0.07366
     30       0.00000           0.011067            0.30115
     31       0.00000           0.022949            0.62448
     32       0.00000           0.028317            0.77056
     33       0.00000           0.039478            1.07424
     34       0.00000           0.071474            1.94491
     35       0.00000           0.087182            2.37233
     36       0.00000           0.132899            3.61636
     37       0.00000           0.159664            4.34467
     38       0.00000           0.198157            5.39213
     39       0.00000           0.208042            5.66112
     40       0.00000           0.222263            6.04808
     41       0.00000           0.260521            7.08913
     42       0.00000           0.276907            7.53503
     43       0.00000           0.293810            7.99497
     44       0.00000           0.310902            8.46009
     45       0.00000           0.336205            9.14861
     46       0.00000           0.362937            9.87603
     47       0.00000           0.383636           10.43926
     48       0.00000           0.407779           11.09623
     49       0.00000           0.420262           11.43592
     50       0.00000           0.477473           12.99270
     51       0.00000           0.518672           14.11377
     52       0.00000           0.527052           14.34182
     53       0.00000           0.555128           15.10579

  Highest occupied state (VBM) at    -10.52013037 eV
  | Occupation number:      2.00000000

  Lowest unoccupied state (CBM) at    -4.21001789 eV
  | Occupation number:      0.00000000

  Overall HOMO-LUMO gap:      6.31011248 eV.
  Calculating total energy contributions from superposition of free atom densities.

  Total energy components:
  | Sum of eigenvalues            :        -188.85331698 Ha       -5138.96022242 eV
  | XC energy correction          :         -41.78931821 Ha       -1137.14520592 eV
  | XC potential correction       :          53.72078074 Ha        1461.81682032 eV
  | Free-atom electrostatic energy:        -146.84702469 Ha       -3995.91085156 eV
  | Hartree energy correction     :           0.00000000 Ha           0.00000000 eV
  | vdW energy correction         :           0.00000000 Ha           0.00000000 eV
  | Entropy correction            :           0.00000000 Ha           0.00000000 eV
  | ---------------------------
  | Total energy                  :        -323.76887915 Ha       -8810.19945957 eV
  | Total energy, T -> 0          :        -323.76887915 Ha       -8810.19945957 eV  <-- do not rely on this value for anything but (periodic) metals
  | Electronic free energy        :        -323.76887915 Ha       -8810.19945957 eV

  Derived energy quantities:
  | Kinetic energy                :         320.48983766 Ha        8720.97220090 eV
  | Electrostatic energy          :        -602.46939859 Ha      -16394.02645455 eV
  | Energy correction for multipole
  | error in Hartree potential    :           0.00000000 Ha           0.00000000 eV
  | Sum of eigenvalues per atom                           :        -395.30463249 eV
  | Total energy (T->0) per atom                          :        -677.70765074 eV  <-- do not rely on this value for anything but (periodic) metals
  | Electronic free energy per atom                       :        -677.70765074 eV
  Initialize hartree_potential_storage
  Max. number of atoms included in rho_multipole:           13

  End scf initialization - timings             :  max(cpu_time)    wall_clock(cpu1)
  | Time for scf. initialization               :        1.162 s           1.165 s
  | Boundary condition initialization          :        0.000 s           0.000 s
  | Integration                                :        0.716 s           0.716 s
  | Solution of K.-S. eqns.                    :        0.004 s           0.005 s
  | Grid partitioning                          :        0.113 s           0.113 s
  | Preloading free-atom quantities on grid    :        0.002 s           0.003 s
  | Free-atom superposition energy             :        0.086 s           0.085 s
  | Total energy evaluation                    :        0.000 s           0.001 s

  Partial memory accounting:
  | Current value for overall tracked memory usage on task 0  :           0.165 MB
  | Peak value for overall tracked memory usage on task 0     :           0.678 MB after allocating wave
  | Largest tracked array allocation on task 0 so far         :           0.132 MB  when allocating H_times_psi
  Note:  These values currently only include a subset of arrays which are explicitly tracked.
  The "true" memory usage will be greater.
------------------------------------------------------------

------------------------------------------------------------
          Begin self-consistency iteration #    1

  Date     :  20200815, Time     :  004711.712
------------------------------------------------------------
  Evaluating new KS density.
  Integration grid: deviation in total charge (<rho> - N_e) =  -3.552714E-14
  Pulay mixing of updated and previous charge densities.

  Evaluating partitioned Hartree potential by multipole expansion.
  | Analytical far-field extrapolation by fixed multipoles:
  | Hartree multipole sum: apparent total charge =  -0.105120E-03
  Summing up the Hartree potential.
  Time summed over all CPUs for potential: real work        0.286 s, elapsed        0.286 s
  | RMS charge density error from multipole expansion :   0.586907E-02

  Integrating Hamiltonian matrix: batch-based integration.
  Time summed over all CPUs for integration: real work        0.505 s, elapsed        0.505 s

  Updating Kohn-Sham eigenvalues and eigenvectors using ELSI and the ELPA eigensolver.
  Finished Cholesky decomposition
  | Time :     0.000 s
  Finished transformation to standard eigenproblem
  | Time :     0.000 s
  Starting LAPACK eigensolver
  Finished solving standard eigenproblem
  | Time :     0.002 s
  Finished back-transformation of eigenvectors
  | Time :     0.000 s

  Obtaining occupation numbers and chemical potential using ELSI.
  | Chemical potential (Fermi level):    -4.65464590eV
  Writing Kohn-Sham eigenvalues.

  State    Occupation    Eigenvalue [Ha]    Eigenvalue [eV]
      1       2.00000         -18.909566         -514.55548
      2       2.00000         -18.839840         -512.65813
      3       2.00000         -14.093405         -383.50105
      4       2.00000         -10.118166         -275.32930
      5       2.00000         -10.061629         -273.79086
      6       2.00000         -10.026053         -272.82278
      7       2.00000          -1.141644          -31.06573
      8       2.00000          -1.034028          -28.13732
      9       2.00000          -0.919771          -25.02826
     10       2.00000          -0.793150          -21.58271
     11       2.00000          -0.706308          -19.21962
     12       2.00000          -0.638621          -17.37775
     13       2.00000          -0.567778          -15.45001
     14       2.00000          -0.547050          -14.88598
     15       2.00000          -0.527220          -14.34638
     16       2.00000          -0.511605          -13.92149
     17       2.00000          -0.488247          -13.28588
     18       2.00000          -0.473382          -12.88139
     19       2.00000          -0.448813          -12.21282
     20       2.00000          -0.434938          -11.83526
     21       2.00000          -0.420410          -11.43995
     22       2.00000          -0.372434          -10.13445
     23       2.00000          -0.337876           -9.19406
     24       2.00000          -0.310347           -8.44498
     25       0.00000          -0.120417           -3.27672
     26       0.00000          -0.034034           -0.92611
     27       0.00000          -0.004209           -0.11454
     28       0.00000           0.016677            0.45381
     29       0.00000           0.033279            0.90557
     30       0.00000           0.055057            1.49817
     31       0.00000           0.063540            1.72901
     32       0.00000           0.075044            2.04205
     33       0.00000           0.080513            2.19087
     34       0.00000           0.108800            2.96060
     35       0.00000           0.126735            3.44864
     36       0.00000           0.161266            4.38827
     37       0.00000           0.184547            5.02177
     38       0.00000           0.225113            6.12565
     39       0.00000           0.236452            6.43420
     40       0.00000           0.264258            7.19083
     41       0.00000           0.297411            8.09297
     42       0.00000           0.309603            8.42471
     43       0.00000           0.332851            9.05734
     44       0.00000           0.349115            9.49991
     45       0.00000           0.377987           10.28554
     46       0.00000           0.395821           10.77084
     47       0.00000           0.424880           11.56157
     48       0.00000           0.444316           12.09046
     49       0.00000           0.461164           12.54892
     50       0.00000           0.510260           13.88489
     51       0.00000           0.552797           15.04238
     52       0.00000           0.564397           15.35803
     53       0.00000           0.590673           16.07303

  Highest occupied state (VBM) at     -8.44497652 eV
  | Occupation number:      2.00000000

  Lowest unoccupied state (CBM) at    -3.27672112 eV
  | Occupation number:      0.00000000

  Overall HOMO-LUMO gap:      5.16825539 eV.

  Total energy components:
  | Sum of eigenvalues            :        -185.44456164 Ha       -5046.20327021 eV
  | XC energy correction          :         -42.11797846 Ha       -1146.08850631 eV
  | XC potential correction       :          54.14826398 Ha        1473.44923106 eV
  | Free-atom electrostatic energy:        -146.84702469 Ha       -3995.91085156 eV
  | Hartree energy correction     :          -3.32481367 Ha         -90.47278306 eV
  | vdW energy correction         :           0.00000000 Ha           0.00000000 eV
  | Entropy correction            :           0.00000000 Ha           0.00000000 eV
  | ---------------------------
  | Total energy                  :        -323.58611448 Ha       -8805.22618008 eV
  | Total energy, T -> 0          :        -323.58611448 Ha       -8805.22618008 eV  <-- do not rely on this value for anything but (periodic) metals
  | Electronic free energy        :        -323.58611448 Ha       -8805.22618008 eV

  Derived energy quantities:
  | Kinetic energy                :         322.27984996 Ha        8769.68091394 eV
  | Electrostatic energy          :        -603.74798598 Ha      -16428.81858771 eV
  | Energy correction for multipole
  | error in Hartree potential    :           0.01225559 Ha           0.33349144 eV
  | Sum of eigenvalues per atom                           :        -388.16948232 eV
  | Total energy (T->0) per atom                          :        -677.32509078 eV  <-- do not rely on this value for anything but (periodic) metals
  | Electronic free energy per atom                       :        -677.32509078 eV

  Self-consistency convergence accuracy:
  | Change of charge density      :  0.5830E+00
  | Change of sum of eigenvalues  :  0.9276E+02 eV
  | Change of total energy        :  0.4973E+01 eV

  End self-consistency iteration #     1       :  max(cpu_time)    wall_clock(cpu1)
  | Time for this iteration                    :        1.209 s           1.210 s
  | Charge density update                      :        0.399 s           0.400 s
  | Density mixing                             :        0.006 s           0.006 s
  | Hartree multipole update                   :        0.009 s           0.009 s
  | Hartree multipole summation                :        0.287 s           0.287 s
  | Integration                                :        0.505 s           0.505 s
  | Solution of K.-S. eqns.                    :        0.002 s           0.002 s
  | Total energy evaluation                    :        0.000 s           0.000 s

  Partial memory accounting:
  | Current value for overall tracked memory usage on task 0  :           0.165 MB
  | Peak value for overall tracked memory usage on task 0     :           0.695 MB after allocating gradient_basis_wave
  | Largest tracked array allocation on task 0 so far         :           0.397 MB  when allocating gradient_basis_wave
  Note:  These values currently only include a subset of arrays which are explicitly tracked.
  The "true" memory usage will be greater.
------------------------------------------------------------

------------------------------------------------------------
          Begin self-consistency iteration #    2

  Date     :  20200815, Time     :  004712.923
------------------------------------------------------------
  Evaluating new KS density.
  Integration grid: deviation in total charge (<rho> - N_e) =   3.552714E-14
  Pulay mixing of updated and previous charge densities.

  Evaluating partitioned Hartree potential by multipole expansion.
  | Analytical far-field extrapolation by fixed multipoles:
  | Hartree multipole sum: apparent total charge =  -0.242683E-03
  Summing up the Hartree potential.
  Time summed over all CPUs for potential: real work        0.287 s, elapsed        0.287 s
  | RMS charge density error from multipole expansion :   0.140137E-01

  Integrating Hamiltonian matrix: batch-based integration.
  Time summed over all CPUs for integration: real work        0.509 s, elapsed        0.509 s

  Updating Kohn-Sham eigenvalues and eigenvectors using ELSI and the ELPA eigensolver.
  Finished Cholesky decomposition
  | Time :     0.000 s
  Finished transformation to standard eigenproblem
  | Time :     0.000 s
  Starting LAPACK eigensolver
  Finished solving standard eigenproblem
  | Time :     0.002 s
  Finished back-transformation of eigenvectors
  | Time :     0.000 s

  Obtaining occupation numbers and chemical potential using ELSI.
  | Chemical potential (Fermi level):    -3.40960213eV
  Highest occupied state (VBM) at     -6.34620236 eV
  | Occupation number:      2.00000000

  Lowest unoccupied state (CBM) at    -2.08236265 eV
  | Occupation number:      0.00000000

  Overall HOMO-LUMO gap:      4.26383971 eV.

  Checking to see if s.c.f. parameters should be adjusted.

  Total energy components:
  | Sum of eigenvalues            :        -181.83981898 Ha       -4948.11323180 eV
  | XC energy correction          :         -42.48060691 Ha       -1155.95612846 eV
  | XC potential correction       :          54.61841863 Ha        1486.24279023 eV
  | Free-atom electrostatic energy:        -146.84702469 Ha       -3995.91085156 eV
  | Hartree energy correction     :          -6.95849280 Ha        -189.35022311 eV
  | vdW energy correction         :           0.00000000 Ha           0.00000000 eV
  | Entropy correction            :           0.00000000 Ha           0.00000000 eV
  | ---------------------------
  | Total energy                  :        -323.50752475 Ha       -8803.08764470 eV
  | Total energy, T -> 0          :        -323.50752475 Ha       -8803.08764470 eV  <-- do not rely on this value for anything but (periodic) metals
  | Electronic free energy        :        -323.50752475 Ha       -8803.08764470 eV

  Derived energy quantities:
  | Kinetic energy                :         323.61137572 Ha        8805.91357326 eV
  | Electrostatic energy          :        -604.63829356 Ha      -16453.04508950 eV
  | Energy correction for multipole
  | error in Hartree potential    :           0.02717457 Ha           0.73945771 eV
  | Sum of eigenvalues per atom                           :        -380.62409475 eV
  | Total energy (T->0) per atom                          :        -677.16058805 eV  <-- do not rely on this value for anything but (periodic) metals
  | Electronic free energy per atom                       :        -677.16058805 eV

  Self-consistency convergence accuracy:
  | Change of charge density      :  0.3641E+00
  | Change of sum of eigenvalues  :  0.9809E+02 eV
  | Change of total energy        :  0.2139E+01 eV

  End self-consistency iteration #     2       :  max(cpu_time)    wall_clock(cpu1)
  | Time for this iteration                    :        1.206 s           1.208 s
  | Charge density update                      :        0.391 s           0.392 s
  | Density mixing                             :        0.007 s           0.007 s
  | Hartree multipole update                   :        0.009 s           0.009 s
  | Hartree multipole summation                :        0.287 s           0.287 s
  | Integration                                :        0.509 s           0.509 s
  | Solution of K.-S. eqns.                    :        0.002 s           0.002 s
  | Total energy evaluation                    :        0.000 s           0.000 s

  Partial memory accounting:
  | Current value for overall tracked memory usage on task 0  :           0.166 MB
  | Peak value for overall tracked memory usage on task 0     :           0.695 MB after allocating gradient_basis_wave
  | Largest tracked array allocation on task 0 so far         :           0.397 MB  when allocating gradient_basis_wave
  Note:  These values currently only include a subset of arrays which are explicitly tracked.
  The "true" memory usage will be greater.
------------------------------------------------------------

------------------------------------------------------------
          Begin self-consistency iteration #    3

  Date     :  20200815, Time     :  004714.133
------------------------------------------------------------
  Evaluating new KS density.
  Integration grid: deviation in total charge (<rho> - N_e) =  -2.842171E-14
  Pulay mixing of updated and previous charge densities.

  Evaluating partitioned Hartree potential by multipole expansion.
  | Analytical far-field extrapolation by fixed multipoles:
  | Hartree multipole sum: apparent total charge =  -0.338938E-03
  Summing up the Hartree potential.
  Time summed over all CPUs for potential: real work        0.292 s, elapsed        0.292 s
  | RMS charge density error from multipole expansion :   0.222402E-01

  Integrating Hamiltonian matrix: batch-based integration.
  Time summed over all CPUs for integration: real work        0.501 s, elapsed        0.501 s

  Updating Kohn-Sham eigenvalues and eigenvectors using ELSI and the ELPA eigensolver.
  Finished Cholesky decomposition
  | Time :     0.000 s
  Finished transformation to standard eigenproblem
  | Time :     0.000 s
  Starting LAPACK eigensolver
  Finished solving standard eigenproblem
  | Time :     0.002 s
  Finished back-transformation of eigenvectors
  | Time :     0.000 s

  Obtaining occupation numbers and chemical potential using ELSI.
  | Chemical potential (Fermi level):    -2.71095666eV
  Highest occupied state (VBM) at     -5.68073581 eV
  | Occupation number:      2.00000000

  Lowest unoccupied state (CBM) at    -1.41019069 eV
  | Occupation number:      0.00000000

  Overall HOMO-LUMO gap:      4.27054512 eV.

  Total energy components:
  | Sum of eigenvalues            :        -180.54752101 Ha       -4912.94801475 eV
  | XC energy correction          :         -42.63180510 Ha       -1160.07044045 eV
  | XC potential correction       :          54.81124525 Ha        1491.48986934 eV
  | Free-atom electrostatic energy:        -146.84702469 Ha       -3995.91085156 eV
  | Hartree energy correction     :          -8.27996865 Ha        -225.30941047 eV
  | vdW energy correction         :           0.00000000 Ha           0.00000000 eV
  | Entropy correction            :           0.00000000 Ha           0.00000000 eV
  | ---------------------------
  | Total energy                  :        -323.49507420 Ha       -8802.74884790 eV
  | Total energy, T -> 0          :        -323.49507420 Ha       -8802.74884790 eV  <-- do not rely on this value for anything but (periodic) metals
  | Electronic free energy        :        -323.49507420 Ha       -8802.74884790 eV

  Derived energy quantities:
  | Kinetic energy                :         323.17904788 Ha        8794.14933408 eV
  | Electrostatic energy          :        -604.04231698 Ha      -16436.82774153 eV
  | Energy correction for multipole
  | error in Hartree potential    :           0.03864026 Ha           1.05145491 eV
  | Sum of eigenvalues per atom                           :        -377.91907806 eV
  | Total energy (T->0) per atom                          :        -677.13452676 eV  <-- do not rely on this value for anything but (periodic) metals
  | Electronic free energy per atom                       :        -677.13452676 eV

  Self-consistency convergence accuracy:
  | Change of charge density      :  0.2024E+00
  | Change of sum of eigenvalues  :  0.3517E+02 eV
  | Change of total energy        :  0.3388E+00 eV

  End self-consistency iteration #     3       :  max(cpu_time)    wall_clock(cpu1)
  | Time for this iteration                    :        1.200 s           1.209 s
  | Charge density update                      :        0.392 s           0.394 s
  | Density mixing                             :        0.009 s           0.009 s
  | Hartree multipole update                   :        0.009 s           0.009 s
  | Hartree multipole summation                :        0.286 s           0.293 s
  | Integration                                :        0.501 s           0.502 s
  | Solution of K.-S. eqns.                    :        0.002 s           0.002 s
  | Total energy evaluation                    :        0.000 s           0.000 s

  Partial memory accounting:
  | Current value for overall tracked memory usage on task 0  :           0.166 MB
  | Peak value for overall tracked memory usage on task 0     :           0.695 MB after allocating gradient_basis_wave
  | Largest tracked array allocation on task 0 so far         :           0.397 MB  when allocating gradient_basis_wave
  Note:  These values currently only include a subset of arrays which are explicitly tracked.
  The "true" memory usage will be greater.
------------------------------------------------------------

------------------------------------------------------------
          Begin self-consistency iteration #    4

  Date     :  20200815, Time     :  004715.345
------------------------------------------------------------
  Evaluating new KS density.
  Integration grid: deviation in total charge (<rho> - N_e) =  -7.815970E-14
  Pulay mixing of updated and previous charge densities.

  Evaluating partitioned Hartree potential by multipole expansion.
  | Analytical far-field extrapolation by fixed multipoles:
  | Hartree multipole sum: apparent total charge =  -0.369776E-03
  Summing up the Hartree potential.
  Time summed over all CPUs for potential: real work        0.288 s, elapsed        0.288 s
  | RMS charge density error from multipole expansion :   0.255776E-01

  Integrating Hamiltonian matrix: batch-based integration.
  Time summed over all CPUs for integration: real work        0.501 s, elapsed        0.501 s

  Updating Kohn-Sham eigenvalues and eigenvectors using ELSI and the ELPA eigensolver.
  Finished Cholesky decomposition
  | Time :     0.000 s
  Finished transformation to standard eigenproblem
  | Time :     0.000 s
  Starting LAPACK eigensolver
  Finished solving standard eigenproblem
  | Time :     0.001 s
  Finished back-transformation of eigenvectors
  | Time :     0.000 s

  Obtaining occupation numbers and chemical potential using ELSI.
  | Chemical potential (Fermi level):    -2.60002027eV
  Highest occupied state (VBM) at     -5.50283333 eV
  | Occupation number:      2.00000000

  Lowest unoccupied state (CBM) at    -1.33208341 eV
  | Occupation number:      0.00000000

  Overall HOMO-LUMO gap:      4.17074993 eV.

  Total energy components:
  | Sum of eigenvalues            :        -180.39618795 Ha       -4908.83003252 eV
  | XC energy correction          :         -42.66892456 Ha       -1161.08051243 eV
  | XC potential correction       :          54.85805491 Ha        1492.76362513 eV
  | Free-atom electrostatic energy:        -146.84702469 Ha       -3995.91085156 eV
  | Hartree energy correction     :          -8.44021660 Ha        -229.66997921 eV
  | vdW energy correction         :           0.00000000 Ha           0.00000000 eV
  | Entropy correction            :           0.00000000 Ha           0.00000000 eV
  | ---------------------------
  | Total energy                  :        -323.49429889 Ha       -8802.72775059 eV
  | Total energy, T -> 0          :        -323.49429889 Ha       -8802.72775059 eV  <-- do not rely on this value for anything but (periodic) metals
  | Electronic free energy        :        -323.49429889 Ha       -8802.72775059 eV

  Derived energy quantities:
  | Kinetic energy                :         322.81469299 Ha        8784.23473321 eV
  | Electrostatic energy          :        -603.64006732 Ha      -16425.88197137 eV
  | Energy correction for multipole
  | error in Hartree potential    :           0.04277625 Ha           1.16400086 eV
  | Sum of eigenvalues per atom                           :        -377.60231019 eV
  | Total energy (T->0) per atom                          :        -677.13290389 eV  <-- do not rely on this value for anything but (periodic) metals
  | Electronic free energy per atom                       :        -677.13290389 eV

  Self-consistency convergence accuracy:
  | Change of charge density      :  0.6200E-01
  | Change of sum of eigenvalues  :  0.4118E+01 eV
  | Change of total energy        :  0.2110E-01 eV

  End self-consistency iteration #     4       :  max(cpu_time)    wall_clock(cpu1)
  | Time for this iteration                    :        1.202 s           1.204 s
  | Charge density update                      :        0.391 s           0.392 s
  | Density mixing                             :        0.010 s           0.010 s
  | Hartree multipole update                   :        0.009 s           0.009 s
  | Hartree multipole summation                :        0.288 s           0.289 s
  | Integration                                :        0.501 s           0.501 s
  | Solution of K.-S. eqns.                    :        0.002 s           0.002 s
  | Total energy evaluation                    :        0.000 s           0.000 s

  Partial memory accounting:
  | Current value for overall tracked memory usage on task 0  :           0.166 MB
  | Peak value for overall tracked memory usage on task 0     :           0.696 MB after allocating gradient_basis_wave
  | Largest tracked array allocation on task 0 so far         :           0.397 MB  when allocating gradient_basis_wave
  Note:  These values currently only include a subset of arrays which are explicitly tracked.
  The "true" memory usage will be greater.
------------------------------------------------------------

------------------------------------------------------------
          Begin self-consistency iteration #    5

  Date     :  20200815, Time     :  004716.551
------------------------------------------------------------
  Evaluating new KS density.
  Integration grid: deviation in total charge (<rho> - N_e) =  -1.421085E-14
  Pulay mixing of updated and previous charge densities.

  Evaluating partitioned Hartree potential by multipole expansion.
  | Analytical far-field extrapolation by fixed multipoles:
  | Hartree multipole sum: apparent total charge =  -0.363870E-03
  Summing up the Hartree potential.
  Time summed over all CPUs for potential: real work        0.285 s, elapsed        0.285 s
  | RMS charge density error from multipole expansion :   0.253310E-01

  Integrating Hamiltonian matrix: batch-based integration.
  Time summed over all CPUs for integration: real work        0.500 s, elapsed        0.500 s

  Updating Kohn-Sham eigenvalues and eigenvectors using ELSI and the ELPA eigensolver.
  Finished Cholesky decomposition
  | Time :     0.000 s
  Finished transformation to standard eigenproblem
  | Time :     0.000 s
  Starting LAPACK eigensolver
  Finished solving standard eigenproblem
  | Time :     0.001 s
  Finished back-transformation of eigenvectors
  | Time :     0.000 s

  Obtaining occupation numbers and chemical potential using ELSI.
  | Chemical potential (Fermi level):    -2.66082926eV
  Highest occupied state (VBM) at     -5.58484135 eV
  | Occupation number:      2.00000000

  Lowest unoccupied state (CBM) at    -1.40904404 eV
  | Occupation number:      0.00000000

  Overall HOMO-LUMO gap:      4.17579731 eV.

  Total energy components:
  | Sum of eigenvalues            :        -180.58097349 Ha       -4913.85830289 eV
  | XC energy correction          :         -42.64599105 Ha       -1160.45645990 eV
  | XC potential correction       :          54.82831485 Ha        1491.95435695 eV
  | Free-atom electrostatic energy:        -146.84702469 Ha       -3995.91085156 eV
  | Hartree energy correction     :          -8.24832383 Ha        -224.44831110 eV
  | vdW energy correction         :           0.00000000 Ha           0.00000000 eV
  | Entropy correction            :           0.00000000 Ha           0.00000000 eV
  | ---------------------------
  | Total energy                  :        -323.49399820 Ha       -8802.71956851 eV
  | Total energy, T -> 0          :        -323.49399820 Ha       -8802.71956851 eV  <-- do not rely on this value for anything but (periodic) metals
  | Electronic free energy        :        -323.49399820 Ha       -8802.71956851 eV

  Derived energy quantities:
  | Kinetic energy                :         322.71113198 Ha        8781.41669467 eV
  | Electrostatic energy          :        -603.55913913 Ha      -16423.67980327 eV
  | Energy correction for multipole
  | error in Hartree potential    :           0.04214082 Ha           1.14671010 eV
  | Sum of eigenvalues per atom                           :        -377.98910022 eV
  | Total energy (T->0) per atom                          :        -677.13227450 eV  <-- do not rely on this value for anything but (periodic) metals
  | Electronic free energy per atom                       :        -677.13227450 eV

  Self-consistency convergence accuracy:
  | Change of charge density      :  0.2085E-01
  | Change of sum of eigenvalues  : -0.5028E+01 eV
  | Change of total energy        :  0.8182E-02 eV

  End self-consistency iteration #     5       :  max(cpu_time)    wall_clock(cpu1)
  | Time for this iteration                    :        1.200 s           1.202 s
  | Charge density update                      :        0.391 s           0.392 s
  | Density mixing                             :        0.011 s           0.011 s
  | Hartree multipole update                   :        0.009 s           0.010 s
  | Hartree multipole summation                :        0.286 s           0.286 s
  | Integration                                :        0.500 s           0.500 s
  | Solution of K.-S. eqns.                    :        0.002 s           0.002 s
  | Total energy evaluation                    :        0.000 s           0.000 s

  Partial memory accounting:
  | Current value for overall tracked memory usage on task 0  :           0.166 MB
  | Peak value for overall tracked memory usage on task 0     :           0.696 MB after allocating gradient_basis_wave
  | Largest tracked array allocation on task 0 so far         :           0.397 MB  when allocating gradient_basis_wave
  Note:  These values currently only include a subset of arrays which are explicitly tracked.
  The "true" memory usage will be greater.
------------------------------------------------------------

------------------------------------------------------------
          Begin self-consistency iteration #    6

  Date     :  20200815, Time     :  004717.754
------------------------------------------------------------
  Evaluating new KS density.
  Integration grid: deviation in total charge (<rho> - N_e) =   2.842171E-14
  Pulay mixing of updated and previous charge densities.

  Evaluating partitioned Hartree potential by multipole expansion.
  | Analytical far-field extrapolation by fixed multipoles:
  | Hartree multipole sum: apparent total charge =  -0.366754E-03
  Summing up the Hartree potential.
  Time summed over all CPUs for potential: real work        0.285 s, elapsed        0.285 s
  | RMS charge density error from multipole expansion :   0.257435E-01

  Integrating Hamiltonian matrix: batch-based integration.
  Time summed over all CPUs for integration: real work        0.500 s, elapsed        0.500 s

  Updating Kohn-Sham eigenvalues and eigenvectors using ELSI and the ELPA eigensolver.
  Finished Cholesky decomposition
  | Time :     0.000 s
  Finished transformation to standard eigenproblem
  | Time :     0.000 s
  Starting LAPACK eigensolver
  Finished solving standard eigenproblem
  | Time :     0.001 s
  Finished back-transformation of eigenvectors
  | Time :     0.000 s

  Obtaining occupation numbers and chemical potential using ELSI.
  | Chemical potential (Fermi level):    -2.66727323eV
  Highest occupied state (VBM) at     -5.55827851 eV
  | Occupation number:      2.00000000

  Lowest unoccupied state (CBM) at    -1.42947088 eV
  | Occupation number:      0.00000000

  Overall HOMO-LUMO gap:      4.12880763 eV.

  Total energy components:
  | Sum of eigenvalues            :        -180.60045399 Ha       -4914.38839453 eV
  | XC energy correction          :         -42.64255982 Ha       -1160.36309138 eV
  | XC potential correction       :          54.82384637 Ha        1491.83276341 eV
  | Free-atom electrostatic energy:        -146.84702469 Ha       -3995.91085156 eV
  | Hartree energy correction     :          -8.22775222 Ha        -223.88852932 eV
  | vdW energy correction         :           0.00000000 Ha           0.00000000 eV
  | Entropy correction            :           0.00000000 Ha           0.00000000 eV
  | ---------------------------
  | Total energy                  :        -323.49394436 Ha       -8802.71810338 eV
  | Total energy, T -> 0          :        -323.49394436 Ha       -8802.71810338 eV  <-- do not rely on this value for anything but (periodic) metals
  | Electronic free energy        :        -323.49394436 Ha       -8802.71810338 eV

  Derived energy quantities:
  | Kinetic energy                :         322.61998753 Ha        8778.93652810 eV
  | Electrostatic energy          :        -603.47137207 Ha      -16421.29154010 eV
  | Energy correction for multipole
  | error in Hartree potential    :           0.04244365 Ha           1.15495053 eV
  | Sum of eigenvalues per atom                           :        -378.02987650 eV
  | Total energy (T->0) per atom                          :        -677.13216180 eV  <-- do not rely on this value for anything but (periodic) metals
  | Electronic free energy per atom                       :        -677.13216180 eV

  Self-consistency convergence accuracy:
  | Change of charge density      :  0.1073E-01
  | Change of sum of eigenvalues  : -0.5301E+00 eV
  | Change of total energy        :  0.1465E-02 eV

  End self-consistency iteration #     6       :  max(cpu_time)    wall_clock(cpu1)
  | Time for this iteration                    :        1.201 s           1.203 s
  | Charge density update                      :        0.391 s           0.392 s
  | Density mixing                             :        0.013 s           0.013 s
  | Hartree multipole update                   :        0.009 s           0.009 s
  | Hartree multipole summation                :        0.286 s           0.286 s
  | Integration                                :        0.500 s           0.500 s
  | Solution of K.-S. eqns.                    :        0.002 s           0.002 s
  | Total energy evaluation                    :        0.000 s           0.001 s

  Partial memory accounting:
  | Current value for overall tracked memory usage on task 0  :           0.166 MB
  | Peak value for overall tracked memory usage on task 0     :           0.696 MB after allocating gradient_basis_wave
  | Largest tracked array allocation on task 0 so far         :           0.397 MB  when allocating gradient_basis_wave
  Note:  These values currently only include a subset of arrays which are explicitly tracked.
  The "true" memory usage will be greater.
------------------------------------------------------------

------------------------------------------------------------
          Begin self-consistency iteration #    7

  Date     :  20200815, Time     :  004718.959
------------------------------------------------------------
  Evaluating new KS density.
  Integration grid: deviation in total charge (<rho> - N_e) =  -3.552714E-14
  Pulay mixing of updated and previous charge densities.

  Evaluating partitioned Hartree potential by multipole expansion.
  | Analytical far-field extrapolation by fixed multipoles:
  | Hartree multipole sum: apparent total charge =  -0.368002E-03
  Summing up the Hartree potential.
  Time summed over all CPUs for potential: real work        0.287 s, elapsed        0.287 s
  | RMS charge density error from multipole expansion :   0.258909E-01

  Integrating Hamiltonian matrix: batch-based integration.
  Time summed over all CPUs for integration: real work        0.505 s, elapsed        0.505 s

  Updating Kohn-Sham eigenvalues and eigenvectors using ELSI and the ELPA eigensolver.
  Finished Cholesky decomposition
  | Time :     0.000 s
  Finished transformation to standard eigenproblem
  | Time :     0.000 s
  Starting LAPACK eigensolver
  Finished solving standard eigenproblem
  | Time :     0.001 s
  Finished back-transformation of eigenvectors
  | Time :     0.000 s

[...]
  |   Hirshfeld dipole moment :      0.06243012
  |   Hirshfeld second moments:      0.00415791      -0.02315446      -0.01740375
  |                                 -0.02315446      -0.00760809       0.01223671
  |                                 -0.01740375       0.01223671      -0.01661118
  ----------------------------------------------------------------------
  | Atom    12: O
  |   Hirshfeld charge        :     -0.13349427
  |   Free atom volume        :     23.61338643
  |   Hirshfeld volume        :     20.43144002
  |   Hirshfeld dipole vector :      0.02233689       0.00641067       0.01836594
  |   Hirshfeld dipole moment :      0.02961995
  |   Hirshfeld second moments:      0.05540060      -0.01243731      -0.00586980
  |                                 -0.01243731       0.11184939      -0.00414121
  |                                 -0.00586980      -0.00414121       0.04789832
  ----------------------------------------------------------------------
  | Atom    13: H
  |   Hirshfeld charge        :      0.18107729
  |   Free atom volume        :      9.95071624
  |   Hirshfeld volume        :      6.18885299
  |   Hirshfeld dipole vector :      0.04092046      -0.11184651       0.01499305
  |   Hirshfeld dipole moment :      0.12003715
  |   Hirshfeld second moments:      0.11818621       0.00126035      -0.01105749
  |                                  0.00126035       0.12616286       0.00026900
  |                                 -0.01105749       0.00026900       0.09435018
  ----------------------------------------------------------------------


  Total energy components:
  | Sum of eigenvalues            :        -180.59123259 Ha       -4914.13746736 eV
  | XC energy correction          :         -42.64024731 Ha       -1160.30016477 eV
  | XC potential correction       :          54.82093672 Ha        1491.75358762 eV
  | Free-atom electrostatic energy:        -146.84702469 Ha       -3995.91085156 eV
  | Hartree energy correction     :          -8.23635658 Ha        -224.12266583 eV
  | vdW energy correction         :          -0.00326580 Ha          -0.08886691 eV
  | Entropy correction            :           0.00000000 Ha           0.00000000 eV
  | ---------------------------
  | Total energy                  :        -323.49719026 Ha       -8802.80642882 eV
  | Total energy, T -> 0          :        -323.49719026 Ha       -8802.80642882 eV  <-- do not rely on this value for anything but (periodic) metals
  | Electronic free energy        :        -323.49719026 Ha       -8802.80642882 eV

  Derived energy quantities:
  | Kinetic energy                :         322.58170260 Ha        8777.89474218 eV
  | Electrostatic energy          :        -603.43537975 Ha      -16420.31213932 eV
  | Energy correction for multipole
  | error in Hartree potential    :           0.04252052 Ha           1.15704218 eV
  | Sum of eigenvalues per atom                           :        -378.01057441 eV
  | Total energy (T->0) per atom                          :        -677.13895606 eV  <-- do not rely on this value for anything but (periodic) metals
  | Electronic free energy per atom                       :        -677.13895606 eV

  atomic forces [eV/Ang]:
  -----------------------
  atom #    1
   Hellmann-Feynman              :  0.187247E-01  0.410588E+00  0.746069E+00
   Ionic forces                  :  0.000000E+00  0.000000E+00  0.000000E+00
   Multipole                     :  0.237566E+00  0.178756E+00 -0.247405E+00
   Pulay + GGA                   : -0.102481E+01 -0.454923E+00 -0.104277E+01
   Van der Waals                 :  0.214614E-02  0.307758E-02 -0.169086E-02
   ----------------------------------------------------------------
   Total forces(   1)            : -0.766375E+00  0.137499E+00 -0.545792E+00
  atom #    2
   Hellmann-Feynman              :  0.296620E+00 -0.791030E-01  0.206895E+00
   Ionic forces                  :  0.000000E+00  0.000000E+00  0.000000E+00
   Multipole                     :  0.172848E+00  0.157709E-01 -0.331728E-02
   Pulay + GGA                   : -0.124517E+00  0.164251E-01  0.322698E-01
   Van der Waals                 :  0.667433E-02 -0.449466E-02 -0.431290E-02
   ----------------------------------------------------------------
   Total forces(   2)            :  0.351626E+00 -0.514017E-01  0.231535E+00
  atom #    3
   Hellmann-Feynman              : -0.766590E+01  0.835907E+01 -0.356660E+00
   Ionic forces                  :  0.000000E+00  0.000000E+00  0.000000E+00
   Multipole                     : -0.157267E+00  0.229500E+00 -0.108936E+01
   Pulay + GGA                   :  0.799007E+01 -0.828684E+01  0.197246E+01
   Van der Waals                 :  0.327419E-02 -0.819335E-02 -0.642502E-02
   ----------------------------------------------------------------
   Total forces(   3)            :  0.170176E+00  0.293540E+00  0.520009E+00
  atom #    4
   Hellmann-Feynman              : -0.176176E-01 -0.235660E+00 -0.143100E+00
   Ionic forces                  :  0.000000E+00  0.000000E+00  0.000000E+00
   Multipole                     :  0.299876E-01 -0.189761E-02 -0.104342E+00
   Pulay + GGA                   : -0.192735E+00  0.488743E-01  0.119687E+00
   Van der Waals                 : -0.364809E-02 -0.942185E-03  0.606296E-02
   ----------------------------------------------------------------
   Total forces(   4)            : -0.184013E+00 -0.189626E+00 -0.121693E+00
  atom #    5
   Hellmann-Feynman              :  0.128201E+00 -0.217743E+00 -0.279650E+00
   Ionic forces                  :  0.000000E+00  0.000000E+00  0.000000E+00
   Multipole                     : -0.412716E-01 -0.696983E-01 -0.798685E-01
   Pulay + GGA                   :  0.231324E-01  0.223275E+00  0.651641E-01
   Van der Waals                 : -0.160577E-02  0.166788E-02  0.351013E-02
   ----------------------------------------------------------------
   Total forces(   5)            :  0.108456E+00 -0.624981E-01 -0.290844E+00
  atom #    6
   Hellmann-Feynman              : -0.158002E-01 -0.509908E+00  0.574164E+00
   Ionic forces                  :  0.000000E+00  0.000000E+00  0.000000E+00
   Multipole                     : -0.958031E-01  0.626101E+00  0.236852E+00
   Pulay + GGA                   :  0.268810E+00 -0.435113E+00 -0.594517E+00
   Van der Waals                 : -0.317445E-02  0.535673E-02 -0.391870E-02
   ----------------------------------------------------------------
   Total forces(   6)            :  0.154032E+00 -0.313564E+00  0.212580E+00
  atom #    7
   Hellmann-Feynman              : -0.191501E+00 -0.533402E-01 -0.674869E-01
   Ionic forces                  :  0.000000E+00  0.000000E+00  0.000000E+00
   Multipole                     : -0.120543E+00  0.501649E-01  0.237626E-01
   Pulay + GGA                   :  0.122130E+00  0.385895E-02 -0.268004E-01
   Van der Waals                 : -0.124184E-02  0.115072E-02  0.278907E-02
   ----------------------------------------------------------------
   Total forces(   7)            : -0.191156E+00  0.183443E-02 -0.677356E-01
  atom #    8
   Hellmann-Feynman              :  0.937219E-01 -0.255491E-01  0.181691E+00
   Ionic forces                  :  0.000000E+00  0.000000E+00  0.000000E+00
   Multipole                     :  0.148224E-01  0.601896E-01  0.121837E+00
   Pulay + GGA                   : -0.409012E-01 -0.323580E-01 -0.816396E-01
   Van der Waals                 : -0.253540E-02  0.115179E-01  0.164521E-02
   ----------------------------------------------------------------
   Total forces(   8)            :  0.651077E-01  0.138004E-01  0.223534E+00
  atom #    9
   Hellmann-Feynman              :  0.101370E+00  0.200085E-01 -0.181588E+00
   Ionic forces                  :  0.000000E+00  0.000000E+00  0.000000E+00
   Multipole                     :  0.138034E-01  0.126503E+00 -0.141289E-01
   Pulay + GGA                   : -0.630135E-01 -0.911505E-01  0.367458E-01
   Van der Waals                 : -0.175096E-02  0.221624E-02  0.273372E-02
   ----------------------------------------------------------------
   Total forces(   9)            :  0.504084E-01  0.575768E-01 -0.156237E+00
  atom #   10
   Hellmann-Feynman              :  0.298090E+01  0.570487E+01  0.121225E+01
   Ionic forces                  :  0.000000E+00  0.000000E+00  0.000000E+00
   Multipole                     :  0.300779E-01 -0.955224E-01  0.192385E+00
   Pulay + GGA                   : -0.198793E+01 -0.288071E+01 -0.205009E+00
   Van der Waals                 :  0.348707E-02 -0.118708E-01 -0.827963E-03
   ----------------------------------------------------------------
   Total forces(  10)            :  0.102653E+01  0.271677E+01  0.119880E+01
  atom #   11
   Hellmann-Feynman              :  0.415672E+01 -0.229266E+01  0.141810E+02
   Ionic forces                  :  0.000000E+00  0.000000E+00  0.000000E+00
   Multipole                     :  0.148053E+00 -0.644045E+00  0.736326E+00
   Pulay + GGA                   : -0.318671E+01  0.328831E+01 -0.136014E+02
   Van der Waals                 : -0.356260E-02 -0.117308E-01  0.101625E-02
   ----------------------------------------------------------------
   Total forces(  11)            :  0.111449E+01  0.339875E+00  0.131698E+01
  atom #   12
   Hellmann-Feynman              : -0.970805E+01  0.157356E+01 -0.130347E+02
   Ionic forces                  :  0.000000E+00  0.000000E+00  0.000000E+00
   Multipole                     : -0.100106E+01 -0.100748E+01 -0.536094E+00
   Pulay + GGA                   :  0.968602E+01 -0.260164E+01  0.108631E+02
   Van der Waals                 :  0.172013E-02  0.722327E-02  0.315050E-02
   ----------------------------------------------------------------
   Total forces(  12)            : -0.102137E+01 -0.202834E+01 -0.270448E+01
  atom #   13
   Hellmann-Feynman              : -0.790026E+00 -0.116362E+01  0.278607E+00
   Ionic forces                  :  0.000000E+00  0.000000E+00  0.000000E+00
   Multipole                     :  0.490013E-01 -0.856222E-01  0.136787E-01
   Pulay + GGA                   : -0.136394E+00  0.323711E+00 -0.107436E+00
   Van der Waals                 :  0.217242E-03  0.502149E-02 -0.373240E-02
   ----------------------------------------------------------------
   Total forces(  13)            : -0.877202E+00 -0.920510E+00  0.181117E+00

  Timings for VdW correction (Tkatchenko-Scheffler 2009 or later):
  | CPU time:        0.090 s, Wall clock time:        0.091 s.
  Removing unitary transformations (pure translations, rotations) from forces on atoms.
  Atomic forces before filtering:
  | Net force on center of mass :   0.711639E-03 -0.504808E-02 -0.222902E-02 eV/A
  | Net torque on center of mass:  -0.690787E-02  0.440801E-02 -0.450851E-02 eV
  Atomic forces after filtering:
  | Net force on center of mass :   0.535218E-15  0.000000E+00 -0.267609E-15 eV/A
  | Net torque on center of mass:   0.207699E-14 -0.236021E-15 -0.113290E-14 eV

  Energy and forces in a compact form:
  | Total energy uncorrected      :         -0.880280642881587E+04 eV
  | Total energy corrected        :         -0.880280642881587E+04 eV  <-- do not rely on this value for anything but (periodic) metals
  | Electronic free energy        :         -0.880280642881587E+04 eV
  Total atomic forces (unitary forces cleaned) [eV/Ang]:
  |   1         -0.766436096195785E+00          0.137951521453380E+00         -0.545525227501738E+00
  |   2          0.351564624769160E+00         -0.508058349612153E-01          0.231997672150912E+00
  |   3          0.170367631252976E+00          0.294137123433010E+00          0.520189277291650E+00
  |   4         -0.183725165868156E+00         -0.188832441274356E+00         -0.121351156168694E+00
  |   5          0.108797280797058E+00         -0.619342340822476E-01         -0.290877128536586E+00
  |   6          0.153674966181610E+00         -0.313283173685836E+00          0.212943412066060E+00
  |   7         -0.191519560618113E+00          0.196970048905240E-02         -0.675641724315622E-01
  |   8          0.645641116654615E-01          0.139770646205144E-01          0.223963762847457E+00
  |   9          0.500239641045242E-01          0.579789794468317E-01         -0.155676832609722E+00
  |  10          0.102650798568711E+01          0.271705790317911E+01          0.119880694767095E+01
  |  11          0.111429746034878E+01          0.340038176237373E+00          0.131700018394857E+01
  |  12         -0.102116656537393E+01         -0.202804205315163E+01         -0.270472881541017E+01
  |  13         -0.876950636750705E+00         -0.920212731703995E+00          0.180822076682869E+00

  ------------------------------------ 
  Start decomposition of the XC Energy 
  ------------------------------------ 
  X and C from original XC functional choice 
  Hartree-Fock Energy :          0.000000000 Ha              0.000000000 eV
  X Energy            :        -41.039527393 Ha          -1116.742359580 eV
  C Energy            :         -1.600719919 Ha            -43.557805191 eV
  Total XC Energy     :        -42.640247312 Ha          -1160.300164771 eV
  ------------------------------------ 
  LDA X and C from self-consistent density 
  X Energy LDA        :        -37.258832385 Ha          -1013.864414059 eV
  C Energy LDA        :         -3.138706618 Ha            -85.408552611 eV
  ------------------------------------ 
  End decomposition of the XC Energy 
  ------------------------------------ 

------------------------------------------------------------

------------------------------------------------------------------------------
  Final output of selected total energy values:

  The following output summarizes some interesting total energy values
  at the end of a run (AFTER all relaxation, molecular dynamics, etc.).

  | Total energy of the DFT / Hartree-Fock s.c.f. calculation      :          -8802.806428816 eV
  | Final zero-broadening corrected energy (caution - metals only) :          -8802.806428816 eV
  | For reference only, the value of 1 Hartree used in FHI-aims is :             27.211384500 eV

  Before relying on these values, please be sure to understand exactly which
  total energy value is referred to by a given number. Different objects may
  all carry the same name 'total energy'. Definitions:

  Total energy of the DFT / Hartree-Fock s.c.f. calculation:
  | Note that this energy does not include ANY quantities calculated after the
  | s.c.f. cycle, in particular not ANY RPA, MP2, etc. many-body perturbation terms.

  Final zero-broadening corrected energy:
  | For metallic systems only, a broadening of the occupation numbers at the Fermi
  | level can be extrapolated back to zero broadening by an electron-gas inspired
  | formula. For all systems that are not real metals, this value can be
  | meaningless and should be avoided.

------------------------------------------------------------------------------
  Methods described in the following list of references were used in this FHI-aims run.
  If you publish the results, please make sure to cite these reference if they apply.
  FHI-aims is an academic code, and for our developers (often, Ph.D. students
  and postdocs), scientific credit in the community is essential.
  Thank you for helping us!

  For any use of FHI-aims, please cite:

    Volker Blum, Ralf Gehrke, Felix Hanke, Paula Havu, Ville Havu,
    Xinguo Ren, Karsten Reuter, and Matthias Scheffler
    'Ab initio molecular simulations with numeric atom-centered orbitals'
    Computer Physics Communications 180, 2175-2196 (2009)
    http://dx.doi.org/10.1016/j.cpc.2009.06.022


  The scalable eigensolver library ELPA was used in your run.
  ELPA is essential especially for large systems on hundreds or thousands of CPUs.
  For ELPA, please cite:

    Andreas Marek, Volker Blum, Rainer Johanni, Ville Havu, Bruno Lang,
    Thomas Auckenthaler, Alexander Heinecke, Hans-Joachim Bungartz, and Hermann Lederer,
    'The ELPA Library - Scalable Parallel Eigenvalue Solutions
    for Electronic Structure Theory and Computational Science'
    The Journal of Physics: Condensed Matter 26, 213201 (2014).
    http://dx.doi.org/10.1088/0953-8984/26/21/213201


  The ELSI infrastructure was used in your run to solve the Kohn-Sham electronic structure.
  Please check out http://elsi-interchange.org to learn more.
  If scalability is important for your project, please acknowledge ELSI by citing:

    V. W-z. Yu, F. Corsetti, A. Garcia, W. P. Huhn, M. Jacquelin, W. Jia,
    B. Lange, L. Lin, J. Lu, W. Mi, A. Seifitokaldani, A. Vazquez-Mayagoitia,
    C. Yang, H. Yang, and V. Blum
    'ELSI: A unified software interface for Kohn-Sham electronic structure solvers'
    Computer Physics Communications 222, 267-285 (2018).
    http://dx.doi.org/10.1016/j.cpc.2017.09.007


  For the real-space grid partitioning and parallelization used in this calculation, please cite:

    Ville Havu, Volker Blum, Paula Havu, and Matthias Scheffler,
    'Efficient O(N) integration for all-electron electronic structure calculation'
    'using numerically tabulated basis functions'
    Journal of Computational Physics 228, 8367-8379 (2009).
    http://dx.doi.org/10.1016/j.jcp.2009.08.008

  Of course, there are many other important community references, e.g., those cited in the
  above references. Our list is limited to references that describe implementations in the
  FHI-aims code. The reason is purely practical (length of this list) - please credit others as well.

------------------------------------------------------------
          Leaving FHI-aims.
          Date     :  20200815, Time     :  004733.550

          Computational steps:
          | Number of self-consistency cycles          :           16
          | Number of SCF (re)initializations          :            1

          Detailed time accounting                     :  max(cpu_time)    wall_clock(cpu1)
          | Total time                                 :       23.087 s          23.177 s
          | Preparation time                           :        0.152 s           0.154 s
          | Boundary condition initalization           :        0.000 s           0.000 s
          | Grid partitioning                          :        0.113 s           0.113 s
          | Preloading free-atom quantities on grid    :        0.002 s           0.003 s
          | Free-atom superposition energy             :        0.086 s           0.085 s
          | Total time for integrations                :        8.756 s           8.770 s
          | Total time for solution of K.-S. equations :        0.037 s           0.037 s
          | Total time for density & force components  :        7.256 s           7.272 s
          | Total time for mixing                      :        0.227 s           0.228 s
          | Total time for Hartree multipole update    :        0.143 s           0.145 s
          | Total time for Hartree multipole sum       :        5.911 s           5.922 s
          | Total time for total energy evaluation     :        0.003 s           0.002 s
          | Total time for vdW correction              :        0.090 s           0.091 s

          Partial memory accounting:
          | Residual value for overall tracked memory usage across tasks :           0.000 MB (should be 0.000 MB)
          | Peak values for overall tracked memory usage (after allocating hessian_basis_wave):
          |   Minimum:        1.622 MB (on task 1)
          |   Maximum:        1.622 MB (on task 1)
          |   Average:        1.622 MB
          | Largest tracked array allocation (hessian_basis_wave):
          |   Minimum:        0.794 MB (on task 1)
          |   Maximum:        0.794 MB (on task 1)
          |   Average:        0.794 MB
          Note:  These values currently only include a subset of arrays which are explicitly tracked.
          The "true" memory usage will be greater.

          Have a nice day.
------------------------------------------------------------
