  MPI-parallelism will be employed.
------------------------------------------------------------
          Invoking FHI-aims ...
          Version 171221_1
          Compiled on 2019/09/09 at 14:39:39 on host puhti-login2.bullx.

          When using FHI-aims, please cite the following reference:

          Volker Blum, Ralf Gehrke, Felix Hanke, Paula Havu,
          Ville Havu, Xinguo Ren, Karsten Reuter, and Matthias Scheffler,
          'Ab Initio Molecular Simulations with Numeric Atom-Centered Orbitals',
          Computer Physics Communications 180, 2175-2196 (2009)

          For any questions about FHI-aims, please visit the aimsclub website
          with its forums and wiki. Contributions to both the forums and the
          wiki are warmly encouraged - they are for you, and everyone is welcome there.

------------------------------------------------------------



  Date     :  20200805, Time     :  181039.917
  Time zero on CPU 1             :   0.121120000000000E-01  s.
  Internal wall clock time zero  :           365883039.917  s.

  FHI-aims created a unique identifier for this run for later identification
  aims_uuid : CF9DB0AD-84F8-4454-AC85-84B8C1EF9C49

  Using        1 parallel tasks.
  Task        0 on host r13c46.bullx reporting.

  Performing system and environment tests:
  | Environment variable OMP_NUM_THREADS correctly set to 1.
  | Stacksize not measured: no C compiler
  | Checking for scalapack...
  | Testing pdtran()...
  | All pdtran() tests passed.

  Obtaining array dimensions for all initial allocations:
  
  -----------------------------------------------------------------------
  Parsing control.in (first pass over file, find array dimensions only).
  The contents of control.in will be repeated verbatim below
  unless switched off by setting 'verbatim_writeout .false.' .
  in the first line of control.in .
  -----------------------------------------------------------------------
  
  #########################################################################################
  #
  #  Volker Blum, FHI 2009 : Test run input file control.in for simple H2O
  #
  #########################################################################################
  #
  #  Physical model
  #
    xc                 pbe
    vdw_correction_hirshfeld
    spin               none
    relativistic       none
    charge             0.
  #
  #  SCF convergence
  #
    occupation_type    gaussian 0.01
    mixer              pulay
      n_max_pulay        10
      charge_mix_param   0.2
    sc_accuracy_rho    1E-5
    sc_accuracy_eev    1E-3
    sc_accuracy_etot   1E-6
    sc_accuracy_forces 1E-4
    sc_iter_limit      100
  #
  #  Relaxation
  #
  #  relax_geometry   bfgs 1.e-3
  #
  ################################################################################
  #
  #  FHI-aims code project
  #  VB, Fritz-Haber Institut, 2009
  #
  #  Suggested "light" defaults for H atom (to be pasted into control.in file)
  #  Be sure to double-check any results obtained with these settings for post-processing,
  #  e.g., with the "tight" defaults and larger basis sets.
  #
  ################################################################################
    species        H
  #     global species definitions
      nucleus             1
      mass                1.00794
  #
      l_hartree           4
  #
      cut_pot             3.5  1.5  1.0
      basis_dep_cutoff    1e-4
  #
      radial_base         24 5.0
      radial_multiplier   1
      angular_grids       specified
        division   0.2421   50
        division   0.3822  110
        division   0.4799  194
        division   0.5341  302
  #      division   0.5626  434
  #      division   0.5922  590
  #      division   0.6542  770
  #      division   0.6868 1202
  #      outer_grid  770
        outer_grid  302
  ################################################################################
  #
  #  Definition of "minimal" basis
  #
  ################################################################################
  #     valence basis states
      valence      1  s   1.
  #     ion occupancy
      ion_occ      1  s   0.5
  ################################################################################
  #
  #  Suggested additional basis functions. For production calculations,
  #  uncomment them one after another (the most important basis functions are
  #  listed first).
  #
  #  Basis constructed for dimers: 0.5 A, 0.7 A, 1.0 A, 1.5 A, 2.5 A
  #
  ################################################################################
  #  "First tier" - improvements: -1014.90 meV to -62.69 meV
       hydro 2 s 2.1
       hydro 2 p 3.5
  #  "Second tier" - improvements: -12.89 meV to -1.83 meV
  #     hydro 1 s 0.85
  #     hydro 2 p 3.7
  #     hydro 2 s 1.2
  #     hydro 3 d 7
  #  "Third tier" - improvements: -0.25 meV to -0.12 meV
  #     hydro 4 f 11.2
  #     hydro 3 p 4.8
  #     hydro 4 d 9
  #     hydro 3 s 3.2
  ################################################################################
  #
  #  FHI-aims code project
  #  VB, Fritz-Haber Institut, 2009
  #
  #  Suggested "light" defaults for C atom (to be pasted into control.in file)
  #  Be sure to double-check any results obtained with these settings for post-processing,
  #  e.g., with the "tight" defaults and larger basis sets.
  #
  ################################################################################
    species        C
  #     global species definitions
      nucleus             6
      mass                12.0107
  #
      l_hartree           4
  #
      cut_pot             3.5  1.5  1.0
      basis_dep_cutoff    1e-4
  #
      radial_base         34 5.0
      radial_multiplier   1
      angular_grids specified
        division   0.3326   50
        division   0.5710  110
        division   0.7727  194
        division   0.8772  302
  #      division   0.9334  434
  #      division   0.9625  590
  #      division   0.9924  770
  #      division   1.0230  974
  #      division   1.4589 1202
  #     outer_grid  974
       outer_grid 302
  ################################################################################
  #
  #  Definition of "minimal" basis
  #
  ################################################################################
  #     valence basis states
      valence      2  s   2.
      valence      2  p   2.
  #     ion occupancy
      ion_occ      2  s   1.
      ion_occ      2  p   1.
  ################################################################################
  #
  #  Suggested additional basis functions. For production calculations,
  #  uncomment them one after another (the most important basis functions are
  #  listed first).
  #
  #  Constructed for dimers: 1.0 A, 1.25 A, 1.5 A, 2.0 A, 3.0 A
  #
  ################################################################################
  #  "First tier" - improvements: -1214.57 meV to -155.61 meV
       hydro 2 p 1.7
       hydro 3 d 6
       hydro 2 s 4.9
  #  "Second tier" - improvements: -67.75 meV to -5.23 meV
  #     hydro 4 f 9.8
  #     hydro 3 p 5.2
  #     hydro 3 s 4.3
  #     hydro 5 g 14.4
  #     hydro 3 d 6.2
  #  "Third tier" - improvements: -2.43 meV to -0.60 meV
  #     hydro 2 p 5.6
  #     hydro 2 s 1.4
  #     hydro 3 d 4.9
  #     hydro 4 f 11.2
  #  "Fourth tier" - improvements: -0.39 meV to -0.18 meV
  #     hydro 2 p 2.1
  #     hydro 5 g 16.4
  #     hydro 4 d 13.2
  #     hydro 3 s 13.6
  #     hydro 4 f 17.6
  #  Further basis functions - improvements: -0.08 meV and below
  #     hydro 3 s 2
  #     hydro 3 p 6
  #     hydro 4 d 20
  ################################################################################
  #
  #  FHI-aims code project
  #  VB, Fritz-Haber Institut, 2009
  #
  #  Suggested "light" defaults for N atom (to be pasted into control.in file)
  #  Be sure to double-check any results obtained with these settings for post-processing,
  #  e.g., with the "tight" defaults and larger basis sets.
  #
  ################################################################################
    species        N
  #     global species definitions
      nucleus             7
      mass                14.0067
  #
      l_hartree           4
  #
      cut_pot             3.5  1.5  1.0
      basis_dep_cutoff    1e-4
  #
      radial_base         35 5.0
      radial_multiplier   1
      angular_grids       specified
        division   0.2599   50
        division   0.4601  110
        division   0.5885  194
        division   0.6503  302
  #      division   0.6939  434
  #      division   0.7396  590
  #      division   0.7632  770
  #      division   0.8122  974
  #      division   1.1604 1202
  #      outer_grid  974
        outer_grid  302
  ################################################################################
  #
  #  Definition of "minimal" basis
  #
  ################################################################################
  #     valence basis states
      valence      2  s   2.
      valence      2  p   3.
  #     ion occupancy
      ion_occ      2  s   1.
      ion_occ      2  p   2.
  ################################################################################
  #
  #  Suggested additional basis functions. For production calculations,
  #  uncomment them one after another (the most important basis functions are
  #  listed first).
  #
  #  Constructed for dimers: 1.0 A, 1.1 A, 1.5 A, 2.0 A, 3.0 A
  #
  ################################################################################
  #  "First tier" - improvements: -1193.42 meV to -220.60 meV
       hydro 2 p 1.8
       hydro 3 d 6.8
       hydro 3 s 5.8
  #  "Second tier" - improvements: -80.21 meV to -6.86 meV
  #     hydro 4 f 10.8
  #     hydro 3 p 5.8
  #     hydro 1 s 0.8
  #     hydro 5 g 16
  #     hydro 3 d 4.9
  #  "Third tier" - improvements: -4.29 meV to -0.53 meV
  #     hydro 3 s 16
  #     ionic 2 p auto
  #     hydro 3 d 6.6
  #     hydro 4 f 11.6
  #  "Fourth tier" - improvements: -0.75 meV to -0.25 meV
  #     hydro 2 p 4.5
  #     hydro 2 s 2.4
  #     hydro 5 g 14.4
  #     hydro 4 d 14.4
  #     hydro 4 f 16.8
  # Further basis functions - -0.21 meV and below
  #     hydro 3 p 14.8
  #     hydro 3 s 4.4
  #     hydro 3 d 19.6
  #     hydro 5 g 12.8
  ################################################################################
  #
  #  FHI-aims code project
  #  VB, Fritz-Haber Institut, 2009
  #
  #  Suggested "light" defaults for O atom (to be pasted into control.in file)
  #  Be sure to double-check any results obtained with these settings for post-processing,
  #  e.g., with the "tight" defaults and larger basis sets.
  #
  ################################################################################
    species        O
  #     global species definitions
      nucleus             8
      mass                15.9994
  #
      l_hartree           4
  #
      cut_pot             3.5  1.5  1.0
      basis_dep_cutoff    1e-4
  #
      radial_base         36 5.0
      radial_multiplier   1
       angular_grids specified
        division   0.2659   50
        division   0.4451  110
        division   0.6052  194
        division   0.7543  302
  #      division   0.8014  434
  #      division   0.8507  590
  #      division   0.8762  770
  #      division   0.9023  974
  #      division   1.2339 1202
  #      outer_grid 974
        outer_grid 302
  ################################################################################
  #
  #  Definition of "minimal" basis
  #
  ################################################################################
  #     valence basis states
      valence      2  s   2.
      valence      2  p   4.
  #     ion occupancy
      ion_occ      2  s   1.
      ion_occ      2  p   3.
  ################################################################################
  #
  #  Suggested additional basis functions. For production calculations,
  #  uncomment them one after another (the most important basis functions are
  #  listed first).
  #
  #  Constructed for dimers: 1.0 A, 1.208 A, 1.5 A, 2.0 A, 3.0 A
  #
  ################################################################################
  #  "First tier" - improvements: -699.05 meV to -159.38 meV
       hydro 2 p 1.8
       hydro 3 d 7.6
       hydro 3 s 6.4
  #  "Second tier" - improvements: -49.91 meV to -5.39 meV
  #     hydro 4 f 11.6
  #     hydro 3 p 6.2
  #     hydro 3 d 5.6
  #     hydro 5 g 17.6
  #     hydro 1 s 0.75
  #  "Third tier" - improvements: -2.83 meV to -0.50 meV
  #     ionic 2 p auto
  #     hydro 4 f 10.8
  #     hydro 4 d 4.7
  #     hydro 2 s 6.8
  #  "Fourth tier" - improvements: -0.40 meV to -0.12 meV
  #     hydro 3 p 5
  #     hydro 3 s 3.3
  #     hydro 5 g 15.6
  #     hydro 4 f 17.6
  #     hydro 4 d 14
  # Further basis functions - -0.08 meV and below
  #     hydro 3 s 2.1
  #     hydro 4 d 11.6
  #     hydro 3 p 16
  #     hydro 2 s 17.2
  
  -----------------------------------------------------------------------
  Completed first pass over input file control.in .
  -----------------------------------------------------------------------
  
  
  -----------------------------------------------------------------------
  Parsing geometry.in (first pass over file, find array dimensions only).
  The contents of geometry.in will be repeated verbatim below
  unless switched off by setting 'verbatim_writeout .false.' .
  in the first line of geometry.in .
  -----------------------------------------------------------------------
  
  atom  0.00000 0.00000 0.00000 C
  atom  1.09300 0.00000 0.00000 H
  atom  -0.47961 0.00000 -1.41207 N
  atom  -1.08635 -0.80887 -1.55143 H
  atom  -0.99601 0.86059 -1.58187 H
  atom  -0.49584 1.26211 0.72868 C
  atom  -1.58789 1.28919 0.74431 H
  atom  -0.13407 1.27425 1.75947 H
  atom  -0.13407 2.16087 0.22380 H
  atom  -0.39425 -1.28861 0.74398 C
  atom  -0.10189 -1.56493 1.88303 O
  atom  -1.10210 -2.13717 0.06896 O
  atom  -1.76198 -2.34612 0.75152 H
  
  -----------------------------------------------------------------------
  Completed first pass over input file geometry.in .
  -----------------------------------------------------------------------
  

  Basic array size parameters:
  | Number of species                 :        4
  | Number of atoms                   :       13
  | Max. basis fn. angular momentum   :        2
  | Max. atomic/ionic basis occupied n:        2
  | Max. number of basis fn. types    :        2
  | Max. radial fns per species/type  :        3
  | Max. logarithmic grid size        :     1301
  | Max. radial integration grid size :       36
  | Max. angular integration grid size:      302
  | Max. angular grid division number :        8
  | Radial grid for Hartree potential :     1301
  | Number of spin channels           :        1

------------------------------------------------------------
          Reading file control.in.
------------------------------------------------------------
  XC: Using PBE gradient-corrected functionals.
  Spin treatment: No spin polarisation.
  Non-relativistic treatment of kinetic energy.
  Charge =   0.000000E+00: Neutral system requested explicitly.
  Occupation type: Gaussian broadening, width =   0.100000E-01 eV.
  Using pulay charge density mixing.
  Pulay mixing - number of memorized iterations:   10
  Charge density mixing - mixing parameter:     0.2000
  Convergence accuracy of self-consistent charge density:  0.1000E-04
  Convergence accuracy of sum of eigenvalues:  0.1000E-02
  Convergence accuracy of total energy:  0.1000E-05
  Convergence accuracy of forces:  0.1000E-03
  Maximum number of s.-c. iterations  :   100
 
  Reading configuration options for species H                   .
  | Found nuclear charge :   1.0000
  | Found atomic mass :    1.00794000000000      amu
  | Found l_max for Hartree potential  :   4
  | Found cutoff potl. onset [A], width [A], scale factor :    3.50000    1.50000    1.00000
  | Threshold for basis-dependent cutoff potential is   0.100000E-03
  | Found data for basic radial integration grid :    24 points, outermost radius =    5.000 A
  | Found multiplier for basic radial grid :   1
  | Found angular grid specification: user-specified.
  | Specified grid contains     5 separate shells.
  | Check grid settings after all constraints further below.
  | Found free-atom valence shell :  1 s   1.000
  | No ionic wave fns used. Skipping ion_occ.
  | Found hydrogenic basis function :  2 s   2.100
  | Found hydrogenic basis function :  2 p   3.500
  Species H                   : Missing cutoff potential type.
  Defaulting to exp(1/x)/(1-x)^2 type cutoff potential.
  Species H : No 'logarithmic' tag. Using default grid for free atom:
  | Default logarithmic grid data [bohr] : 0.1000E-03 0.1000E+03 0.1012E+01
  Species H : On-site basis accuracy parameter (for Gram-Schmidt orthonormalisation) not specified.
  Using default value basis_acc =  0.1000000E-03.
  Species H                   : Using default innermost maximum threshold i_radial=  2 for radial functions.
  Species H                   : Default cutoff onset for free atom density etc. : 0.35000000E+01 AA.
  Species H                   : Basic radial grid will be enhanced according to radial_multiplier =   1, to contain    24 grid points.
 
  Reading configuration options for species C                   .
  | Found nuclear charge :   6.0000
  | Found atomic mass :    12.0107000000000      amu
  | Found l_max for Hartree potential  :   4
  | Found cutoff potl. onset [A], width [A], scale factor :    3.50000    1.50000    1.00000
  | Threshold for basis-dependent cutoff potential is   0.100000E-03
  | Found data for basic radial integration grid :    34 points, outermost radius =    5.000 A
  | Found multiplier for basic radial grid :   1
  | Found angular grid specification: user-specified.
  | Specified grid contains     5 separate shells.
  | Check grid settings after all constraints further below.
  | Found free-atom valence shell :  2 s   2.000
  | Found free-atom valence shell :  2 p   2.000
  | No ionic wave fns used. Skipping ion_occ.
  | No ionic wave fns used. Skipping ion_occ.
  | Found hydrogenic basis function :  2 p   1.700
  | Found hydrogenic basis function :  3 d   6.000
  | Found hydrogenic basis function :  2 s   4.900
  Species C                   : Missing cutoff potential type.
  Defaulting to exp(1/x)/(1-x)^2 type cutoff potential.
  Species C : No 'logarithmic' tag. Using default grid for free atom:
  | Default logarithmic grid data [bohr] : 0.1000E-03 0.1000E+03 0.1012E+01
  Species C : On-site basis accuracy parameter (for Gram-Schmidt orthonormalisation) not specified.
  Using default value basis_acc =  0.1000000E-03.
  Species C                   : Using default innermost maximum threshold i_radial=  2 for radial functions.
  Species C                   : Default cutoff onset for free atom density etc. : 0.35000000E+01 AA.
  Species C                   : Basic radial grid will be enhanced according to radial_multiplier =   1, to contain    34 grid points.
 
  Reading configuration options for species N                   .
  | Found nuclear charge :   7.0000
  | Found atomic mass :    14.0067000000000      amu
  | Found l_max for Hartree potential  :   4
  | Found cutoff potl. onset [A], width [A], scale factor :    3.50000    1.50000    1.00000
  | Threshold for basis-dependent cutoff potential is   0.100000E-03
  | Found data for basic radial integration grid :    35 points, outermost radius =    5.000 A
  | Found multiplier for basic radial grid :   1
  | Found angular grid specification: user-specified.
  | Specified grid contains     5 separate shells.
  | Check grid settings after all constraints further below.
  | Found free-atom valence shell :  2 s   2.000
  | Found free-atom valence shell :  2 p   3.000
  | No ionic wave fns used. Skipping ion_occ.
  | No ionic wave fns used. Skipping ion_occ.
  | Found hydrogenic basis function :  2 p   1.800
  | Found hydrogenic basis function :  3 d   6.800
  | Found hydrogenic basis function :  3 s   5.800
  Species N                   : Missing cutoff potential type.
  Defaulting to exp(1/x)/(1-x)^2 type cutoff potential.
  Species N : No 'logarithmic' tag. Using default grid for free atom:
  | Default logarithmic grid data [bohr] : 0.1000E-03 0.1000E+03 0.1012E+01
  Species N : On-site basis accuracy parameter (for Gram-Schmidt orthonormalisation) not specified.
  Using default value basis_acc =  0.1000000E-03.
  Species N                   : Using default innermost maximum threshold i_radial=  2 for radial functions.
  Species N                   : Default cutoff onset for free atom density etc. : 0.35000000E+01 AA.
  Species N                   : Basic radial grid will be enhanced according to radial_multiplier =   1, to contain    35 grid points.
 
  Reading configuration options for species O                   .
  | Found nuclear charge :   8.0000
  | Found atomic mass :    15.9994000000000      amu
  | Found l_max for Hartree potential  :   4
  | Found cutoff potl. onset [A], width [A], scale factor :    3.50000    1.50000    1.00000
  | Threshold for basis-dependent cutoff potential is   0.100000E-03
  | Found data for basic radial integration grid :    36 points, outermost radius =    5.000 A
  | Found multiplier for basic radial grid :   1
  | Found angular grid specification: user-specified.
  | Specified grid contains     5 separate shells.
  | Check grid settings after all constraints further below.
  | Found free-atom valence shell :  2 s   2.000
  | Found free-atom valence shell :  2 p   4.000
  | No ionic wave fns used. Skipping ion_occ.
  | No ionic wave fns used. Skipping ion_occ.
  | Found hydrogenic basis function :  2 p   1.800
  | Found hydrogenic basis function :  3 d   7.600
  | Found hydrogenic basis function :  3 s   6.400
  Species O                   : Missing cutoff potential type.
  Defaulting to exp(1/x)/(1-x)^2 type cutoff potential.
  Species O : No 'logarithmic' tag. Using default grid for free atom:
  | Default logarithmic grid data [bohr] : 0.1000E-03 0.1000E+03 0.1012E+01
  Species O : On-site basis accuracy parameter (for Gram-Schmidt orthonormalisation) not specified.
  Using default value basis_acc =  0.1000000E-03.
  Species O                   : Using default innermost maximum threshold i_radial=  2 for radial functions.
  Species O                   : Default cutoff onset for free atom density etc. : 0.35000000E+01 AA.
  Species O                   : Basic radial grid will be enhanced according to radial_multiplier =   1, to contain    36 grid points.
 
  Finished reading input file 'control.in'. Consistency checks are next.
 
  MPI_IN_PLACE appears to work with this MPI implementation.
  | Keeping use_mpi_in_place .true. (see manual).
  Target number of points in a grid batch is not set. Defaulting to  100
  Method for grid partitioning is not set. Defaulting to parallel hash+maxmin partitioning.
  Batch size limit is not set. Defaulting to    200
  By default, will store active basis functions for each batch.
  If in need of memory, prune_basis_once .false. can be used to disable this option.
  communication_type for Hartree potential was not specified.
  Defaulting to calc_hartree .
  Pulay mixer: Number of initial linear mixing iterations not set.
  Defaulting to    0 iterations.
  Work space size for distributed Hartree potential not set.
  Defaulting to   0.200000E+03 MB.
  Algorithm-dependent basis array size parameters:
  | n_max_pulay                         :       10
  Presetting      1001 iterations before the initial mixing cycle
  is restarted anyway using the sc_init_iter criterion / keyword.
  Presetting a factor      1.000 between actual scf density residual
  and density convergence criterion sc_accuracy_rho below which sc_init_iter
  takes no effect.
  Geometry relaxation not requested: no relaxation will be performed.
  Handling of forces: Unphysical translation and rotation will be removed from forces.
  No accuracy limit for integral partition fn. given. Defaulting to  0.1000E-14.
  No threshold value for u(r) in integrations given. Defaulting to  0.1000E-05.
  No accuracy for occupation numbers given. Defaulting to  0.1000E-12.
  No threshold value for occupation numbers given. Defaulting to  0.0000E+00.
  No accuracy for fermi level given. Defaulting to  0.1000E-19.
  Maximum # of iterations to find E_F not set. Defaulting to  200.
  Preferred method for the eigenvalue solver ('KS_method') not specified in 'control.in'.
  Defaulting to serial version, 'lapack_fast'.
  Will not use alltoall communication since running on < 1024 CPUs.
  Threshold for basis singularities not set.
  Default threshold for basis singularities:  0.1000E-04
  partition_type (choice of integration weights) for integrals was not specified.
  | Using a version of the partition function of Stratmann and coworkers ('stratmann_smoother').
  | At each grid point, the set of atoms used to build the partition table is smoothly restricted to
  | only those atoms whose free-atom density would be non-zero at that grid point.
  Partitioning for Hartree potential was not defined. Using partition_type for integrals.
  | Adjusted default value of keyword multip_moments_threshold to:       0.10000000E-11
  | This value may affect high angular momentum components of the Hartree potential in periodic systems.
  No q(lm)/r^(l+1) cutoff set for long-range Hartree potential.
  | Using default value of  0.100000E-09 .
  | Verify using the multipole_threshold keyword.
  Defaulting to new monopole extrapolation.
  Density update method: automatic selection selected.
------------------------------------------------------------


------------------------------------------------------------
          Reading geometry description geometry.in.
------------------------------------------------------------
  Input structure read successfully.
  The structure contains       13 atoms,  and a total of         48.000 electrons.

  Input geometry:
  | No unit cell requested.
  | Atomic structure:
  |       Atom                x [A]            y [A]            z [A]
  |    1: Species C             0.00000000        0.00000000        0.00000000
  |    2: Species H             1.09300000        0.00000000        0.00000000
  |    3: Species N            -0.47961000        0.00000000       -1.41207000
  |    4: Species H            -1.08635000       -0.80887000       -1.55143000
  |    5: Species H            -0.99601000        0.86059000       -1.58187000
  |    6: Species C            -0.49584000        1.26211000        0.72868000
  |    7: Species H            -1.58789000        1.28919000        0.74431000
  |    8: Species H            -0.13407000        1.27425000        1.75947000
  |    9: Species H            -0.13407000        2.16087000        0.22380000
  |   10: Species C            -0.39425000       -1.28861000        0.74398000
  |   11: Species O            -0.10189000       -1.56493000        1.88303000
  |   12: Species O            -1.10210000       -2.13717000        0.06896000
  |   13: Species H            -1.76198000       -2.34612000        0.75152000
  |

  | The smallest distance between any two atoms is         0.97210589 AA.
  |
  | The first atom of this pair is atom number                     12 .
  | The second atom of this pair is atom number                    13 .

  Number of empty states per atom not set in control.in - providing a guess from actual geometry.
  | Total number of empty states used during s.c.f. cycle:       29
  If you use a very high smearing, use empty_states (per atom!) in control.in to increase this value.

  Structure-dependent array size parameters: 
  | Maximum number of distinct radial functions  :       21
  | Maximum number of basis functions            :      119
  | Number of Kohn-Sham states (occupied + empty):       53
------------------------------------------------------------

------------------------------------------------------------
          Preparing all fixed parts of the calculation.
------------------------------------------------------------
  Determining machine precision:
    2.225073858507201E-308
  Setting up grids for atomic and cluster calculations.

  Creating wave function, potential, and density for free atoms.

  Species: H

  List of occupied orbitals and eigenvalues:
    n    l              occ      energy [Ha]    energy [eV]
    1    0           1.0000        -0.237589        -6.4651


  Species: C

  List of occupied orbitals and eigenvalues:
    n    l              occ      energy [Ha]    energy [eV]
    1    0           2.0000       -10.038835      -273.1706
    2    0           2.0000        -0.502696       -13.6791
    2    1           2.0000        -0.191971        -5.2238


  Species: N

  List of occupied orbitals and eigenvalues:
    n    l              occ      energy [Ha]    energy [eV]
    1    0           2.0000       -14.128000      -384.4424
    2    0           2.0000        -0.681077       -18.5330
    2    1           3.0000        -0.259788        -7.0692


  Species: O

  List of occupied orbitals and eigenvalues:
    n    l              occ      energy [Ha]    energy [eV]
    1    0           2.0000       -18.898188      -514.2459
    2    0           2.0000        -0.878505       -23.9053
    2    1           4.0000        -0.331779        -9.0282

  Creating fixed part of basis set: Ionic, confined, hydrogenic.
 
  H                    hydrogenic:
 
  List of hydrogenic basis orbitals: 
    n    l      effective z      eigenvalue [eV]  inner max. [A]     outer max. [A]     outer radius [A]   
    2    0         2.100000       -14.9728           0.193243           1.317208           4.583499
    2    1         3.500000       -41.6669           0.602369           0.602369           3.723403
 
 
  C                    hydrogenic:
 
  List of hydrogenic basis orbitals: 
    n    l      effective z      eigenvalue [eV]  inner max. [A]     outer max. [A]     outer radius [A]   
    2    1         1.700000        -9.7616           1.230570           1.230570           4.607917
    3    2         6.000000       -54.4224           0.792453           0.792453           3.883070
    2    0         4.900000       -81.6679           0.082559           0.562749           3.078220
 
 
  N                    hydrogenic:
 
  List of hydrogenic basis orbitals: 
    n    l      effective z      eigenvalue [eV]  inner max. [A]     outer max. [A]     outer radius [A]   
    2    1         1.800000       -10.9749           1.177451           1.177451           4.573712
    3    2         6.800000       -69.9026           0.704619           0.704619           3.538137
    3    0         5.800000       -50.8545           0.067388           1.191934           4.250239
 
 
  O                    hydrogenic:
 
  List of hydrogenic basis orbitals: 
    n    l      effective z      eigenvalue [eV]  inner max. [A]     outer max. [A]     outer radius [A]   
    2    1         1.800000       -10.9749           1.164242           1.164242           4.578029
    3    2         7.600000       -87.3180           0.624125           0.624125           3.251020
    3    0         6.400000       -61.9207           0.061167           1.081902           4.001998
 

  Adding cutoff potential to free-atom effective potential.
  Creating atomic-like basis functions for current effective potential.

  Species H                   :

  List of atomic basis orbitals and eigenvalues:
    n    l      energy [Ha]    energy [eV]    outer radius [A]
    1    0        -0.237589        -6.4651       4.527807


  Species C                   :

  List of atomic basis orbitals and eigenvalues:
    n    l      energy [Ha]    energy [eV]    outer radius [A]
    1    0       -10.038835      -273.1706       1.934409
    2    0        -0.502696       -13.6791       4.496620
    2    1        -0.191971        -5.2238       4.551928


  Species N                   :

  List of atomic basis orbitals and eigenvalues:
    n    l      energy [Ha]    energy [eV]    outer radius [A]
    1    0       -14.128000      -384.4424       1.637919
    2    0        -0.681077       -18.5330       4.463241
    2    1        -0.259788        -7.0692       4.518138


  Species O                   :

  List of atomic basis orbitals and eigenvalues:
    n    l      energy [Ha]    energy [eV]    outer radius [A]
    1    0       -18.898188      -514.2459       1.415765
    2    0        -0.878505       -23.9053       4.413171
    2    1        -0.331779        -9.0282       4.522403

  Assembling full basis from fixed parts.
  | Species H :   atomic orbital   1 s accepted.
  | Species H :    hydro orbital   2 s accepted.
  | Species H :    hydro orbital   2 p accepted.
  | Species C :   atomic orbital   1 s accepted.
  | Species C :    hydro orbital   2 s accepted.
  | Species C :   atomic orbital   2 s accepted.
  | Species C :   atomic orbital   2 p accepted.
  | Species C :    hydro orbital   2 p accepted.
  | Species C :    hydro orbital   3 d accepted.
  | Species N :   atomic orbital   1 s accepted.
  | Species N :    hydro orbital   3 s accepted.
  | Species N :   atomic orbital   2 s accepted.
  | Species N :   atomic orbital   2 p accepted.
  | Species N :    hydro orbital   2 p accepted.
  | Species N :    hydro orbital   3 d accepted.
  | Species O :   atomic orbital   1 s accepted.
  | Species O :    hydro orbital   3 s accepted.
  | Species O :   atomic orbital   2 s accepted.
  | Species O :   atomic orbital   2 p accepted.
  | Species O :    hydro orbital   2 p accepted.
  | Species O :    hydro orbital   3 d accepted.
 
  Basis size parameters after reduction:
  | Total number of radial functions:       21
  | Total number of basis functions :      119
 
  Per-task memory consumption for arrays in subroutine allocate_ext:
  |           5.250512MB.
  Testing on-site integration grid accuracy.
  |  Species  Function  <phi|h_atom|phi> (log., in eV)  <phi|h_atom|phi> (rad., in eV)
           1        1                 -6.4663192853                 -6.4651273558
           1        2                 13.7111246313                 13.7170609718
           1        3                 25.2673269279                 25.2674696378
           2        4               -273.1705927641               -273.1705631568
           2        5                -10.7109323383                -10.7107120029
           2        6                 17.4381822266                 17.4352413244
           2        7                 -5.2255326521                 -5.2270484734
           2        8                  8.6835629259                  8.6603288385
           2        9                 27.4952418996                 27.4953360207
           3       10               -384.4424306495               -384.4423701208
           3       11                 12.5842251816                 12.5842222903
           3       12                -15.7264628251                -15.7264433455
           3       13                 -7.0696854293                 -7.0701769954
           3       14                  8.8090390882                  8.7901077751
           3       15                 35.9586762123                 35.9588528632
           4       16               -514.2458688638               -514.2457643834
           4       17                 15.1795651126                 15.1795290741
           4       18                -21.5359799773                -21.5360846186
           4       19                 -9.0283069236                 -9.0284644067
           4       20                  8.3027758564                  8.2834874195
           4       21                 45.8339351984                 45.8338762259

  Preparing densities etc. for the partition functions (integrals / Hartree potential).

  Preparations completed.
  max(cpu_time)          :      0.156 s.
  Wall clock time (cpu1) :      0.157 s.
------------------------------------------------------------

------------------------------------------------------------
          Begin self-consistency loop: Initialization.

          Date     :  20200805, Time     :  181040.089
------------------------------------------------------------

  Initializing index lists of integration centers etc. from given atomic structure:
  | Number of centers in hartree potential         :        13
  | Number of centers in hartree multipole         :        13
  | Number of centers in electron density summation:        13
  | Number of centers in basis integrals           :        13
  | Number of centers in integrals                 :        13
  | Number of centers in hamiltonian               :        13
  Partitioning the integration grid into batches with parallel hashing+maxmin method.
  | Number of batches:      957
  | Maximal batch size:     139
  | Minimal batch size:      66
  | Average batch size:      72.775
  | Standard deviation of batch sizes:      17.348

  Integration load balanced across     1 MPI tasks.
  Work distribution over tasks is as follows:
  Task     0 has      69646 integration points.
  Initializing partition tables, free-atom densities, potentials, etc. across the integration grid (initialize_grid_storage).
  | initialize_grid_storage: Actual outermost partition radius vs. multipole_radius_free
  | (-- VB: in principle, multipole_radius_free should be larger, hence this output)
  | Species        1: Confinement radius =              4.999999999999999 AA, multipole_radius_free =              5.054417573612229 AA.
  | Species        1: outer_partition_radius set to              5.054417573612229 AA .
  | Species        2: Confinement radius =              4.999999999999999 AA, multipole_radius_free =              5.019602836301480 AA.
  | Species        2: outer_partition_radius set to              5.019602836301480 AA .
  | Species        3: Confinement radius =              4.999999999999999 AA, multipole_radius_free =              5.043624274424571 AA.
  | Species        3: outer_partition_radius set to              5.043624274424571 AA .
  | Species        4: Confinement radius =              4.999999999999999 AA, multipole_radius_free =              5.048384829883283 AA.
  | Species        4: outer_partition_radius set to              5.048384829883283 AA .
  | Original list of interatomic distances with          13 x         13 entries is created.
  | Net number of integration points:    69646
  | of which are non-zero points    :    59545
  Renormalizing the initial density to the exact electron count on the 3D integration grid.
  | Initial density: Formal number of electrons (from input files) :      48.0000000000
  | Integrated number of electrons on 3D grid     :      47.9999339147
  | Charge integration error                      :      -0.0000660853
  | Normalization factor for density and gradient :       1.0000013768
  Obtaining max. number of non-zero basis functions in each batch (get_n_compute_maxes).
  | Maximal number of non-zero basis functions:      119 in task     0
  Selecting the method for density update.
  Loop over occupied states selected for charge density update.
  Allocating        0.050 MB for KS_eigenvector
  Integrating Hamiltonian matrix: batch-based integration.
  Time summed over all CPUs for integration: real work        0.498 s, elapsed        0.498 s
  Integrating overlap matrix.
  Time summed over all CPUs for integration: real work        0.210 s, elapsed        0.210 s

  Updating Kohn-Sham eigenvalues and eigenvectors using ELSI and the ELPA eigensolver.
  Overlap matrix is nonsingular
  | Lowest eigenvalue of overlap  :  0.51E-02
  | Highest eigenvalue of overlap :  0.62E+01
  Finished singularity check of overlap matrix
  | Time :     0.002 s
  Finished Cholesky decomposition
  | Time :     0.000 s
  Finished transformation to standard eigenproblem
  | Time :     0.000 s
  Starting LAPACK eigensolver
  Finished solving standard eigenproblem
  | Time :     0.002 s
  Finished back-transformation of eigenvectors
  | Time :     0.000 s

  Obtaining occupation numbers and chemical potential using ELSI.
  | Chemical potential (Fermi level):   -10.13922974eV
  Writing Kohn-Sham eigenvalues.

  State    Occupation    Eigenvalue [Ha]    Eigenvalue [eV]
      1       2.00000         -19.008452         -517.24629
      2       2.00000         -18.977849         -516.41355
      3       2.00000         -14.245791         -387.64770
      4       2.00000         -10.166906         -276.65558
      5       2.00000         -10.141247         -275.95737
      6       2.00000         -10.132149         -275.70982
      7       2.00000          -1.187187          -32.30500
      8       2.00000          -1.094762          -29.78999
      9       2.00000          -0.992198          -26.99909
     10       2.00000          -0.859096          -23.37720
     11       2.00000          -0.762376          -20.74532
     12       2.00000          -0.681590          -18.54701
     13       2.00000          -0.624230          -16.98617
     14       2.00000          -0.605113          -16.46597
     15       2.00000          -0.582080          -15.83920
     16       2.00000          -0.576677          -15.69217
     17       2.00000          -0.549903          -14.96363
     18       2.00000          -0.525743          -14.30620
     19       2.00000          -0.521310          -14.18558
     20       2.00000          -0.502869          -13.68376
     21       2.00000          -0.468589          -12.75095
     22       2.00000          -0.429262          -11.68082
     23       2.00000          -0.408753          -11.12275
     24       2.00000          -0.382653          -10.41253
     25       0.00000          -0.157669           -4.29039
     26       0.00000          -0.058112           -1.58130
     27       0.00000          -0.028123           -0.76527
     28       0.00000          -0.022934           -0.62406
     29       0.00000           0.000806            0.02192
     30       0.00000           0.007854            0.21371
     31       0.00000           0.020464            0.55685
     32       0.00000           0.033014            0.89836
     33       0.00000           0.037467            1.01952
     34       0.00000           0.063074            1.71634
     35       0.00000           0.096090            2.61475
     36       0.00000           0.133534            3.63364
     37       0.00000           0.158527            4.31375
     38       0.00000           0.197513            5.37460
     39       0.00000           0.204912            5.57593
     40       0.00000           0.241153            6.56211
     41       0.00000           0.261160            7.10651
     42       0.00000           0.277991            7.56453
     43       0.00000           0.299908            8.16091
     44       0.00000           0.305253            8.30635
     45       0.00000           0.323848            8.81235
     46       0.00000           0.352941            9.60401
     47       0.00000           0.375459           10.21677
     48       0.00000           0.380249           10.34711
     49       0.00000           0.468846           12.75794
     50       0.00000           0.503955           13.71333
     51       0.00000           0.516040           14.04217
     52       0.00000           0.529223           14.40088
     53       0.00000           0.543907           14.80046

  Highest occupied state (VBM) at    -10.41252943 eV
  | Occupation number:      2.00000000

  Lowest unoccupied state (CBM) at    -4.29038977 eV
  | Occupation number:      0.00000000

  Overall HOMO-LUMO gap:      6.12213966 eV.
  Calculating total energy contributions from superposition of free atom densities.

  Total energy components:
  | Sum of eigenvalues            :        -188.85357709 Ha       -5138.96730040 eV
  | XC energy correction          :         -41.79346067 Ha       -1137.25792785 eV
  | XC potential correction       :          53.72661229 Ha        1461.97550477 eV
  | Free-atom electrostatic energy:        -146.84206194 Ha       -3995.77580833 eV
  | Hartree energy correction     :           0.00000000 Ha           0.00000000 eV
  | vdW energy correction         :           0.00000000 Ha           0.00000000 eV
  | Entropy correction            :           0.00000000 Ha           0.00000000 eV
  | ---------------------------
  | Total energy                  :        -323.76248742 Ha       -8810.02553181 eV
  | Total energy, T -> 0          :        -323.76248742 Ha       -8810.02553181 eV  <-- do not rely on this value for anything but (periodic) metals
  | Electronic free energy        :        -323.76248742 Ha       -8810.02553181 eV

  Derived energy quantities:
  | Kinetic energy                :         320.50406415 Ha        8721.35932349 eV
  | Electrostatic energy          :        -602.47309090 Ha      -16394.12692745 eV
  | Energy correction for multipole
  | error in Hartree potential    :           0.00000000 Ha           0.00000000 eV
  | Sum of eigenvalues per atom                           :        -395.30517695 eV
  | Total energy (T->0) per atom                          :        -677.69427168 eV  <-- do not rely on this value for anything but (periodic) metals
  | Electronic free energy per atom                       :        -677.69427168 eV
  Initialize hartree_potential_storage
  Max. number of atoms included in rho_multipole:           13

  End scf initialization - timings             :  max(cpu_time)    wall_clock(cpu1)
  | Time for scf. initialization               :        1.147 s           1.155 s
  | Boundary condition initialization          :        0.000 s           0.000 s
  | Integration                                :        0.702 s           0.708 s
  | Solution of K.-S. eqns.                    :        0.004 s           0.004 s
  | Grid partitioning                          :        0.112 s           0.113 s
  | Preloading free-atom quantities on grid    :        0.002 s           0.002 s
  | Free-atom superposition energy             :        0.085 s           0.085 s
  | Total energy evaluation                    :        0.000 s           0.000 s

  Partial memory accounting:
  | Current value for overall tracked memory usage on task 0  :           0.165 MB
  | Peak value for overall tracked memory usage on task 0     :           0.678 MB after allocating wave
  | Largest tracked array allocation on task 0 so far         :           0.132 MB  when allocating H_times_psi
  Note:  These values currently only include a subset of arrays which are explicitly tracked.
  The "true" memory usage will be greater.
------------------------------------------------------------

------------------------------------------------------------
          Begin self-consistency iteration #    1

  Date     :  20200805, Time     :  181041.244
------------------------------------------------------------
  Evaluating new KS density.
  Integration grid: deviation in total charge (<rho> - N_e) =  -4.263256E-14
  Pulay mixing of updated and previous charge densities.

  Evaluating partitioned Hartree potential by multipole expansion.
  | Analytical far-field extrapolation by fixed multipoles:
  | Hartree multipole sum: apparent total charge =  -0.172726E-03
  Summing up the Hartree potential.
  Time summed over all CPUs for potential: real work        0.282 s, elapsed        0.282 s
  | RMS charge density error from multipole expansion :   0.590772E-02

  Integrating Hamiltonian matrix: batch-based integration.
  Time summed over all CPUs for integration: real work        0.491 s, elapsed        0.491 s

  Updating Kohn-Sham eigenvalues and eigenvectors using ELSI and the ELPA eigensolver.
  Finished Cholesky decomposition
  | Time :     0.000 s
  Finished transformation to standard eigenproblem
  | Time :     0.000 s
  Starting LAPACK eigensolver
  Finished solving standard eigenproblem
  | Time :     0.002 s
  Finished back-transformation of eigenvectors
  | Time :     0.000 s

  Obtaining occupation numbers and chemical potential using ELSI.
  | Chemical potential (Fermi level):    -5.00164343eV
  Writing Kohn-Sham eigenvalues.

  State    Occupation    Eigenvalue [Ha]    Eigenvalue [eV]
      1       2.00000         -18.907277         -514.49318
      2       2.00000         -18.840324         -512.67129
      3       2.00000         -14.092715         -383.48229
      4       2.00000         -10.118522         -275.33899
      5       2.00000         -10.061530         -273.78816
      6       2.00000         -10.033896         -273.03621
      7       2.00000          -1.140534          -31.03550
      8       2.00000          -1.034269          -28.14390
      9       2.00000          -0.920563          -25.04980
     10       2.00000          -0.793050          -21.57999
     11       2.00000          -0.713018          -19.40220
     12       2.00000          -0.635420          -17.29067
     13       2.00000          -0.568449          -15.46828
     14       2.00000          -0.549335          -14.94817
     15       2.00000          -0.523698          -14.25054
     16       2.00000          -0.515736          -14.03388
     17       2.00000          -0.491446          -13.37294
     18       2.00000          -0.466075          -12.68254
     19       2.00000          -0.460043          -12.51841
     20       2.00000          -0.443053          -12.05608
     21       2.00000          -0.414418          -11.27687
     22       2.00000          -0.372578          -10.13837
     23       2.00000          -0.337339           -9.17947
     24       2.00000          -0.308698           -8.40009
     25       0.00000          -0.123441           -3.35901
     26       0.00000          -0.034932           -0.95056
     27       0.00000          -0.000199           -0.00541
     28       0.00000           0.016711            0.45473
     29       0.00000           0.031598            0.85982
     30       0.00000           0.046752            1.27217
     31       0.00000           0.058206            1.58386
     32       0.00000           0.068633            1.86759
     33       0.00000           0.075904            2.06546
     34       0.00000           0.105408            2.86831
     35       0.00000           0.138158            3.75948
     36       0.00000           0.160126            4.35725
     37       0.00000           0.182783            4.97377
     38       0.00000           0.226934            6.17520
     39       0.00000           0.232874            6.33682
     40       0.00000           0.279098            7.59465
     41       0.00000           0.294267            8.00741
     42       0.00000           0.310667            8.45368
     43       0.00000           0.340335            9.26100
     44       0.00000           0.343491            9.34687
     45       0.00000           0.363238            9.88420
     46       0.00000           0.389910           10.60999
     47       0.00000           0.412161           11.21546
     48       0.00000           0.418083           11.37661
     49       0.00000           0.502398           13.67094
     50       0.00000           0.535341           14.56736
     51       0.00000           0.553104           15.05073
     52       0.00000           0.565055           15.37593
     53       0.00000           0.577310           15.70939

  Highest occupied state (VBM) at     -8.40009438 eV
  | Occupation number:      2.00000000

  Lowest unoccupied state (CBM) at    -3.35901025 eV
  | Occupation number:      0.00000000

  Overall HOMO-LUMO gap:      5.04108413 eV.

  Total energy components:
  | Sum of eigenvalues            :        -185.48397397 Ha       -5047.27573417 eV
  | XC energy correction          :         -42.12122371 Ha       -1146.17681404 eV
  | XC potential correction       :          54.15287690 Ha        1473.57475501 eV
  | Free-atom electrostatic energy:        -146.84206194 Ha       -3995.77580833 eV
  | Hartree energy correction     :          -3.28714533 Ha         -89.44777559 eV
  | vdW energy correction         :           0.00000000 Ha           0.00000000 eV
  | Entropy correction            :           0.00000000 Ha           0.00000000 eV
  | ---------------------------
  | Total energy                  :        -323.58152806 Ha       -8805.10137712 eV
  | Total energy, T -> 0          :        -323.58152806 Ha       -8805.10137712 eV  <-- do not rely on this value for anything but (periodic) metals
  | Electronic free energy        :        -323.58152806 Ha       -8805.10137712 eV

  Derived energy quantities:
  | Kinetic energy                :         322.29110635 Ha        8769.98721570 eV
  | Electrostatic energy          :        -603.75141069 Ha      -16428.91177879 eV
  | Energy correction for multipole
  | error in Hartree potential    :           0.01211954 Ha           0.32978941 eV
  | Sum of eigenvalues per atom                           :        -388.25197955 eV
  | Total energy (T->0) per atom                          :        -677.31549055 eV  <-- do not rely on this value for anything but (periodic) metals
  | Electronic free energy per atom                       :        -677.31549055 eV

  Self-consistency convergence accuracy:
  | Change of charge density      :  0.5845E+00
  | Change of sum of eigenvalues  :  0.9169E+02 eV
  | Change of total energy        :  0.4924E+01 eV

  End self-consistency iteration #     1       :  max(cpu_time)    wall_clock(cpu1)
  | Time for this iteration                    :        1.187 s           1.189 s
  | Charge density update                      :        0.395 s           0.396 s
  | Density mixing                             :        0.006 s           0.006 s
  | Hartree multipole update                   :        0.009 s           0.009 s
  | Hartree multipole summation                :        0.283 s           0.284 s
  | Integration                                :        0.491 s           0.491 s
  | Solution of K.-S. eqns.                    :        0.002 s           0.002 s
  | Total energy evaluation                    :        0.000 s           0.001 s

  Partial memory accounting:
  | Current value for overall tracked memory usage on task 0  :           0.165 MB
  | Peak value for overall tracked memory usage on task 0     :           0.695 MB after allocating gradient_basis_wave
  | Largest tracked array allocation on task 0 so far         :           0.397 MB  when allocating gradient_basis_wave
  Note:  These values currently only include a subset of arrays which are explicitly tracked.
  The "true" memory usage will be greater.
------------------------------------------------------------

------------------------------------------------------------
          Begin self-consistency iteration #    2

  Date     :  20200805, Time     :  181042.433
------------------------------------------------------------
  Evaluating new KS density.
  Integration grid: deviation in total charge (<rho> - N_e) =  -2.131628E-14
  Pulay mixing of updated and previous charge densities.

  Evaluating partitioned Hartree potential by multipole expansion.
  | Analytical far-field extrapolation by fixed multipoles:
  | Hartree multipole sum: apparent total charge =  -0.308486E-03
  Summing up the Hartree potential.
  Time summed over all CPUs for potential: real work        0.282 s, elapsed        0.282 s
  | RMS charge density error from multipole expansion :   0.141064E-01

  Integrating Hamiltonian matrix: batch-based integration.
  Time summed over all CPUs for integration: real work        0.492 s, elapsed        0.492 s

  Updating Kohn-Sham eigenvalues and eigenvectors using ELSI and the ELPA eigensolver.
  Finished Cholesky decomposition
  | Time :     0.000 s
  Finished transformation to standard eigenproblem
  | Time :     0.000 s
  Starting LAPACK eigensolver
  Finished solving standard eigenproblem
  | Time :     0.001 s
  Finished back-transformation of eigenvectors
  | Time :     0.000 s

  Obtaining occupation numbers and chemical potential using ELSI.
  | Chemical potential (Fermi level):    -3.78114562eV
  Highest occupied state (VBM) at     -6.32587716 eV
  | Occupation number:      2.00000000

  Lowest unoccupied state (CBM) at    -2.16078630 eV
  | Occupation number:      0.00000000

  Overall HOMO-LUMO gap:      4.16509087 eV.

  Checking to see if s.c.f. parameters should be adjusted.

  Total energy components:
  | Sum of eigenvalues            :        -181.91334249 Ha       -4950.11390830 eV
  | XC energy correction          :         -42.48310883 Ha       -1156.02420926 eV
  | XC potential correction       :          54.62197708 Ha        1486.33962056 eV
  | Free-atom electrostatic energy:        -146.84206194 Ha       -3995.77580833 eV
  | Hartree energy correction     :          -6.88674422 Ha        -187.39784487 eV
  | vdW energy correction         :           0.00000000 Ha           0.00000000 eV
  | Entropy correction            :           0.00000000 Ha           0.00000000 eV
  | ---------------------------
  | Total energy                  :        -323.50328041 Ha       -8802.97215021 eV
  | Total energy, T -> 0          :        -323.50328041 Ha       -8802.97215021 eV  <-- do not rely on this value for anything but (periodic) metals
  | Electronic free energy        :        -323.50328041 Ha       -8802.97215021 eV

  Derived energy quantities:
  | Kinetic energy                :         323.62013853 Ha        8806.15202157 eV
  | Electrostatic energy          :        -604.64031011 Ha      -16453.09996252 eV
  | Energy correction for multipole
  | error in Hartree potential    :           0.02682106 Ha           0.72983807 eV
  | Sum of eigenvalues per atom                           :        -380.77799295 eV
  | Total energy (T->0) per atom                          :        -677.15170386 eV  <-- do not rely on this value for anything but (periodic) metals
  | Electronic free energy per atom                       :        -677.15170386 eV

  Self-consistency convergence accuracy:
  | Change of charge density      :  0.3652E+00
  | Change of sum of eigenvalues  :  0.9716E+02 eV
  | Change of total energy        :  0.2129E+01 eV

  End self-consistency iteration #     2       :  max(cpu_time)    wall_clock(cpu1)
  | Time for this iteration                    :        1.179 s           1.180 s
  | Charge density update                      :        0.385 s           0.385 s
  | Density mixing                             :        0.008 s           0.008 s
  | Hartree multipole update                   :        0.009 s           0.009 s
  | Hartree multipole summation                :        0.283 s           0.283 s
  | Integration                                :        0.492 s           0.493 s
  | Solution of K.-S. eqns.                    :        0.002 s           0.002 s
  | Total energy evaluation                    :        0.000 s           0.000 s

  Partial memory accounting:
  | Current value for overall tracked memory usage on task 0  :           0.166 MB
  | Peak value for overall tracked memory usage on task 0     :           0.695 MB after allocating gradient_basis_wave
  | Largest tracked array allocation on task 0 so far         :           0.397 MB  when allocating gradient_basis_wave
  Note:  These values currently only include a subset of arrays which are explicitly tracked.
  The "true" memory usage will be greater.
------------------------------------------------------------

------------------------------------------------------------
          Begin self-consistency iteration #    3

  Date     :  20200805, Time     :  181043.614
------------------------------------------------------------
  Evaluating new KS density.
  Integration grid: deviation in total charge (<rho> - N_e) =  -2.842171E-14
  Pulay mixing of updated and previous charge densities.

  Evaluating partitioned Hartree potential by multipole expansion.
  | Analytical far-field extrapolation by fixed multipoles:
  | Hartree multipole sum: apparent total charge =  -0.399314E-03
  Summing up the Hartree potential.
  Time summed over all CPUs for potential: real work        0.282 s, elapsed        0.282 s
  | RMS charge density error from multipole expansion :   0.222679E-01

  Integrating Hamiltonian matrix: batch-based integration.
  Time summed over all CPUs for integration: real work        0.492 s, elapsed        0.492 s

  Updating Kohn-Sham eigenvalues and eigenvectors using ELSI and the ELPA eigensolver.
  Finished Cholesky decomposition
  | Time :     0.000 s
  Finished transformation to standard eigenproblem
  | Time :     0.000 s
  Starting LAPACK eigensolver
  Finished solving standard eigenproblem
  | Time :     0.001 s
  Finished back-transformation of eigenvectors
  | Time :     0.000 s

  Obtaining occupation numbers and chemical potential using ELSI.
  | Chemical potential (Fermi level):    -3.07746816eV
  Highest occupied state (VBM) at     -5.64861196 eV
  | Occupation number:      2.00000000

  Lowest unoccupied state (CBM) at    -1.49250857 eV
  | Occupation number:      0.00000000

  Overall HOMO-LUMO gap:      4.15610339 eV.

  Total energy components:
  | Sum of eigenvalues            :        -180.64536698 Ha       -4915.61053902 eV
  | XC energy correction          :         -42.63209092 Ha       -1160.07821813 eV
  | XC potential correction       :          54.81187075 Ha        1491.50689024 eV
  | Free-atom electrostatic energy:        -146.84206194 Ha       -3995.77580833 eV
  | Hartree energy correction     :          -8.18331662 Ha        -222.67937514 eV
  | vdW energy correction         :           0.00000000 Ha           0.00000000 eV
  | Entropy correction            :           0.00000000 Ha           0.00000000 eV
  | ---------------------------
  | Total energy                  :        -323.49096572 Ha       -8802.63705038 eV
  | Total energy, T -> 0          :        -323.49096572 Ha       -8802.63705038 eV  <-- do not rely on this value for anything but (periodic) metals
  | Electronic free energy        :        -323.49096572 Ha       -8802.63705038 eV

  Derived energy quantities:
  | Kinetic energy                :         323.18746190 Ha        8794.37829122 eV
  | Electrostatic energy          :        -604.04633669 Ha      -16436.93712347 eV
  | Energy correction for multipole
  | error in Hartree potential    :           0.03785532 Ha           1.03009569 eV
  | Sum of eigenvalues per atom                           :        -378.12388762 eV
  | Total energy (T->0) per atom                          :        -677.12592695 eV  <-- do not rely on this value for anything but (periodic) metals
  | Electronic free energy per atom                       :        -677.12592695 eV

  Self-consistency convergence accuracy:
  | Change of charge density      :  0.2027E+00
  | Change of sum of eigenvalues  :  0.3450E+02 eV
  | Change of total energy        :  0.3351E+00 eV

  End self-consistency iteration #     3       :  max(cpu_time)    wall_clock(cpu1)
  | Time for this iteration                    :        1.180 s           1.180 s
  | Charge density update                      :        0.384 s           0.385 s
  | Density mixing                             :        0.009 s           0.009 s
  | Hartree multipole update                   :        0.009 s           0.009 s
  | Hartree multipole summation                :        0.283 s           0.283 s
  | Integration                                :        0.492 s           0.492 s
  | Solution of K.-S. eqns.                    :        0.002 s           0.002 s
  | Total energy evaluation                    :        0.000 s           0.000 s

  Partial memory accounting:
  | Current value for overall tracked memory usage on task 0  :           0.166 MB
  | Peak value for overall tracked memory usage on task 0     :           0.695 MB after allocating gradient_basis_wave
  | Largest tracked array allocation on task 0 so far         :           0.397 MB  when allocating gradient_basis_wave
  Note:  These values currently only include a subset of arrays which are explicitly tracked.
  The "true" memory usage will be greater.
------------------------------------------------------------

------------------------------------------------------------
          Begin self-consistency iteration #    4

  Date     :  20200805, Time     :  181044.795
------------------------------------------------------------
  Evaluating new KS density.
  Integration grid: deviation in total charge (<rho> - N_e) =   6.394885E-14
  Pulay mixing of updated and previous charge densities.

  Evaluating partitioned Hartree potential by multipole expansion.
  | Analytical far-field extrapolation by fixed multipoles:
  | Hartree multipole sum: apparent total charge =  -0.428033E-03
  Summing up the Hartree potential.
  Time summed over all CPUs for potential: real work        0.282 s, elapsed        0.282 s
  | RMS charge density error from multipole expansion :   0.256509E-01

  Integrating Hamiltonian matrix: batch-based integration.
  Time summed over all CPUs for integration: real work        0.492 s, elapsed        0.492 s

  Updating Kohn-Sham eigenvalues and eigenvectors using ELSI and the ELPA eigensolver.
  Finished Cholesky decomposition
  | Time :     0.000 s
  Finished transformation to standard eigenproblem
  | Time :     0.000 s
  Starting LAPACK eigensolver
  Finished solving standard eigenproblem
  | Time :     0.001 s
  Finished back-transformation of eigenvectors
  | Time :     0.000 s

  Obtaining occupation numbers and chemical potential using ELSI.
  | Chemical potential (Fermi level):    -2.95502669eV
  Highest occupied state (VBM) at     -5.48018502 eV
  | Occupation number:      2.00000000

  Lowest unoccupied state (CBM) at    -1.41622606 eV
  | Occupation number:      0.00000000

  Overall HOMO-LUMO gap:      4.06395896 eV.

  Total energy components:
  | Sum of eigenvalues            :        -180.50799710 Ha       -4911.87251450 eV
  | XC energy correction          :         -42.66893220 Ha       -1161.08072028 eV
  | XC potential correction       :          54.85823664 Ha        1492.76857009 eV
  | Free-atom electrostatic energy:        -146.84206194 Ha       -3995.77580833 eV
  | Hartree energy correction     :          -8.32937950 Ha        -226.65394834 eV
  | vdW energy correction         :           0.00000000 Ha           0.00000000 eV
  | Entropy correction            :           0.00000000 Ha           0.00000000 eV
  | ---------------------------
  | Total energy                  :        -323.49013412 Ha       -8802.61442137 eV
  | Total energy, T -> 0          :        -323.49013412 Ha       -8802.61442137 eV  <-- do not rely on this value for anything but (periodic) metals
  | Electronic free energy        :        -323.49013412 Ha       -8802.61442137 eV

  Derived energy quantities:
  | Kinetic energy                :         322.81378168 Ha        8784.20993510 eV
  | Electrostatic energy          :        -603.63498359 Ha      -16425.74363618 eV
  | Energy correction for multipole
  | error in Hartree potential    :           0.04190907 Ha           1.14040374 eV
  | Sum of eigenvalues per atom                           :        -377.83634727 eV
  | Total energy (T->0) per atom                          :        -677.12418626 eV  <-- do not rely on this value for anything but (periodic) metals
  | Electronic free energy per atom                       :        -677.12418626 eV

  Self-consistency convergence accuracy:
  | Change of charge density      :  0.6310E-01
  | Change of sum of eigenvalues  :  0.3738E+01 eV
  | Change of total energy        :  0.2263E-01 eV

  End self-consistency iteration #     4       :  max(cpu_time)    wall_clock(cpu1)
  | Time for this iteration                    :        1.181 s           1.182 s
  | Charge density update                      :        0.385 s           0.385 s
  | Density mixing                             :        0.011 s           0.011 s
  | Hartree multipole update                   :        0.009 s           0.009 s
  | Hartree multipole summation                :        0.283 s           0.283 s
  | Integration                                :        0.492 s           0.492 s
  | Solution of K.-S. eqns.                    :        0.002 s           0.002 s
  | Total energy evaluation                    :        0.000 s           0.000 s

  Partial memory accounting:
  | Current value for overall tracked memory usage on task 0  :           0.166 MB
  | Peak value for overall tracked memory usage on task 0     :           0.696 MB after allocating gradient_basis_wave
  | Largest tracked array allocation on task 0 so far         :           0.397 MB  when allocating gradient_basis_wave
  Note:  These values currently only include a subset of arrays which are explicitly tracked.
  The "true" memory usage will be greater.
------------------------------------------------------------

------------------------------------------------------------
          Begin self-consistency iteration #    5

  Date     :  20200805, Time     :  181045.978
------------------------------------------------------------
  Evaluating new KS density.
  Integration grid: deviation in total charge (<rho> - N_e) =  -2.842171E-14
  Pulay mixing of updated and previous charge densities.

  Evaluating partitioned Hartree potential by multipole expansion.
  | Analytical far-field extrapolation by fixed multipoles:
  | Hartree multipole sum: apparent total charge =  -0.421867E-03
  Summing up the Hartree potential.
  Time summed over all CPUs for potential: real work        0.282 s, elapsed        0.282 s
  | RMS charge density error from multipole expansion :   0.254123E-01

  Integrating Hamiltonian matrix: batch-based integration.
  Time summed over all CPUs for integration: real work        0.492 s, elapsed        0.492 s

  Updating Kohn-Sham eigenvalues and eigenvectors using ELSI and the ELPA eigensolver.
  Finished Cholesky decomposition
  | Time :     0.000 s
  Finished transformation to standard eigenproblem
  | Time :     0.000 s
  Starting LAPACK eigensolver
  Finished solving standard eigenproblem
  | Time :     0.002 s
  Finished back-transformation of eigenvectors
  | Time :     0.000 s

  Obtaining occupation numbers and chemical potential using ELSI.
  | Chemical potential (Fermi level):    -3.01880884eV
  Highest occupied state (VBM) at     -5.56061627 eV
  | Occupation number:      2.00000000

  Lowest unoccupied state (CBM) at    -1.50026696 eV
  | Occupation number:      0.00000000

  Overall HOMO-LUMO gap:      4.06034931 eV.

  Total energy components:
  | Sum of eigenvalues            :        -180.69935988 Ha       -4917.07976066 eV
  | XC energy correction          :         -42.64544902 Ha       -1160.44171048 eV
  | XC potential correction       :          54.82778423 Ha        1491.93991799 eV
  | Free-atom electrostatic energy:        -146.84206194 Ha       -3995.77580833 eV
  | Hartree energy correction     :          -8.13076041 Ha        -221.24924779 eV
  | vdW energy correction         :           0.00000000 Ha           0.00000000 eV
  | Entropy correction            :           0.00000000 Ha           0.00000000 eV
  | ---------------------------
  | Total energy                  :        -323.48984703 Ha       -8802.60660927 eV
  | Total energy, T -> 0          :        -323.48984703 Ha       -8802.60660927 eV  <-- do not rely on this value for anything but (periodic) metals
  | Electronic free energy        :        -323.48984703 Ha       -8802.60660927 eV

  Derived energy quantities:
  | Kinetic energy                :         322.70524545 Ha        8781.25651415 eV
  | Electrostatic energy          :        -603.54964346 Ha      -16423.42141295 eV
  | Energy correction for multipole
  | error in Hartree potential    :           0.04127985 Ha           1.12328182 eV
  | Sum of eigenvalues per atom                           :        -378.23690467 eV
  | Total energy (T->0) per atom                          :        -677.12358533 eV  <-- do not rely on this value for anything but (periodic) metals
  | Electronic free energy per atom                       :        -677.12358533 eV

  Self-consistency convergence accuracy:
  | Change of charge density      :  0.2020E-01
  | Change of sum of eigenvalues  : -0.5207E+01 eV
  | Change of total energy        :  0.7812E-02 eV

  End self-consistency iteration #     5       :  max(cpu_time)    wall_clock(cpu1)
  | Time for this iteration                    :        1.182 s           1.182 s
  | Charge density update                      :        0.384 s           0.384 s
  | Density mixing                             :        0.012 s           0.012 s
  | Hartree multipole update                   :        0.009 s           0.009 s
  | Hartree multipole summation                :        0.283 s           0.283 s
  | Integration                                :        0.492 s           0.492 s
  | Solution of K.-S. eqns.                    :        0.002 s           0.002 s
  | Total energy evaluation                    :        0.000 s           0.000 s

  Partial memory accounting:
  | Current value for overall tracked memory usage on task 0  :           0.166 MB
  | Peak value for overall tracked memory usage on task 0     :           0.696 MB after allocating gradient_basis_wave
  | Largest tracked array allocation on task 0 so far         :           0.397 MB  when allocating gradient_basis_wave
  Note:  These values currently only include a subset of arrays which are explicitly tracked.
  The "true" memory usage will be greater.
------------------------------------------------------------

------------------------------------------------------------
          Begin self-consistency iteration #    6

  Date     :  20200805, Time     :  181047.161
------------------------------------------------------------
  Evaluating new KS density.
  Integration grid: deviation in total charge (<rho> - N_e) =  -2.131628E-14
  Pulay mixing of updated and previous charge densities.

  Evaluating partitioned Hartree potential by multipole expansion.
  | Analytical far-field extrapolation by fixed multipoles:
  | Hartree multipole sum: apparent total charge =  -0.424642E-03
  Summing up the Hartree potential.
  Time summed over all CPUs for potential: real work        0.282 s, elapsed        0.282 s
  | RMS charge density error from multipole expansion :   0.258403E-01

  Integrating Hamiltonian matrix: batch-based integration.
  Time summed over all CPUs for integration: real work        0.491 s, elapsed        0.491 s

  Updating Kohn-Sham eigenvalues and eigenvectors using ELSI and the ELPA eigensolver.
  Finished Cholesky decomposition
  | Time :     0.000 s
  Finished transformation to standard eigenproblem
  | Time :     0.000 s
  Starting LAPACK eigensolver
  Finished solving standard eigenproblem
  | Time :     0.001 s
  Finished back-transformation of eigenvectors
  | Time :     0.000 s

  Obtaining occupation numbers and chemical potential using ELSI.
  | Chemical potential (Fermi level):    -3.01974350eV
  Highest occupied state (VBM) at     -5.52952363 eV
  | Occupation number:      2.00000000

  Lowest unoccupied state (CBM) at    -1.51609133 eV
  | Occupation number:      0.00000000

  Overall HOMO-LUMO gap:      4.01343230 eV.

  Total energy components:
  | Sum of eigenvalues            :        -180.70571660 Ha       -4917.25273563 eV
  | XC energy correction          :         -42.64411070 Ha       -1160.40529300 eV
  | XC potential correction       :          54.82602389 Ha        1491.89201675 eV
  | Free-atom electrostatic energy:        -146.84206194 Ha       -3995.77580833 eV
  | Hartree energy correction     :          -8.12394119 Ha        -221.06368748 eV
  | vdW energy correction         :           0.00000000 Ha           0.00000000 eV
  | Entropy correction            :           0.00000000 Ha           0.00000000 eV
  | ---------------------------
  | Total energy                  :        -323.48980654 Ha       -8802.60550771 eV
  | Total energy, T -> 0          :        -323.48980654 Ha       -8802.60550771 eV  <-- do not rely on this value for anything but (periodic) metals
  | Electronic free energy        :        -323.48980654 Ha       -8802.60550771 eV

  Derived energy quantities:
  | Kinetic energy                :         322.62541102 Ha        8779.08410883 eV
  | Electrostatic energy          :        -603.47110686 Ha      -16421.28432353 eV
  | Energy correction for multipole
  | error in Hartree potential    :           0.04162150 Ha           1.13257857 eV
  | Sum of eigenvalues per atom                           :        -378.25021043 eV
  | Total energy (T->0) per atom                          :        -677.12350059 eV  <-- do not rely on this value for anything but (periodic) metals
  | Electronic free energy per atom                       :        -677.12350059 eV

  Self-consistency convergence accuracy:
  | Change of charge density      :  0.1042E-01
  | Change of sum of eigenvalues  : -0.1730E+00 eV
  | Change of total energy        :  0.1102E-02 eV

  End self-consistency iteration #     6       :  max(cpu_time)    wall_clock(cpu1)
  | Time for this iteration                    :        1.184 s           1.185 s
  | Charge density update                      :        0.385 s           0.385 s
  | Density mixing                             :        0.014 s           0.014 s
  | Hartree multipole update                   :        0.009 s           0.009 s
  | Hartree multipole summation                :        0.283 s           0.283 s
  | Integration                                :        0.492 s           0.491 s
  | Solution of K.-S. eqns.                    :        0.002 s           0.003 s
  | Total energy evaluation                    :        0.000 s           0.000 s

  Partial memory accounting:
  | Current value for overall tracked memory usage on task 0  :           0.166 MB
  | Peak value for overall tracked memory usage on task 0     :           0.696 MB after allocating gradient_basis_wave
  | Largest tracked array allocation on task 0 so far         :           0.397 MB  when allocating gradient_basis_wave
  Note:  These values currently only include a subset of arrays which are explicitly tracked.
  The "true" memory usage will be greater.
------------------------------------------------------------

------------------------------------------------------------
          Begin self-consistency iteration #    7

  Date     :  20200805, Time     :  181048.347
------------------------------------------------------------
  Evaluating new KS density.
  Integration grid: deviation in total charge (<rho> - N_e) =   1.421085E-14
  Pulay mixing of updated and previous charge densities.

  Evaluating partitioned Hartree potential by multipole expansion.
  | Analytical far-field extrapolation by fixed multipoles:
  | Hartree multipole sum: apparent total charge =  -0.425360E-03
  Summing up the Hartree potential.
  Time summed over all CPUs for potential: real work        0.282 s, elapsed        0.282 s
  | RMS charge density error from multipole expansion :   0.259804E-01

  Integrating Hamiltonian matrix: batch-based integration.
  Time summed over all CPUs for integration: real work        0.492 s, elapsed        0.492 s

  Updating Kohn-Sham eigenvalues and eigenvectors using ELSI and the ELPA eigensolver.
  Finished Cholesky decomposition
  | Time :     0.000 s
  Finished transformation to standard eigenproblem
  | Time :     0.000 s
  Starting LAPACK eigensolver
  Finished solving standard eigenproblem
  | Time :     0.002 s
  Finished back-transformation of eigenvectors
  | Time :     0.000 s

[...]
  |   Hirshfeld dipole moment :      0.06133266
  |   Hirshfeld second moments:      0.01958645      -0.02038282      -0.01454780
  |                                 -0.02038282      -0.01768183       0.00588590
  |                                 -0.01454780       0.00588590      -0.02070149
  ----------------------------------------------------------------------
  | Atom    12: O
  |   Hirshfeld charge        :     -0.13646793
  |   Free atom volume        :     23.61338643
  |   Hirshfeld volume        :     20.45472069
  |   Hirshfeld dipole vector :      0.00488313       0.01921461       0.02338157
  |   Hirshfeld dipole moment :      0.03065524
  |   Hirshfeld second moments:      0.09689351       0.01863041      -0.02381107
  |                                  0.01863041       0.06129880      -0.01088383
  |                                 -0.02381107      -0.01088383       0.05462245
  ----------------------------------------------------------------------
  | Atom    13: H
  |   Hirshfeld charge        :      0.18419931
  |   Free atom volume        :      9.95071624
  |   Hirshfeld volume        :      6.12302768
  |   Hirshfeld dipole vector :     -0.10103819      -0.02807110       0.06438794
  |   Hirshfeld dipole moment :      0.12305490
  |   Hirshfeld second moments:      0.12145192       0.00277110      -0.00915792
  |                                  0.00277110       0.12509906      -0.00012405
  |                                 -0.00915792      -0.00012405       0.09856327
  ----------------------------------------------------------------------


  Total energy components:
  | Sum of eigenvalues            :        -180.70247474 Ha       -4917.16452032 eV
  | XC energy correction          :         -42.64112326 Ha       -1160.32400054 eV
  | XC potential correction       :          54.82224000 Ha        1491.78905188 eV
  | Free-atom electrostatic energy:        -146.84206194 Ha       -3995.77580833 eV
  | Hartree energy correction     :          -8.12636362 Ha        -221.12960511 eV
  | vdW energy correction         :          -0.00328184 Ha          -0.08930348 eV
  | Entropy correction            :           0.00000000 Ha           0.00000000 eV
  | ---------------------------
  | Total energy                  :        -323.49306541 Ha       -8802.69418591 eV
  | Total energy, T -> 0          :        -323.49306541 Ha       -8802.69418591 eV  <-- do not rely on this value for anything but (periodic) metals
  | Electronic free energy        :        -323.49306541 Ha       -8802.69418591 eV

  Derived energy quantities:
  | Kinetic energy                :         322.58423487 Ha        8777.96364869 eV
  | Electrostatic energy          :        -603.43289518 Ha      -16420.24453057 eV
  | Energy correction for multipole
  | error in Hartree potential    :           0.04167495 Ha           1.13403297 eV
  | Sum of eigenvalues per atom                           :        -378.24342464 eV
  | Total energy (T->0) per atom                          :        -677.13032199 eV  <-- do not rely on this value for anything but (periodic) metals
  | Electronic free energy per atom                       :        -677.13032199 eV

  atomic forces [eV/Ang]:
  -----------------------
  atom #    1
   Hellmann-Feynman              :  0.718068E+00 -0.130827E+00  0.687488E+00
   Ionic forces                  :  0.000000E+00  0.000000E+00  0.000000E+00
   Multipole                     : -0.345636E-01  0.397149E+00 -0.282471E+00
   Pulay + GGA                   : -0.115009E+01 -0.260882E+00 -0.116293E+01
   Van der Waals                 :  0.415323E-02  0.350113E-02 -0.247750E-02
   ----------------------------------------------------------------
   Total forces(   1)            : -0.462434E+00  0.894116E-02 -0.760386E+00
  atom #    2
   Hellmann-Feynman              :  0.376210E+00  0.353846E-01  0.134601E+00
   Ionic forces                  :  0.000000E+00  0.000000E+00  0.000000E+00
   Multipole                     :  0.173706E+00  0.209328E-01 -0.392314E-01
   Pulay + GGA                   : -0.150996E+00  0.100998E-01 -0.286098E-01
   Van der Waals                 :  0.636184E-02 -0.428851E-02 -0.596772E-02
   ----------------------------------------------------------------
   Total forces(   2)            :  0.405283E+00  0.621287E-01  0.607921E-01
  atom #    3
   Hellmann-Feynman              :  0.913694E+01 -0.143086E+01 -0.574274E+01
   Ionic forces                  :  0.000000E+00  0.000000E+00  0.000000E+00
   Multipole                     : -0.310874E+00  0.250306E+00 -0.122246E+01
   Pulay + GGA                   : -0.827086E+01  0.103177E+01  0.743346E+01
   Van der Waals                 :  0.213699E-02 -0.790102E-02 -0.577874E-02
   ----------------------------------------------------------------
   Total forces(   3)            :  0.557344E+00 -0.156685E+00  0.462481E+00
  atom #    4
   Hellmann-Feynman              : -0.240270E+00  0.103159E+00 -0.967371E-01
   Ionic forces                  :  0.000000E+00  0.000000E+00  0.000000E+00
   Multipole                     : -0.773577E-01 -0.465770E-01 -0.654766E-01
   Pulay + GGA                   :  0.194579E+00  0.125305E+00  0.432408E-02
   Van der Waals                 : -0.138622E-02  0.189181E-02  0.260516E-02
   ----------------------------------------------------------------
   Total forces(   4)            : -0.124435E+00  0.183779E+00 -0.155284E+00
  atom #    5
   Hellmann-Feynman              : -0.296295E+00  0.414850E-01 -0.379263E-01
   Ionic forces                  :  0.000000E+00  0.000000E+00  0.000000E+00
   Multipole                     : -0.635182E-01  0.458052E-01 -0.740526E-01
   Pulay + GGA                   :  0.167136E+00 -0.166341E+00 -0.637970E-02
   Van der Waals                 : -0.133843E-02 -0.762681E-02 -0.542951E-02
   ----------------------------------------------------------------
   Total forces(   5)            : -0.194016E+00 -0.866772E-01 -0.123788E+00
  atom #    6
   Hellmann-Feynman              : -0.395051E-01 -0.700029E+00  0.497524E+00
   Ionic forces                  :  0.000000E+00  0.000000E+00  0.000000E+00
   Multipole                     : -0.934619E-01  0.572668E+00  0.270236E+00
   Pulay + GGA                   :  0.323431E+00 -0.390133E+00 -0.454612E+00
   Van der Waals                 : -0.317760E-02  0.594959E-02 -0.201794E-03
   ----------------------------------------------------------------
   Total forces(   6)            :  0.187286E+00 -0.511544E+00  0.312947E+00
  atom #    7
   Hellmann-Feynman              : -0.238079E+00 -0.514779E-01 -0.253749E-01
   Ionic forces                  :  0.000000E+00  0.000000E+00  0.000000E+00
   Multipole                     : -0.116925E+00  0.483227E-01  0.249208E-01
   Pulay + GGA                   :  0.104151E+00  0.450725E-02  0.654338E-02
   Van der Waals                 : -0.327396E-02  0.149579E-02  0.793735E-02
   ----------------------------------------------------------------
   Total forces(   7)            : -0.254128E+00  0.284789E-02  0.140266E-01
  atom #    8
   Hellmann-Feynman              :  0.948492E-01  0.452790E-01  0.189692E+00
   Ionic forces                  :  0.000000E+00  0.000000E+00  0.000000E+00
   Multipole                     :  0.113845E-01  0.588888E-01  0.118073E+00
   Pulay + GGA                   : -0.417066E-01 -0.437076E-01 -0.113501E+00
   Van der Waals                 : -0.312867E-02  0.112492E-01  0.585491E-03
   ----------------------------------------------------------------
   Total forces(   8)            :  0.613983E-01  0.717094E-01  0.194850E+00
  atom #    9
   Hellmann-Feynman              :  0.131072E+00  0.376709E-01 -0.209321E+00
   Ionic forces                  :  0.000000E+00  0.000000E+00  0.000000E+00
   Multipole                     :  0.174474E-01  0.131820E+00 -0.992822E-02
   Pulay + GGA                   : -0.274367E-01 -0.861131E-01  0.654634E-01
   Van der Waals                 : -0.724586E-03  0.652223E-02  0.802766E-02
   ----------------------------------------------------------------
   Total forces(   9)            :  0.120358E+00  0.899006E-01 -0.145758E+00
  atom #   10
   Hellmann-Feynman              :  0.337862E+01  0.566159E+01  0.133245E+01
   Ionic forces                  :  0.000000E+00  0.000000E+00  0.000000E+00
   Multipole                     :  0.997835E-02 -0.820207E-01  0.215998E+00
   Pulay + GGA                   : -0.124597E+01 -0.335675E+01 -0.537686E+00
   Van der Waals                 :  0.291059E-02 -0.116494E-01 -0.692153E-03
   ----------------------------------------------------------------
   Total forces(  10)            :  0.214554E+01  0.221117E+01  0.101007E+01
  atom #   11
   Hellmann-Feynman              :  0.419419E+01 -0.227292E+01  0.140649E+02
   Ionic forces                  :  0.000000E+00  0.000000E+00  0.000000E+00
   Multipole                     : -0.347651E-01 -0.589892E+00  0.800678E+00
   Pulay + GGA                   : -0.361007E+01  0.358850E+01 -0.134088E+02
   Van der Waals                 : -0.335740E-02 -0.116428E-01  0.106196E-02
   ----------------------------------------------------------------
   Total forces(  11)            :  0.546005E+00  0.714047E+00  0.145777E+01
  atom #   12
   Hellmann-Feynman              : -0.116301E+01 -0.375813E+01 -0.159223E+02
   Ionic forces                  :  0.000000E+00  0.000000E+00  0.000000E+00
   Multipole                     : -0.637955E+00 -0.123385E+01 -0.610942E+00
   Pulay + GGA                   : -0.901897E+00  0.368563E+01  0.142618E+02
   Van der Waals                 :  0.328255E-03  0.777741E-02  0.351261E-02
   ----------------------------------------------------------------
   Total forces(  12)            : -0.270254E+01 -0.129857E+01 -0.226786E+01
  atom #   13
   Hellmann-Feynman              : -0.480931E+00 -0.136561E+01  0.146183E+00
   Ionic forces                  :  0.000000E+00  0.000000E+00  0.000000E+00
   Multipole                     : -0.841340E-01 -0.125011E-01  0.416873E-01
   Pulay + GGA                   :  0.273852E+00  0.803542E-01 -0.244955E+00
   Van der Waals                 :  0.495964E-03  0.472135E-02 -0.318283E-02
   ----------------------------------------------------------------
   Total forces(  13)            : -0.290717E+00 -0.129304E+01 -0.602680E-01

  Timings for VdW correction (Tkatchenko-Scheffler 2009 or later):
  | CPU time:        0.089 s, Wall clock time:        0.090 s.
  Removing unitary transformations (pure translations, rotations) from forces on atoms.
  Atomic forces before filtering:
  | Net force on center of mass :  -0.505406E-02 -0.199189E-02 -0.398944E-03 eV/A
  | Net torque on center of mass:  -0.690655E-02  0.447140E-02  0.218221E-02 eV
  Atomic forces after filtering:
  | Net force on center of mass :   0.000000E+00 -0.178406E-15 -0.713624E-15 eV/A
  | Net torque on center of mass:  -0.472042E-15  0.118011E-15  0.179376E-14 eV

  Energy and forces in a compact form:
  | Total energy uncorrected      :         -0.880269418591000E+04 eV
  | Total energy corrected        :         -0.880269418591000E+04 eV  <-- do not rely on this value for anything but (periodic) metals
  | Electronic free energy        :         -0.880269418591000E+04 eV
  Total atomic forces (unitary forces cleaned) [eV/Ang]:
  |   1         -0.462008373878812E+00          0.909206028639634E-02         -0.760243351243748E+00
  |   2          0.405708518181547E+00          0.622194889281207E-01          0.611258989598152E-01
  |   3          0.558017248450775E+00         -0.156289830025291E+00          0.462539419529720E+00
  |   4         -0.123782321411786E+00          0.184229456269667E+00         -0.155456653557661E+00
  |   5         -0.193266576508447E+00         -0.862270259649198E-01         -0.123686478497418E+00
  |   6          0.187654329912085E+00         -0.511478544287686E+00          0.313197802892994E+00
  |   7         -0.253761376004116E+00          0.297102112921542E-02          0.140909875295347E-01
  |   8          0.615867056094780E-01          0.715957331072517E-01          0.195166199279034E+00
  |   9          0.120863545063434E+00          0.900242334751003E-01         -0.145304819285396E+00
  |  10          0.214576466977654E+01          0.221122937586681E+01          0.100994914017167E+01
  |  11          0.546015923563899E+00          0.713912791945763E+00          0.145765625889614E+01
  |  12         -0.270224068471065E+01         -0.129837353450393E+01         -0.226823844310410E+01
  |  13         -0.290551608043947E+00         -0.129290522622649E+01         -0.607959615705816E-01

  ------------------------------------ 
  Start decomposition of the XC Energy 
  ------------------------------------ 
  X and C from original XC functional choice 
  Hartree-Fock Energy :          0.000000000 Ha              0.000000000 eV
  X Energy            :        -41.039928513 Ha          -1116.753274615 eV
  C Energy            :         -1.601194747 Ha            -43.570725929 eV
  Total XC Energy     :        -42.641123260 Ha          -1160.324000544 eV
  ------------------------------------ 
  LDA X and C from self-consistent density 
  X Energy LDA        :        -37.259980418 Ha          -1013.895653608 eV
  C Energy LDA        :         -3.138826158 Ha            -85.411805468 eV
  ------------------------------------ 
  End decomposition of the XC Energy 
  ------------------------------------ 

------------------------------------------------------------

------------------------------------------------------------------------------
  Final output of selected total energy values:

  The following output summarizes some interesting total energy values
  at the end of a run (AFTER all relaxation, molecular dynamics, etc.).

  | Total energy of the DFT / Hartree-Fock s.c.f. calculation      :          -8802.694185910 eV
  | Final zero-broadening corrected energy (caution - metals only) :          -8802.694185910 eV
  | For reference only, the value of 1 Hartree used in FHI-aims is :             27.211384500 eV

  Before relying on these values, please be sure to understand exactly which
  total energy value is referred to by a given number. Different objects may
  all carry the same name 'total energy'. Definitions:

  Total energy of the DFT / Hartree-Fock s.c.f. calculation:
  | Note that this energy does not include ANY quantities calculated after the
  | s.c.f. cycle, in particular not ANY RPA, MP2, etc. many-body perturbation terms.

  Final zero-broadening corrected energy:
  | For metallic systems only, a broadening of the occupation numbers at the Fermi
  | level can be extrapolated back to zero broadening by an electron-gas inspired
  | formula. For all systems that are not real metals, this value can be
  | meaningless and should be avoided.

------------------------------------------------------------------------------
  Methods described in the following list of references were used in this FHI-aims run.
  If you publish the results, please make sure to cite these reference if they apply.
  FHI-aims is an academic code, and for our developers (often, Ph.D. students
  and postdocs), scientific credit in the community is essential.
  Thank you for helping us!

  For any use of FHI-aims, please cite:

    Volker Blum, Ralf Gehrke, Felix Hanke, Paula Havu, Ville Havu,
    Xinguo Ren, Karsten Reuter, and Matthias Scheffler
    'Ab initio molecular simulations with numeric atom-centered orbitals'
    Computer Physics Communications 180, 2175-2196 (2009)
    http://dx.doi.org/10.1016/j.cpc.2009.06.022


  The scalable eigensolver library ELPA was used in your run.
  ELPA is essential especially for large systems on hundreds or thousands of CPUs.
  For ELPA, please cite:

    Andreas Marek, Volker Blum, Rainer Johanni, Ville Havu, Bruno Lang,
    Thomas Auckenthaler, Alexander Heinecke, Hans-Joachim Bungartz, and Hermann Lederer,
    'The ELPA Library - Scalable Parallel Eigenvalue Solutions
    for Electronic Structure Theory and Computational Science'
    The Journal of Physics: Condensed Matter 26, 213201 (2014).
    http://dx.doi.org/10.1088/0953-8984/26/21/213201


  The ELSI infrastructure was used in your run to solve the Kohn-Sham electronic structure.
  Please check out http://elsi-interchange.org to learn more.
  If scalability is important for your project, please acknowledge ELSI by citing:

    V. W-z. Yu, F. Corsetti, A. Garcia, W. P. Huhn, M. Jacquelin, W. Jia,
    B. Lange, L. Lin, J. Lu, W. Mi, A. Seifitokaldani, A. Vazquez-Mayagoitia,
    C. Yang, H. Yang, and V. Blum
    'ELSI: A unified software interface for Kohn-Sham electronic structure solvers'
    Computer Physics Communications 222, 267-285 (2018).
    http://dx.doi.org/10.1016/j.cpc.2017.09.007


  For the real-space grid partitioning and parallelization used in this calculation, please cite:

    Ville Havu, Volker Blum, Paula Havu, and Matthias Scheffler,
    'Efficient O(N) integration for all-electron electronic structure calculation'
    'using numerically tabulated basis functions'
    Journal of Computational Physics 228, 8367-8379 (2009).
    http://dx.doi.org/10.1016/j.jcp.2009.08.008

  Of course, there are many other important community references, e.g., those cited in the
  above references. Our list is limited to references that describe implementations in the
  FHI-aims code. The reason is purely practical (length of this list) - please credit others as well.

------------------------------------------------------------
          Leaving FHI-aims.
          Date     :  20200805, Time     :  181102.623

          Computational steps:
          | Number of self-consistency cycles          :           16
          | Number of SCF (re)initializations          :            1

          Detailed time accounting                     :  max(cpu_time)    wall_clock(cpu1)
          | Total time                                 :       22.659 s          22.706 s
          | Preparation time                           :        0.156 s           0.157 s
          | Boundary condition initalization           :        0.000 s           0.000 s
          | Grid partitioning                          :        0.112 s           0.113 s
          | Preloading free-atom quantities on grid    :        0.002 s           0.002 s
          | Free-atom superposition energy             :        0.085 s           0.085 s
          | Total time for integrations                :        8.572 s           8.587 s
          | Total time for solution of K.-S. equations :        0.037 s           0.039 s
          | Total time for density & force components  :        7.098 s           7.112 s
          | Total time for mixing                      :        0.243 s           0.244 s
          | Total time for Hartree multipole update    :        0.142 s           0.144 s
          | Total time for Hartree multipole sum       :        5.810 s           5.812 s
          | Total time for total energy evaluation     :        0.003 s           0.003 s
          | Total time for vdW correction              :        0.089 s           0.090 s

          Partial memory accounting:
          | Residual value for overall tracked memory usage across tasks :           0.000 MB (should be 0.000 MB)
          | Peak values for overall tracked memory usage (after allocating hessian_basis_wave):
          |   Minimum:        1.622 MB (on task 1)
          |   Maximum:        1.622 MB (on task 1)
          |   Average:        1.622 MB
          | Largest tracked array allocation (hessian_basis_wave):
          |   Minimum:        0.794 MB (on task 1)
          |   Maximum:        0.794 MB (on task 1)
          |   Average:        0.794 MB
          Note:  These values currently only include a subset of arrays which are explicitly tracked.
          The "true" memory usage will be greater.

          Have a nice day.
------------------------------------------------------------
