  MPI-parallelism will be employed.
------------------------------------------------------------
          Invoking FHI-aims ...
          Version 171221_1
          Compiled on 2019/09/09 at 14:39:39 on host puhti-login2.bullx.

          When using FHI-aims, please cite the following reference:

          Volker Blum, Ralf Gehrke, Felix Hanke, Paula Havu,
          Ville Havu, Xinguo Ren, Karsten Reuter, and Matthias Scheffler,
          'Ab Initio Molecular Simulations with Numeric Atom-Centered Orbitals',
          Computer Physics Communications 180, 2175-2196 (2009)

          For any questions about FHI-aims, please visit the aimsclub website
          with its forums and wiki. Contributions to both the forums and the
          wiki are warmly encouraged - they are for you, and everyone is welcome there.

------------------------------------------------------------



  Date     :  20200710, Time     :  150249.437
  Time zero on CPU 1             :   0.112260000000000E-01  s.
  Internal wall clock time zero  :           363625369.437  s.

  FHI-aims created a unique identifier for this run for later identification
  aims_uuid : FB0D2E5E-A5AD-468E-A21E-998E6F673213

  Using        1 parallel tasks.
  Task        0 on host r18c46.bullx reporting.

  Performing system and environment tests:
  | Environment variable OMP_NUM_THREADS correctly set to 1.
  | Stacksize not measured: no C compiler
  | Checking for scalapack...
  | Testing pdtran()...
  | All pdtran() tests passed.

  Obtaining array dimensions for all initial allocations:
  
  -----------------------------------------------------------------------
  Parsing control.in (first pass over file, find array dimensions only).
  The contents of control.in will be repeated verbatim below
  unless switched off by setting 'verbatim_writeout .false.' .
  in the first line of control.in .
  -----------------------------------------------------------------------
  
  #########################################################################################
  #
  #  Volker Blum, FHI 2009 : Test run input file control.in for simple H2O
  #
  #########################################################################################
  #
  #  Physical model
  #
    xc                 pbe
    vdw_correction_hirshfeld
    spin               none
    relativistic       none
    charge             0.
  #
  #  SCF convergence
  #
    occupation_type    gaussian 0.01
    mixer              pulay
      n_max_pulay        10
      charge_mix_param   0.2
    sc_accuracy_rho    1E-5
    sc_accuracy_eev    1E-3
    sc_accuracy_etot   1E-6
    sc_accuracy_forces 1E-4
    sc_iter_limit      100
  #
  #  Relaxation
  #
  #  relax_geometry   bfgs 1.e-3
  #
  ################################################################################
  #
  #  FHI-aims code project
  #  VB, Fritz-Haber Institut, 2009
  #
  #  Suggested "light" defaults for H atom (to be pasted into control.in file)
  #  Be sure to double-check any results obtained with these settings for post-processing,
  #  e.g., with the "tight" defaults and larger basis sets.
  #
  ################################################################################
    species        H
  #     global species definitions
      nucleus             1
      mass                1.00794
  #
      l_hartree           4
  #
      cut_pot             3.5  1.5  1.0
      basis_dep_cutoff    1e-4
  #
      radial_base         24 5.0
      radial_multiplier   1
      angular_grids       specified
        division   0.2421   50
        division   0.3822  110
        division   0.4799  194
        division   0.5341  302
  #      division   0.5626  434
  #      division   0.5922  590
  #      division   0.6542  770
  #      division   0.6868 1202
  #      outer_grid  770
        outer_grid  302
  ################################################################################
  #
  #  Definition of "minimal" basis
  #
  ################################################################################
  #     valence basis states
      valence      1  s   1.
  #     ion occupancy
      ion_occ      1  s   0.5
  ################################################################################
  #
  #  Suggested additional basis functions. For production calculations,
  #  uncomment them one after another (the most important basis functions are
  #  listed first).
  #
  #  Basis constructed for dimers: 0.5 A, 0.7 A, 1.0 A, 1.5 A, 2.5 A
  #
  ################################################################################
  #  "First tier" - improvements: -1014.90 meV to -62.69 meV
       hydro 2 s 2.1
       hydro 2 p 3.5
  #  "Second tier" - improvements: -12.89 meV to -1.83 meV
  #     hydro 1 s 0.85
  #     hydro 2 p 3.7
  #     hydro 2 s 1.2
  #     hydro 3 d 7
  #  "Third tier" - improvements: -0.25 meV to -0.12 meV
  #     hydro 4 f 11.2
  #     hydro 3 p 4.8
  #     hydro 4 d 9
  #     hydro 3 s 3.2
  ################################################################################
  #
  #  FHI-aims code project
  #  VB, Fritz-Haber Institut, 2009
  #
  #  Suggested "light" defaults for C atom (to be pasted into control.in file)
  #  Be sure to double-check any results obtained with these settings for post-processing,
  #  e.g., with the "tight" defaults and larger basis sets.
  #
  ################################################################################
    species        C
  #     global species definitions
      nucleus             6
      mass                12.0107
  #
      l_hartree           4
  #
      cut_pot             3.5  1.5  1.0
      basis_dep_cutoff    1e-4
  #
      radial_base         34 5.0
      radial_multiplier   1
      angular_grids specified
        division   0.3326   50
        division   0.5710  110
        division   0.7727  194
        division   0.8772  302
  #      division   0.9334  434
  #      division   0.9625  590
  #      division   0.9924  770
  #      division   1.0230  974
  #      division   1.4589 1202
  #     outer_grid  974
       outer_grid 302
  ################################################################################
  #
  #  Definition of "minimal" basis
  #
  ################################################################################
  #     valence basis states
      valence      2  s   2.
      valence      2  p   2.
  #     ion occupancy
      ion_occ      2  s   1.
      ion_occ      2  p   1.
  ################################################################################
  #
  #  Suggested additional basis functions. For production calculations,
  #  uncomment them one after another (the most important basis functions are
  #  listed first).
  #
  #  Constructed for dimers: 1.0 A, 1.25 A, 1.5 A, 2.0 A, 3.0 A
  #
  ################################################################################
  #  "First tier" - improvements: -1214.57 meV to -155.61 meV
       hydro 2 p 1.7
       hydro 3 d 6
       hydro 2 s 4.9
  #  "Second tier" - improvements: -67.75 meV to -5.23 meV
  #     hydro 4 f 9.8
  #     hydro 3 p 5.2
  #     hydro 3 s 4.3
  #     hydro 5 g 14.4
  #     hydro 3 d 6.2
  #  "Third tier" - improvements: -2.43 meV to -0.60 meV
  #     hydro 2 p 5.6
  #     hydro 2 s 1.4
  #     hydro 3 d 4.9
  #     hydro 4 f 11.2
  #  "Fourth tier" - improvements: -0.39 meV to -0.18 meV
  #     hydro 2 p 2.1
  #     hydro 5 g 16.4
  #     hydro 4 d 13.2
  #     hydro 3 s 13.6
  #     hydro 4 f 17.6
  #  Further basis functions - improvements: -0.08 meV and below
  #     hydro 3 s 2
  #     hydro 3 p 6
  #     hydro 4 d 20
  ################################################################################
  #
  #  FHI-aims code project
  #  VB, Fritz-Haber Institut, 2009
  #
  #  Suggested "light" defaults for N atom (to be pasted into control.in file)
  #  Be sure to double-check any results obtained with these settings for post-processing,
  #  e.g., with the "tight" defaults and larger basis sets.
  #
  ################################################################################
    species        N
  #     global species definitions
      nucleus             7
      mass                14.0067
  #
      l_hartree           4
  #
      cut_pot             3.5  1.5  1.0
      basis_dep_cutoff    1e-4
  #
      radial_base         35 5.0
      radial_multiplier   1
      angular_grids       specified
        division   0.2599   50
        division   0.4601  110
        division   0.5885  194
        division   0.6503  302
  #      division   0.6939  434
  #      division   0.7396  590
  #      division   0.7632  770
  #      division   0.8122  974
  #      division   1.1604 1202
  #      outer_grid  974
        outer_grid  302
  ################################################################################
  #
  #  Definition of "minimal" basis
  #
  ################################################################################
  #     valence basis states
      valence      2  s   2.
      valence      2  p   3.
  #     ion occupancy
      ion_occ      2  s   1.
      ion_occ      2  p   2.
  ################################################################################
  #
  #  Suggested additional basis functions. For production calculations,
  #  uncomment them one after another (the most important basis functions are
  #  listed first).
  #
  #  Constructed for dimers: 1.0 A, 1.1 A, 1.5 A, 2.0 A, 3.0 A
  #
  ################################################################################
  #  "First tier" - improvements: -1193.42 meV to -220.60 meV
       hydro 2 p 1.8
       hydro 3 d 6.8
       hydro 3 s 5.8
  #  "Second tier" - improvements: -80.21 meV to -6.86 meV
  #     hydro 4 f 10.8
  #     hydro 3 p 5.8
  #     hydro 1 s 0.8
  #     hydro 5 g 16
  #     hydro 3 d 4.9
  #  "Third tier" - improvements: -4.29 meV to -0.53 meV
  #     hydro 3 s 16
  #     ionic 2 p auto
  #     hydro 3 d 6.6
  #     hydro 4 f 11.6
  #  "Fourth tier" - improvements: -0.75 meV to -0.25 meV
  #     hydro 2 p 4.5
  #     hydro 2 s 2.4
  #     hydro 5 g 14.4
  #     hydro 4 d 14.4
  #     hydro 4 f 16.8
  # Further basis functions - -0.21 meV and below
  #     hydro 3 p 14.8
  #     hydro 3 s 4.4
  #     hydro 3 d 19.6
  #     hydro 5 g 12.8
  ################################################################################
  #
  #  FHI-aims code project
  #  VB, Fritz-Haber Institut, 2009
  #
  #  Suggested "light" defaults for O atom (to be pasted into control.in file)
  #  Be sure to double-check any results obtained with these settings for post-processing,
  #  e.g., with the "tight" defaults and larger basis sets.
  #
  ################################################################################
    species        O
  #     global species definitions
      nucleus             8
      mass                15.9994
  #
      l_hartree           4
  #
      cut_pot             3.5  1.5  1.0
      basis_dep_cutoff    1e-4
  #
      radial_base         36 5.0
      radial_multiplier   1
       angular_grids specified
        division   0.2659   50
        division   0.4451  110
        division   0.6052  194
        division   0.7543  302
  #      division   0.8014  434
  #      division   0.8507  590
  #      division   0.8762  770
  #      division   0.9023  974
  #      division   1.2339 1202
  #      outer_grid 974
        outer_grid 302
  ################################################################################
  #
  #  Definition of "minimal" basis
  #
  ################################################################################
  #     valence basis states
      valence      2  s   2.
      valence      2  p   4.
  #     ion occupancy
      ion_occ      2  s   1.
      ion_occ      2  p   3.
  ################################################################################
  #
  #  Suggested additional basis functions. For production calculations,
  #  uncomment them one after another (the most important basis functions are
  #  listed first).
  #
  #  Constructed for dimers: 1.0 A, 1.208 A, 1.5 A, 2.0 A, 3.0 A
  #
  ################################################################################
  #  "First tier" - improvements: -699.05 meV to -159.38 meV
       hydro 2 p 1.8
       hydro 3 d 7.6
       hydro 3 s 6.4
  #  "Second tier" - improvements: -49.91 meV to -5.39 meV
  #     hydro 4 f 11.6
  #     hydro 3 p 6.2
  #     hydro 3 d 5.6
  #     hydro 5 g 17.6
  #     hydro 1 s 0.75
  #  "Third tier" - improvements: -2.83 meV to -0.50 meV
  #     ionic 2 p auto
  #     hydro 4 f 10.8
  #     hydro 4 d 4.7
  #     hydro 2 s 6.8
  #  "Fourth tier" - improvements: -0.40 meV to -0.12 meV
  #     hydro 3 p 5
  #     hydro 3 s 3.3
  #     hydro 5 g 15.6
  #     hydro 4 f 17.6
  #     hydro 4 d 14
  # Further basis functions - -0.08 meV and below
  #     hydro 3 s 2.1
  #     hydro 4 d 11.6
  #     hydro 3 p 16
  #     hydro 2 s 17.2
  
  -----------------------------------------------------------------------
  Completed first pass over input file control.in .
  -----------------------------------------------------------------------
  
  
  -----------------------------------------------------------------------
  Parsing geometry.in (first pass over file, find array dimensions only).
  The contents of geometry.in will be repeated verbatim below
  unless switched off by setting 'verbatim_writeout .false.' .
  in the first line of geometry.in .
  -----------------------------------------------------------------------
  
  atom  0.00000 0.00000 0.00000 C
  atom  1.09300 0.00000 0.00000 H
  atom  -0.47961 0.00000 -1.41207 N
  atom  0.00368 0.74067 -1.92165 H
  atom  -0.27254 -0.90586 -1.82760 H
  atom  -0.49584 1.26211 0.72868 C
  atom  -1.58789 1.28919 0.74431 H
  atom  -0.13407 1.27425 1.75947 H
  atom  -0.13407 2.16087 0.22380 H
  atom  -0.39425 -1.28861 0.74398 C
  atom  -0.10189 -1.56493 1.88303 O
  atom  -1.10210 -2.13717 0.06896 O
  atom  -0.67917 -2.95484 0.38126 H
  
  -----------------------------------------------------------------------
  Completed first pass over input file geometry.in .
  -----------------------------------------------------------------------
  

  Basic array size parameters:
  | Number of species                 :        4
  | Number of atoms                   :       13
  | Max. basis fn. angular momentum   :        2
  | Max. atomic/ionic basis occupied n:        2
  | Max. number of basis fn. types    :        2
  | Max. radial fns per species/type  :        3
  | Max. logarithmic grid size        :     1301
  | Max. radial integration grid size :       36
  | Max. angular integration grid size:      302
  | Max. angular grid division number :        8
  | Radial grid for Hartree potential :     1301
  | Number of spin channels           :        1

------------------------------------------------------------
          Reading file control.in.
------------------------------------------------------------
  XC: Using PBE gradient-corrected functionals.
  Spin treatment: No spin polarisation.
  Non-relativistic treatment of kinetic energy.
  Charge =   0.000000E+00: Neutral system requested explicitly.
  Occupation type: Gaussian broadening, width =   0.100000E-01 eV.
  Using pulay charge density mixing.
  Pulay mixing - number of memorized iterations:   10
  Charge density mixing - mixing parameter:     0.2000
  Convergence accuracy of self-consistent charge density:  0.1000E-04
  Convergence accuracy of sum of eigenvalues:  0.1000E-02
  Convergence accuracy of total energy:  0.1000E-05
  Convergence accuracy of forces:  0.1000E-03
  Maximum number of s.-c. iterations  :   100
 
  Reading configuration options for species H                   .
  | Found nuclear charge :   1.0000
  | Found atomic mass :    1.00794000000000      amu
  | Found l_max for Hartree potential  :   4
  | Found cutoff potl. onset [A], width [A], scale factor :    3.50000    1.50000    1.00000
  | Threshold for basis-dependent cutoff potential is   0.100000E-03
  | Found data for basic radial integration grid :    24 points, outermost radius =    5.000 A
  | Found multiplier for basic radial grid :   1
  | Found angular grid specification: user-specified.
  | Specified grid contains     5 separate shells.
  | Check grid settings after all constraints further below.
  | Found free-atom valence shell :  1 s   1.000
  | No ionic wave fns used. Skipping ion_occ.
  | Found hydrogenic basis function :  2 s   2.100
  | Found hydrogenic basis function :  2 p   3.500
  Species H                   : Missing cutoff potential type.
  Defaulting to exp(1/x)/(1-x)^2 type cutoff potential.
  Species H : No 'logarithmic' tag. Using default grid for free atom:
  | Default logarithmic grid data [bohr] : 0.1000E-03 0.1000E+03 0.1012E+01
  Species H : On-site basis accuracy parameter (for Gram-Schmidt orthonormalisation) not specified.
  Using default value basis_acc =  0.1000000E-03.
  Species H                   : Using default innermost maximum threshold i_radial=  2 for radial functions.
  Species H                   : Default cutoff onset for free atom density etc. : 0.35000000E+01 AA.
  Species H                   : Basic radial grid will be enhanced according to radial_multiplier =   1, to contain    24 grid points.
 
  Reading configuration options for species C                   .
  | Found nuclear charge :   6.0000
  | Found atomic mass :    12.0107000000000      amu
  | Found l_max for Hartree potential  :   4
  | Found cutoff potl. onset [A], width [A], scale factor :    3.50000    1.50000    1.00000
  | Threshold for basis-dependent cutoff potential is   0.100000E-03
  | Found data for basic radial integration grid :    34 points, outermost radius =    5.000 A
  | Found multiplier for basic radial grid :   1
  | Found angular grid specification: user-specified.
  | Specified grid contains     5 separate shells.
  | Check grid settings after all constraints further below.
  | Found free-atom valence shell :  2 s   2.000
  | Found free-atom valence shell :  2 p   2.000
  | No ionic wave fns used. Skipping ion_occ.
  | No ionic wave fns used. Skipping ion_occ.
  | Found hydrogenic basis function :  2 p   1.700
  | Found hydrogenic basis function :  3 d   6.000
  | Found hydrogenic basis function :  2 s   4.900
  Species C                   : Missing cutoff potential type.
  Defaulting to exp(1/x)/(1-x)^2 type cutoff potential.
  Species C : No 'logarithmic' tag. Using default grid for free atom:
  | Default logarithmic grid data [bohr] : 0.1000E-03 0.1000E+03 0.1012E+01
  Species C : On-site basis accuracy parameter (for Gram-Schmidt orthonormalisation) not specified.
  Using default value basis_acc =  0.1000000E-03.
  Species C                   : Using default innermost maximum threshold i_radial=  2 for radial functions.
  Species C                   : Default cutoff onset for free atom density etc. : 0.35000000E+01 AA.
  Species C                   : Basic radial grid will be enhanced according to radial_multiplier =   1, to contain    34 grid points.
 
  Reading configuration options for species N                   .
  | Found nuclear charge :   7.0000
  | Found atomic mass :    14.0067000000000      amu
  | Found l_max for Hartree potential  :   4
  | Found cutoff potl. onset [A], width [A], scale factor :    3.50000    1.50000    1.00000
  | Threshold for basis-dependent cutoff potential is   0.100000E-03
  | Found data for basic radial integration grid :    35 points, outermost radius =    5.000 A
  | Found multiplier for basic radial grid :   1
  | Found angular grid specification: user-specified.
  | Specified grid contains     5 separate shells.
  | Check grid settings after all constraints further below.
  | Found free-atom valence shell :  2 s   2.000
  | Found free-atom valence shell :  2 p   3.000
  | No ionic wave fns used. Skipping ion_occ.
  | No ionic wave fns used. Skipping ion_occ.
  | Found hydrogenic basis function :  2 p   1.800
  | Found hydrogenic basis function :  3 d   6.800
  | Found hydrogenic basis function :  3 s   5.800
  Species N                   : Missing cutoff potential type.
  Defaulting to exp(1/x)/(1-x)^2 type cutoff potential.
  Species N : No 'logarithmic' tag. Using default grid for free atom:
  | Default logarithmic grid data [bohr] : 0.1000E-03 0.1000E+03 0.1012E+01
  Species N : On-site basis accuracy parameter (for Gram-Schmidt orthonormalisation) not specified.
  Using default value basis_acc =  0.1000000E-03.
  Species N                   : Using default innermost maximum threshold i_radial=  2 for radial functions.
  Species N                   : Default cutoff onset for free atom density etc. : 0.35000000E+01 AA.
  Species N                   : Basic radial grid will be enhanced according to radial_multiplier =   1, to contain    35 grid points.
 
  Reading configuration options for species O                   .
  | Found nuclear charge :   8.0000
  | Found atomic mass :    15.9994000000000      amu
  | Found l_max for Hartree potential  :   4
  | Found cutoff potl. onset [A], width [A], scale factor :    3.50000    1.50000    1.00000
  | Threshold for basis-dependent cutoff potential is   0.100000E-03
  | Found data for basic radial integration grid :    36 points, outermost radius =    5.000 A
  | Found multiplier for basic radial grid :   1
  | Found angular grid specification: user-specified.
  | Specified grid contains     5 separate shells.
  | Check grid settings after all constraints further below.
  | Found free-atom valence shell :  2 s   2.000
  | Found free-atom valence shell :  2 p   4.000
  | No ionic wave fns used. Skipping ion_occ.
  | No ionic wave fns used. Skipping ion_occ.
  | Found hydrogenic basis function :  2 p   1.800
  | Found hydrogenic basis function :  3 d   7.600
  | Found hydrogenic basis function :  3 s   6.400
  Species O                   : Missing cutoff potential type.
  Defaulting to exp(1/x)/(1-x)^2 type cutoff potential.
  Species O : No 'logarithmic' tag. Using default grid for free atom:
  | Default logarithmic grid data [bohr] : 0.1000E-03 0.1000E+03 0.1012E+01
  Species O : On-site basis accuracy parameter (for Gram-Schmidt orthonormalisation) not specified.
  Using default value basis_acc =  0.1000000E-03.
  Species O                   : Using default innermost maximum threshold i_radial=  2 for radial functions.
  Species O                   : Default cutoff onset for free atom density etc. : 0.35000000E+01 AA.
  Species O                   : Basic radial grid will be enhanced according to radial_multiplier =   1, to contain    36 grid points.
 
  Finished reading input file 'control.in'. Consistency checks are next.
 
  MPI_IN_PLACE appears to work with this MPI implementation.
  | Keeping use_mpi_in_place .true. (see manual).
  Target number of points in a grid batch is not set. Defaulting to  100
  Method for grid partitioning is not set. Defaulting to parallel hash+maxmin partitioning.
  Batch size limit is not set. Defaulting to    200
  By default, will store active basis functions for each batch.
  If in need of memory, prune_basis_once .false. can be used to disable this option.
  communication_type for Hartree potential was not specified.
  Defaulting to calc_hartree .
  Pulay mixer: Number of initial linear mixing iterations not set.
  Defaulting to    0 iterations.
  Work space size for distributed Hartree potential not set.
  Defaulting to   0.200000E+03 MB.
  Algorithm-dependent basis array size parameters:
  | n_max_pulay                         :       10
  Presetting      1001 iterations before the initial mixing cycle
  is restarted anyway using the sc_init_iter criterion / keyword.
  Presetting a factor      1.000 between actual scf density residual
  and density convergence criterion sc_accuracy_rho below which sc_init_iter
  takes no effect.
  Geometry relaxation not requested: no relaxation will be performed.
  Handling of forces: Unphysical translation and rotation will be removed from forces.
  No accuracy limit for integral partition fn. given. Defaulting to  0.1000E-14.
  No threshold value for u(r) in integrations given. Defaulting to  0.1000E-05.
  No accuracy for occupation numbers given. Defaulting to  0.1000E-12.
  No threshold value for occupation numbers given. Defaulting to  0.0000E+00.
  No accuracy for fermi level given. Defaulting to  0.1000E-19.
  Maximum # of iterations to find E_F not set. Defaulting to  200.
  Preferred method for the eigenvalue solver ('KS_method') not specified in 'control.in'.
  Defaulting to serial version, 'lapack_fast'.
  Will not use alltoall communication since running on < 1024 CPUs.
  Threshold for basis singularities not set.
  Default threshold for basis singularities:  0.1000E-04
  partition_type (choice of integration weights) for integrals was not specified.
  | Using a version of the partition function of Stratmann and coworkers ('stratmann_smoother').
  | At each grid point, the set of atoms used to build the partition table is smoothly restricted to
  | only those atoms whose free-atom density would be non-zero at that grid point.
  Partitioning for Hartree potential was not defined. Using partition_type for integrals.
  | Adjusted default value of keyword multip_moments_threshold to:       0.10000000E-11
  | This value may affect high angular momentum components of the Hartree potential in periodic systems.
  No q(lm)/r^(l+1) cutoff set for long-range Hartree potential.
  | Using default value of  0.100000E-09 .
  | Verify using the multipole_threshold keyword.
  Defaulting to new monopole extrapolation.
  Density update method: automatic selection selected.
------------------------------------------------------------


------------------------------------------------------------
          Reading geometry description geometry.in.
------------------------------------------------------------
  Input structure read successfully.
  The structure contains       13 atoms,  and a total of         48.000 electrons.

  Input geometry:
  | No unit cell requested.
  | Atomic structure:
  |       Atom                x [A]            y [A]            z [A]
  |    1: Species C             0.00000000        0.00000000        0.00000000
  |    2: Species H             1.09300000        0.00000000        0.00000000
  |    3: Species N            -0.47961000        0.00000000       -1.41207000
  |    4: Species H             0.00368000        0.74067000       -1.92165000
  |    5: Species H            -0.27254000       -0.90586000       -1.82760000
  |    6: Species C            -0.49584000        1.26211000        0.72868000
  |    7: Species H            -1.58789000        1.28919000        0.74431000
  |    8: Species H            -0.13407000        1.27425000        1.75947000
  |    9: Species H            -0.13407000        2.16087000        0.22380000
  |   10: Species C            -0.39425000       -1.28861000        0.74398000
  |   11: Species O            -0.10189000       -1.56493000        1.88303000
  |   12: Species O            -1.10210000       -2.13717000        0.06896000
  |   13: Species H            -0.67917000       -2.95484000        0.38126000
  |

  | The smallest distance between any two atoms is         0.97210355 AA.
  |
  | The first atom of this pair is atom number                     12 .
  | The second atom of this pair is atom number                    13 .

  Number of empty states per atom not set in control.in - providing a guess from actual geometry.
  | Total number of empty states used during s.c.f. cycle:       29
  If you use a very high smearing, use empty_states (per atom!) in control.in to increase this value.

  Structure-dependent array size parameters: 
  | Maximum number of distinct radial functions  :       21
  | Maximum number of basis functions            :      119
  | Number of Kohn-Sham states (occupied + empty):       53
------------------------------------------------------------

------------------------------------------------------------
          Preparing all fixed parts of the calculation.
------------------------------------------------------------
  Determining machine precision:
    2.225073858507201E-308
  Setting up grids for atomic and cluster calculations.

  Creating wave function, potential, and density for free atoms.

  Species: H

  List of occupied orbitals and eigenvalues:
    n    l              occ      energy [Ha]    energy [eV]
    1    0           1.0000        -0.237589        -6.4651


  Species: C

  List of occupied orbitals and eigenvalues:
    n    l              occ      energy [Ha]    energy [eV]
    1    0           2.0000       -10.038835      -273.1706
    2    0           2.0000        -0.502696       -13.6791
    2    1           2.0000        -0.191971        -5.2238


  Species: N

  List of occupied orbitals and eigenvalues:
    n    l              occ      energy [Ha]    energy [eV]
    1    0           2.0000       -14.128000      -384.4424
    2    0           2.0000        -0.681077       -18.5330
    2    1           3.0000        -0.259788        -7.0692


  Species: O

  List of occupied orbitals and eigenvalues:
    n    l              occ      energy [Ha]    energy [eV]
    1    0           2.0000       -18.898188      -514.2459
    2    0           2.0000        -0.878505       -23.9053
    2    1           4.0000        -0.331779        -9.0282

  Creating fixed part of basis set: Ionic, confined, hydrogenic.
 
  H                    hydrogenic:
 
  List of hydrogenic basis orbitals: 
    n    l      effective z      eigenvalue [eV]  inner max. [A]     outer max. [A]     outer radius [A]   
    2    0         2.100000       -14.9728           0.193243           1.317208           4.583499
    2    1         3.500000       -41.6669           0.602369           0.602369           3.723403
 
 
  C                    hydrogenic:
 
  List of hydrogenic basis orbitals: 
    n    l      effective z      eigenvalue [eV]  inner max. [A]     outer max. [A]     outer radius [A]   
    2    1         1.700000        -9.7616           1.230570           1.230570           4.607917
    3    2         6.000000       -54.4224           0.792453           0.792453           3.883070
    2    0         4.900000       -81.6679           0.082559           0.562749           3.078220
 
 
  N                    hydrogenic:
 
  List of hydrogenic basis orbitals: 
    n    l      effective z      eigenvalue [eV]  inner max. [A]     outer max. [A]     outer radius [A]   
    2    1         1.800000       -10.9749           1.177451           1.177451           4.573712
    3    2         6.800000       -69.9026           0.704619           0.704619           3.538137
    3    0         5.800000       -50.8545           0.067388           1.191934           4.250239
 
 
  O                    hydrogenic:
 
  List of hydrogenic basis orbitals: 
    n    l      effective z      eigenvalue [eV]  inner max. [A]     outer max. [A]     outer radius [A]   
    2    1         1.800000       -10.9749           1.164242           1.164242           4.578029
    3    2         7.600000       -87.3180           0.624125           0.624125           3.251020
    3    0         6.400000       -61.9207           0.061167           1.081902           4.001998
 

  Adding cutoff potential to free-atom effective potential.
  Creating atomic-like basis functions for current effective potential.

  Species H                   :

  List of atomic basis orbitals and eigenvalues:
    n    l      energy [Ha]    energy [eV]    outer radius [A]
    1    0        -0.237589        -6.4651       4.527807


  Species C                   :

  List of atomic basis orbitals and eigenvalues:
    n    l      energy [Ha]    energy [eV]    outer radius [A]
    1    0       -10.038835      -273.1706       1.934409
    2    0        -0.502696       -13.6791       4.496620
    2    1        -0.191971        -5.2238       4.551928


  Species N                   :

  List of atomic basis orbitals and eigenvalues:
    n    l      energy [Ha]    energy [eV]    outer radius [A]
    1    0       -14.128000      -384.4424       1.637919
    2    0        -0.681077       -18.5330       4.463241
    2    1        -0.259788        -7.0692       4.518138


  Species O                   :

  List of atomic basis orbitals and eigenvalues:
    n    l      energy [Ha]    energy [eV]    outer radius [A]
    1    0       -18.898188      -514.2459       1.415765
    2    0        -0.878505       -23.9053       4.413171
    2    1        -0.331779        -9.0282       4.522403

  Assembling full basis from fixed parts.
  | Species H :   atomic orbital   1 s accepted.
  | Species H :    hydro orbital   2 s accepted.
  | Species H :    hydro orbital   2 p accepted.
  | Species C :   atomic orbital   1 s accepted.
  | Species C :    hydro orbital   2 s accepted.
  | Species C :   atomic orbital   2 s accepted.
  | Species C :   atomic orbital   2 p accepted.
  | Species C :    hydro orbital   2 p accepted.
  | Species C :    hydro orbital   3 d accepted.
  | Species N :   atomic orbital   1 s accepted.
  | Species N :    hydro orbital   3 s accepted.
  | Species N :   atomic orbital   2 s accepted.
  | Species N :   atomic orbital   2 p accepted.
  | Species N :    hydro orbital   2 p accepted.
  | Species N :    hydro orbital   3 d accepted.
  | Species O :   atomic orbital   1 s accepted.
  | Species O :    hydro orbital   3 s accepted.
  | Species O :   atomic orbital   2 s accepted.
  | Species O :   atomic orbital   2 p accepted.
  | Species O :    hydro orbital   2 p accepted.
  | Species O :    hydro orbital   3 d accepted.
 
  Basis size parameters after reduction:
  | Total number of radial functions:       21
  | Total number of basis functions :      119
 
  Per-task memory consumption for arrays in subroutine allocate_ext:
  |           5.250512MB.
  Testing on-site integration grid accuracy.
  |  Species  Function  <phi|h_atom|phi> (log., in eV)  <phi|h_atom|phi> (rad., in eV)
           1        1                 -6.4663192853                 -6.4651273558
           1        2                 13.7111246313                 13.7170609718
           1        3                 25.2673269279                 25.2674696378
           2        4               -273.1705927641               -273.1705631568
           2        5                -10.7109323383                -10.7107120029
           2        6                 17.4381822266                 17.4352413244
           2        7                 -5.2255326521                 -5.2270484734
           2        8                  8.6835629259                  8.6603288385
           2        9                 27.4952418996                 27.4953360207
           3       10               -384.4424306495               -384.4423701208
           3       11                 12.5842251816                 12.5842222903
           3       12                -15.7264628251                -15.7264433455
           3       13                 -7.0696854293                 -7.0701769954
           3       14                  8.8090390882                  8.7901077751
           3       15                 35.9586762123                 35.9588528632
           4       16               -514.2458688638               -514.2457643834
           4       17                 15.1795651126                 15.1795290741
           4       18                -21.5359799773                -21.5360846186
           4       19                 -9.0283069236                 -9.0284644067
           4       20                  8.3027758564                  8.2834874195
           4       21                 45.8339351984                 45.8338762259

  Preparing densities etc. for the partition functions (integrals / Hartree potential).

  Preparations completed.
  max(cpu_time)          :      0.147 s.
  Wall clock time (cpu1) :      0.148 s.
------------------------------------------------------------

------------------------------------------------------------
          Begin self-consistency loop: Initialization.

          Date     :  20200710, Time     :  150249.600
------------------------------------------------------------

  Initializing index lists of integration centers etc. from given atomic structure:
  | Number of centers in hartree potential         :        13
  | Number of centers in hartree multipole         :        13
  | Number of centers in electron density summation:        13
  | Number of centers in basis integrals           :        13
  | Number of centers in integrals                 :        13
  | Number of centers in hamiltonian               :        13
  Partitioning the integration grid into batches with parallel hashing+maxmin method.
  | Number of batches:      953
  | Maximal batch size:     139
  | Minimal batch size:      66
  | Average batch size:      73.081
  | Standard deviation of batch sizes:      17.829

  Integration load balanced across     1 MPI tasks.
  Work distribution over tasks is as follows:
  Task     0 has      69646 integration points.
  Initializing partition tables, free-atom densities, potentials, etc. across the integration grid (initialize_grid_storage).
  | initialize_grid_storage: Actual outermost partition radius vs. multipole_radius_free
  | (-- VB: in principle, multipole_radius_free should be larger, hence this output)
  | Species        1: Confinement radius =              4.999999999999999 AA, multipole_radius_free =              5.054417573612229 AA.
  | Species        1: outer_partition_radius set to              5.054417573612229 AA .
  | Species        2: Confinement radius =              4.999999999999999 AA, multipole_radius_free =              5.019602836301480 AA.
  | Species        2: outer_partition_radius set to              5.019602836301480 AA .
  | Species        3: Confinement radius =              4.999999999999999 AA, multipole_radius_free =              5.043624274424571 AA.
  | Species        3: outer_partition_radius set to              5.043624274424571 AA .
  | Species        4: Confinement radius =              4.999999999999999 AA, multipole_radius_free =              5.048384829883283 AA.
  | Species        4: outer_partition_radius set to              5.048384829883283 AA .
  | Original list of interatomic distances with          13 x         13 entries is created.
  | Net number of integration points:    69646
  | of which are non-zero points    :    59618
  Renormalizing the initial density to the exact electron count on the 3D integration grid.
  | Initial density: Formal number of electrons (from input files) :      48.0000000000
  | Integrated number of electrons on 3D grid     :      47.9998920699
  | Charge integration error                      :      -0.0001079301
  | Normalization factor for density and gradient :       1.0000022485
  Obtaining max. number of non-zero basis functions in each batch (get_n_compute_maxes).
  | Maximal number of non-zero basis functions:      119 in task     0
  Selecting the method for density update.
  Loop over occupied states selected for charge density update.
  Allocating        0.050 MB for KS_eigenvector
  Integrating Hamiltonian matrix: batch-based integration.
  Time summed over all CPUs for integration: real work        0.487 s, elapsed        0.487 s
  Integrating overlap matrix.
  Time summed over all CPUs for integration: real work        0.209 s, elapsed        0.209 s

  Updating Kohn-Sham eigenvalues and eigenvectors using ELSI and the ELPA eigensolver.
  Overlap matrix is nonsingular
  | Lowest eigenvalue of overlap  :  0.55E-02
  | Highest eigenvalue of overlap :  0.60E+01
  Finished singularity check of overlap matrix
  | Time :     0.002 s
  Finished Cholesky decomposition
  | Time :     0.000 s
  Finished transformation to standard eigenproblem
  | Time :     0.000 s
  Starting LAPACK eigensolver
  Finished solving standard eigenproblem
  | Time :     0.002 s
  Finished back-transformation of eigenvectors
  | Time :     0.000 s

  Obtaining occupation numbers and chemical potential using ELSI.
  | Chemical potential (Fermi level):    -8.94168951eV
  Writing Kohn-Sham eigenvalues.

  State    Occupation    Eigenvalue [Ha]    Eigenvalue [eV]
      1       2.00000         -19.007789         -517.22826
      2       2.00000         -18.977937         -516.41593
      3       2.00000         -14.245789         -387.64765
      4       2.00000         -10.166646         -276.64852
      5       2.00000         -10.141245         -275.95731
      6       2.00000         -10.132017         -275.70621
      7       2.00000          -1.186920          -32.29773
      8       2.00000          -1.093986          -29.76887
      9       2.00000          -0.991127          -26.96993
     10       2.00000          -0.861322          -23.43777
     11       2.00000          -0.759211          -20.65919
     12       2.00000          -0.680328          -18.51266
     13       2.00000          -0.621820          -16.92059
     14       2.00000          -0.605286          -16.47067
     15       2.00000          -0.580608          -15.79915
     16       2.00000          -0.579660          -15.77334
     17       2.00000          -0.544515          -14.81700
     18       2.00000          -0.535283          -14.56578
     19       2.00000          -0.514319          -13.99534
     20       2.00000          -0.502737          -13.68017
     21       2.00000          -0.471811          -12.83864
     22       2.00000          -0.430057          -11.70246
     23       2.00000          -0.401638          -10.92914
     24       2.00000          -0.387347          -10.54024
     25       0.00000          -0.155139           -4.22155
     26       0.00000          -0.058980           -1.60492
     27       0.00000          -0.027932           -0.76007
     28       0.00000          -0.022495           -0.61213
     29       0.00000           0.004923            0.13397
     30       0.00000           0.012965            0.35280
     31       0.00000           0.015336            0.41732
     32       0.00000           0.030002            0.81640
     33       0.00000           0.047476            1.29190
     34       0.00000           0.055146            1.50061
     35       0.00000           0.079627            2.16675
     36       0.00000           0.132589            3.60793
     37       0.00000           0.154543            4.20533
     38       0.00000           0.201358            5.47923
     39       0.00000           0.211866            5.76516
     40       0.00000           0.221385            6.02419
     41       0.00000           0.254160            6.91605
     42       0.00000           0.278306            7.57310
     43       0.00000           0.291493            7.93192
     44       0.00000           0.298215            8.11485
     45       0.00000           0.336211            9.14876
     46       0.00000           0.364550            9.91991
     47       0.00000           0.386820           10.52589
     48       0.00000           0.423654           11.52822
     49       0.00000           0.444817           12.10409
     50       0.00000           0.454443           12.36602
     51       0.00000           0.471923           12.84169
     52       0.00000           0.547451           14.89690
     53       0.00000           0.590048           16.05601

  Highest occupied state (VBM) at    -10.54023745 eV
  | Occupation number:      2.00000000

  Lowest unoccupied state (CBM) at    -4.22154850 eV
  | Occupation number:      0.00000000

  Overall HOMO-LUMO gap:      6.31868895 eV.
  Calculating total energy contributions from superposition of free atom densities.

  Total energy components:
  | Sum of eigenvalues            :        -188.83879613 Ha       -5138.56508994 eV
  | XC energy correction          :         -41.78474563 Ha       -1137.02077948 eV
  | XC potential correction       :          53.71446535 Ha        1461.64496997 eV
  | Free-atom electrostatic energy:        -146.85922401 Ha       -3996.24281196 eV
  | Hartree energy correction     :           0.00000000 Ha           0.00000000 eV
  | vdW energy correction         :           0.00000000 Ha           0.00000000 eV
  | Entropy correction            :           0.00000000 Ha           0.00000000 eV
  | ---------------------------
  | Total energy                  :        -323.76830041 Ha       -8810.18371141 eV
  | Total energy, T -> 0          :        -323.76830041 Ha       -8810.18371141 eV  <-- do not rely on this value for anything but (periodic) metals
  | Electronic free energy        :        -323.76830041 Ha       -8810.18371141 eV

  Derived energy quantities:
  | Kinetic energy                :         320.48058083 Ha        8720.72030970 eV
  | Electrostatic energy          :        -602.46413561 Ha      -16393.88324163 eV
  | Energy correction for multipole
  | error in Hartree potential    :           0.00000000 Ha           0.00000000 eV
  | Sum of eigenvalues per atom                           :        -395.27423769 eV
  | Total energy (T->0) per atom                          :        -677.70643934 eV  <-- do not rely on this value for anything but (periodic) metals
  | Electronic free energy per atom                       :        -677.70643934 eV
  Initialize hartree_potential_storage
  Max. number of atoms included in rho_multipole:           13

  End scf initialization - timings             :  max(cpu_time)    wall_clock(cpu1)
  | Time for scf. initialization               :        1.138 s           1.139 s
  | Boundary condition initialization          :        0.000 s           0.000 s
  | Integration                                :        0.696 s           0.696 s
  | Solution of K.-S. eqns.                    :        0.004 s           0.005 s
  | Grid partitioning                          :        0.111 s           0.111 s
  | Preloading free-atom quantities on grid    :        0.002 s           0.002 s
  | Free-atom superposition energy             :        0.085 s           0.085 s
  | Total energy evaluation                    :        0.000 s           0.000 s

  Partial memory accounting:
  | Current value for overall tracked memory usage on task 0  :           0.165 MB
  | Peak value for overall tracked memory usage on task 0     :           0.678 MB after allocating wave
  | Largest tracked array allocation on task 0 so far         :           0.132 MB  when allocating H_times_psi
  Note:  These values currently only include a subset of arrays which are explicitly tracked.
  The "true" memory usage will be greater.
------------------------------------------------------------

------------------------------------------------------------
          Begin self-consistency iteration #    1

  Date     :  20200710, Time     :  150250.739
------------------------------------------------------------
  Evaluating new KS density.
  Integration grid: deviation in total charge (<rho> - N_e) =  -3.552714E-14
  Pulay mixing of updated and previous charge densities.

  Evaluating partitioned Hartree potential by multipole expansion.
  | Analytical far-field extrapolation by fixed multipoles:
  | Hartree multipole sum: apparent total charge =  -0.218129E-03
  Summing up the Hartree potential.
  Time summed over all CPUs for potential: real work        0.282 s, elapsed        0.282 s
  | RMS charge density error from multipole expansion :   0.583457E-02

  Integrating Hamiltonian matrix: batch-based integration.
  Time summed over all CPUs for integration: real work        0.493 s, elapsed        0.493 s

  Updating Kohn-Sham eigenvalues and eigenvectors using ELSI and the ELPA eigensolver.
  Finished Cholesky decomposition
  | Time :     0.000 s
  Finished transformation to standard eigenproblem
  | Time :     0.000 s
  Starting LAPACK eigensolver
  Finished solving standard eigenproblem
  | Time :     0.001 s
  Finished back-transformation of eigenvectors
  | Time :     0.000 s

  Obtaining occupation numbers and chemical potential using ELSI.
  | Chemical potential (Fermi level):    -7.75997386eV
  Writing Kohn-Sham eigenvalues.

  State    Occupation    Eigenvalue [Ha]    Eigenvalue [eV]
      1       2.00000         -18.903558         -514.39197
      2       2.00000         -18.839069         -512.63716
      3       2.00000         -14.094179         -383.52212
      4       2.00000         -10.116414         -275.28162
      5       2.00000         -10.061844         -273.79672
      6       2.00000         -10.028679         -272.89424
      7       2.00000          -1.137904          -30.96393
      8       2.00000          -1.031907          -28.07961
      9       2.00000          -0.920178          -25.03932
     10       2.00000          -0.793742          -21.59881
     11       2.00000          -0.707875          -19.26225
     12       2.00000          -0.633552          -17.23984
     13       2.00000          -0.562950          -15.31866
     14       2.00000          -0.543463          -14.78839
     15       2.00000          -0.523270          -14.23890
     16       2.00000          -0.520185          -14.15496
     17       2.00000          -0.488908          -13.30387
     18       2.00000          -0.472918          -12.86875
     19       2.00000          -0.447256          -12.17046
     20       2.00000          -0.441977          -12.02680
     21       2.00000          -0.415260          -11.29981
     22       2.00000          -0.370545          -10.08304
     23       2.00000          -0.330670           -8.99799
     24       2.00000          -0.313452           -8.52948
     25       0.00000          -0.119490           -3.25148
     26       0.00000          -0.033868           -0.92160
     27       0.00000          -0.003626           -0.09866
     28       0.00000           0.016204            0.44093
     29       0.00000           0.039675            1.07961
     30       0.00000           0.047043            1.28011
     31       0.00000           0.057923            1.57617
     32       0.00000           0.068714            1.86980
     33       0.00000           0.091604            2.49266
     34       0.00000           0.094969            2.58424
     35       0.00000           0.120468            3.27811
     36       0.00000           0.159780            4.34782
     37       0.00000           0.180335            4.90718
     38       0.00000           0.232077            6.31513
     39       0.00000           0.242734            6.60512
     40       0.00000           0.261205            7.10774
     41       0.00000           0.289520            7.87824
     42       0.00000           0.314423            8.55588
     43       0.00000           0.327950            8.92397
     44       0.00000           0.335157            9.12009
     45       0.00000           0.377787           10.28012
     46       0.00000           0.403060           10.96781
     47       0.00000           0.425366           11.57478
     48       0.00000           0.461669           12.56266
     49       0.00000           0.480833           13.08412
     50       0.00000           0.491753           13.38129
     51       0.00000           0.511439           13.91697
     52       0.00000           0.581904           15.83440
     53       0.00000           0.630484           17.15635

  Highest occupied state (VBM) at     -8.52947539 eV
  | Occupation number:      2.00000000

  Lowest unoccupied state (CBM) at    -3.25147869 eV
  | Occupation number:      0.00000000

  Overall HOMO-LUMO gap:      5.27799670 eV.

  Total energy components:
  | Sum of eigenvalues            :        -185.39951033 Ha       -5044.97736160 eV
  | XC energy correction          :         -42.11387214 Ha       -1145.97676758 eV
  | XC potential correction       :          54.14255465 Ha        1473.29387251 eV
  | Free-atom electrostatic energy:        -146.85922401 Ha       -3996.24281196 eV
  | Hartree energy correction     :          -3.35565520 Ha         -91.31202397 eV
  | vdW energy correction         :           0.00000000 Ha           0.00000000 eV
  | Entropy correction            :           0.00000000 Ha           0.00000000 eV
  | ---------------------------
  | Total energy                  :        -323.58570703 Ha       -8805.21509260 eV
  | Total energy, T -> 0          :        -323.58570703 Ha       -8805.21509260 eV  <-- do not rely on this value for anything but (periodic) metals
  | Electronic free energy        :        -323.58570703 Ha       -8805.21509260 eV

  Derived energy quantities:
  | Kinetic energy                :         322.27280774 Ha        8769.48928528 eV
  | Electrostatic energy          :        -603.74464263 Ha      -16428.72761030 eV
  | Energy correction for multipole
  | error in Hartree potential    :           0.01207384 Ha           0.32854579 eV
  | Sum of eigenvalues per atom                           :        -388.07518166 eV
  | Total energy (T->0) per atom                          :        -677.32423789 eV  <-- do not rely on this value for anything but (periodic) metals
  | Electronic free energy per atom                       :        -677.32423789 eV

  Self-consistency convergence accuracy:
  | Change of charge density      :  0.5838E+00
  | Change of sum of eigenvalues  :  0.9359E+02 eV
  | Change of total energy        :  0.4969E+01 eV

  End self-consistency iteration #     1       :  max(cpu_time)    wall_clock(cpu1)
  | Time for this iteration                    :        1.183 s           1.185 s
  | Charge density update                      :        0.391 s           0.392 s
  | Density mixing                             :        0.005 s           0.005 s
  | Hartree multipole update                   :        0.009 s           0.009 s
  | Hartree multipole summation                :        0.282 s           0.282 s
  | Integration                                :        0.493 s           0.494 s
  | Solution of K.-S. eqns.                    :        0.002 s           0.002 s
  | Total energy evaluation                    :        0.000 s           0.001 s

  Partial memory accounting:
  | Current value for overall tracked memory usage on task 0  :           0.165 MB
  | Peak value for overall tracked memory usage on task 0     :           0.695 MB after allocating gradient_basis_wave
  | Largest tracked array allocation on task 0 so far         :           0.397 MB  when allocating gradient_basis_wave
  Note:  These values currently only include a subset of arrays which are explicitly tracked.
  The "true" memory usage will be greater.
------------------------------------------------------------

------------------------------------------------------------
          Begin self-consistency iteration #    2

  Date     :  20200710, Time     :  150251.924
------------------------------------------------------------
  Evaluating new KS density.
  Integration grid: deviation in total charge (<rho> - N_e) =   2.131628E-14
  Pulay mixing of updated and previous charge densities.

  Evaluating partitioned Hartree potential by multipole expansion.
  | Analytical far-field extrapolation by fixed multipoles:
  | Hartree multipole sum: apparent total charge =  -0.358878E-03
  Summing up the Hartree potential.
  Time summed over all CPUs for potential: real work        0.282 s, elapsed        0.282 s
  | RMS charge density error from multipole expansion :   0.139057E-01

  Integrating Hamiltonian matrix: batch-based integration.
  Time summed over all CPUs for integration: real work        0.492 s, elapsed        0.492 s

  Updating Kohn-Sham eigenvalues and eigenvectors using ELSI and the ELPA eigensolver.
  Finished Cholesky decomposition
  | Time :     0.000 s
  Finished transformation to standard eigenproblem
  | Time :     0.000 s
  Starting LAPACK eigensolver
  Finished solving standard eigenproblem
  | Time :     0.002 s
  Finished back-transformation of eigenvectors
  | Time :     0.000 s

  Obtaining occupation numbers and chemical potential using ELSI.
  | Chemical potential (Fermi level):    -2.27887516eV
  Highest occupied state (VBM) at     -6.46966031 eV
  | Occupation number:      2.00000000

  Lowest unoccupied state (CBM) at    -2.02698752 eV
  | Occupation number:      0.00000000

  Overall HOMO-LUMO gap:      4.44267280 eV.

  Checking to see if s.c.f. parameters should be adjusted.

  Total energy components:
  | Sum of eigenvalues            :        -181.79413453 Ha       -4946.87009459 eV
  | XC energy correction          :         -42.47435665 Ha       -1155.78605025 eV
  | XC potential correction       :          54.60988513 Ha        1486.01058169 eV
  | Free-atom electrostatic energy:        -146.85922401 Ha       -3996.24281196 eV
  | Hartree energy correction     :          -6.98983104 Ha        -190.20297994 eV
  | vdW energy correction         :           0.00000000 Ha           0.00000000 eV
  | Entropy correction            :          -0.00000000 Ha          -0.00000000 eV
  | ---------------------------
  | Total energy                  :        -323.50766111 Ha       -8803.09135504 eV
  | Total energy, T -> 0          :        -323.50766111 Ha       -8803.09135504 eV  <-- do not rely on this value for anything but (periodic) metals
  | Electronic free energy        :        -323.50766111 Ha       -8803.09135504 eV

  Derived energy quantities:
  | Kinetic energy                :         323.59041589 Ha        8805.34322718 eV
  | Electrostatic energy          :        -604.62372034 Ha      -16452.64853198 eV
  | Energy correction for multipole
  | error in Hartree potential    :           0.02680897 Ha           0.72950910 eV
  | Sum of eigenvalues per atom                           :        -380.52846881 eV
  | Total energy (T->0) per atom                          :        -677.16087346 eV  <-- do not rely on this value for anything but (periodic) metals
  | Electronic free energy per atom                       :        -677.16087346 eV

  Self-consistency convergence accuracy:
  | Change of charge density      :  0.3642E+00
  | Change of sum of eigenvalues  :  0.9811E+02 eV
  | Change of total energy        :  0.2124E+01 eV

  End self-consistency iteration #     2       :  max(cpu_time)    wall_clock(cpu1)
  | Time for this iteration                    :        1.175 s           1.177 s
  | Charge density update                      :        0.384 s           0.385 s
  | Density mixing                             :        0.007 s           0.006 s
  | Hartree multipole update                   :        0.009 s           0.009 s
  | Hartree multipole summation                :        0.282 s           0.283 s
  | Integration                                :        0.492 s           0.491 s
  | Solution of K.-S. eqns.                    :        0.002 s           0.002 s
  | Total energy evaluation                    :        0.000 s           0.000 s

  Partial memory accounting:
  | Current value for overall tracked memory usage on task 0  :           0.166 MB
  | Peak value for overall tracked memory usage on task 0     :           0.695 MB after allocating gradient_basis_wave
  | Largest tracked array allocation on task 0 so far         :           0.397 MB  when allocating gradient_basis_wave
  Note:  These values currently only include a subset of arrays which are explicitly tracked.
  The "true" memory usage will be greater.
------------------------------------------------------------

------------------------------------------------------------
          Begin self-consistency iteration #    3

  Date     :  20200710, Time     :  150253.101
------------------------------------------------------------
  Evaluating new KS density.
  Integration grid: deviation in total charge (<rho> - N_e) =  -2.131628E-14
  Pulay mixing of updated and previous charge densities.

  Evaluating partitioned Hartree potential by multipole expansion.
  | Analytical far-field extrapolation by fixed multipoles:
  | Hartree multipole sum: apparent total charge =  -0.459520E-03
  Summing up the Hartree potential.
  Time summed over all CPUs for potential: real work        0.282 s, elapsed        0.282 s
  | RMS charge density error from multipole expansion :   0.221863E-01

  Integrating Hamiltonian matrix: batch-based integration.
  Time summed over all CPUs for integration: real work        0.487 s, elapsed        0.487 s

  Updating Kohn-Sham eigenvalues and eigenvectors using ELSI and the ELPA eigensolver.
  Finished Cholesky decomposition
  | Time :     0.000 s
  Finished transformation to standard eigenproblem
  | Time :     0.000 s
  Starting LAPACK eigensolver
  Finished solving standard eigenproblem
  | Time :     0.001 s
  Finished back-transformation of eigenvectors
  | Time :     0.000 s

  Obtaining occupation numbers and chemical potential using ELSI.
  | Chemical potential (Fermi level):    -1.64034674eV
  Highest occupied state (VBM) at     -5.79530871 eV
  | Occupation number:      2.00000000

  Lowest unoccupied state (CBM) at    -1.34302274 eV
  | Occupation number:      0.00000000

  Overall HOMO-LUMO gap:      4.45228597 eV.

  Total energy components:
  | Sum of eigenvalues            :        -180.51132933 Ha       -4911.96318897 eV
  | XC energy correction          :         -42.62484891 Ha       -1159.88115305 eV
  | XC potential correction       :          54.80164660 Ha        1491.22867677 eV
  | Free-atom electrostatic energy:        -146.85922401 Ha       -3996.24281196 eV
  | Hartree energy correction     :          -8.30121245 Ha        -225.88748382 eV
  | vdW energy correction         :           0.00000000 Ha           0.00000000 eV
  | Entropy correction            :           0.00000000 Ha           0.00000000 eV
  | ---------------------------
  | Total energy                  :        -323.49496811 Ha       -8802.74596103 eV
  | Total energy, T -> 0          :        -323.49496811 Ha       -8802.74596103 eV  <-- do not rely on this value for anything but (periodic) metals
  | Electronic free energy        :        -323.49496811 Ha       -8802.74596103 eV

  Derived energy quantities:
  | Kinetic energy                :         323.13281139 Ha        8792.89117537 eV
  | Electrostatic energy          :        -604.00293059 Ha      -16435.75598335 eV
  | Energy correction for multipole
  | error in Hartree potential    :           0.03855205 Ha           1.04905474 eV
  | Sum of eigenvalues per atom                           :        -377.84332223 eV
  | Total energy (T->0) per atom                          :        -677.13430469 eV  <-- do not rely on this value for anything but (periodic) metals
  | Electronic free energy per atom                       :        -677.13430469 eV

  Self-consistency convergence accuracy:
  | Change of charge density      :  0.2032E+00
  | Change of sum of eigenvalues  :  0.3491E+02 eV
  | Change of total energy        :  0.3454E+00 eV

  End self-consistency iteration #     3       :  max(cpu_time)    wall_clock(cpu1)
  | Time for this iteration                    :        1.172 s           1.173 s
  | Charge density update                      :        0.384 s           0.384 s
  | Density mixing                             :        0.008 s           0.008 s
  | Hartree multipole update                   :        0.009 s           0.009 s
  | Hartree multipole summation                :        0.282 s           0.283 s
  | Integration                                :        0.487 s           0.487 s
  | Solution of K.-S. eqns.                    :        0.002 s           0.002 s
  | Total energy evaluation                    :        0.000 s           0.000 s

  Partial memory accounting:
  | Current value for overall tracked memory usage on task 0  :           0.166 MB
  | Peak value for overall tracked memory usage on task 0     :           0.695 MB after allocating gradient_basis_wave
  | Largest tracked array allocation on task 0 so far         :           0.397 MB  when allocating gradient_basis_wave
  Note:  These values currently only include a subset of arrays which are explicitly tracked.
  The "true" memory usage will be greater.
------------------------------------------------------------

------------------------------------------------------------
          Begin self-consistency iteration #    4

  Date     :  20200710, Time     :  150254.276
------------------------------------------------------------
  Evaluating new KS density.
  Integration grid: deviation in total charge (<rho> - N_e) =  -2.131628E-14
  Pulay mixing of updated and previous charge densities.

  Evaluating partitioned Hartree potential by multipole expansion.
  | Analytical far-field extrapolation by fixed multipoles:
  | Hartree multipole sum: apparent total charge =  -0.490722E-03
  Summing up the Hartree potential.
  Time summed over all CPUs for potential: real work        0.281 s, elapsed        0.281 s
  | RMS charge density error from multipole expansion :   0.253812E-01

  Integrating Hamiltonian matrix: batch-based integration.
  Time summed over all CPUs for integration: real work        0.487 s, elapsed        0.487 s

  Updating Kohn-Sham eigenvalues and eigenvectors using ELSI and the ELPA eigensolver.
  Finished Cholesky decomposition
  | Time :     0.000 s
  Finished transformation to standard eigenproblem
  | Time :     0.000 s
  Starting LAPACK eigensolver
  Finished solving standard eigenproblem
  | Time :     0.002 s
  Finished back-transformation of eigenvectors
  | Time :     0.000 s

  Obtaining occupation numbers and chemical potential using ELSI.
  | Chemical potential (Fermi level):    -1.53594044eV
  Highest occupied state (VBM) at     -5.62340117 eV
  | Occupation number:      2.00000000

  Lowest unoccupied state (CBM) at    -1.26384916 eV
  | Occupation number:      0.00000000

  Overall HOMO-LUMO gap:      4.35955201 eV.

  Total energy components:
  | Sum of eigenvalues            :        -180.35299788 Ha       -4907.65477097 eV
  | XC energy correction          :         -42.66207511 Ha       -1160.89412929 eV
  | XC potential correction       :          54.84863642 Ha        1492.50733485 eV
  | Free-atom electrostatic energy:        -146.85922401 Ha       -3996.24281196 eV
  | Hartree energy correction     :          -8.46853344 Ha        -230.44051966 eV
  | vdW energy correction         :           0.00000000 Ha           0.00000000 eV
  | Entropy correction            :           0.00000000 Ha           0.00000000 eV
  | ---------------------------
  | Total energy                  :        -323.49419402 Ha       -8802.72489703 eV
  | Total energy, T -> 0          :        -323.49419402 Ha       -8802.72489703 eV  <-- do not rely on this value for anything but (periodic) metals
  | Electronic free energy        :        -323.49419402 Ha       -8802.72489703 eV

  Derived energy quantities:
  | Kinetic energy                :         322.79187809 Ha        8783.61390827 eV
  | Electrostatic energy          :        -603.62399701 Ha      -16425.44467601 eV
  | Energy correction for multipole
  | error in Hartree potential    :           0.04269612 Ha           1.16182051 eV
  | Sum of eigenvalues per atom                           :        -377.51190546 eV
  | Total energy (T->0) per atom                          :        -677.13268439 eV  <-- do not rely on this value for anything but (periodic) metals
  | Electronic free energy per atom                       :        -677.13268439 eV

  Self-consistency convergence accuracy:
  | Change of charge density      :  0.6014E-01
  | Change of sum of eigenvalues  :  0.4308E+01 eV
  | Change of total energy        :  0.2106E-01 eV

  End self-consistency iteration #     4       :  max(cpu_time)    wall_clock(cpu1)
  | Time for this iteration                    :        1.173 s           1.174 s
  | Charge density update                      :        0.384 s           0.384 s
  | Density mixing                             :        0.009 s           0.009 s
  | Hartree multipole update                   :        0.009 s           0.009 s
  | Hartree multipole summation                :        0.282 s           0.282 s
  | Integration                                :        0.487 s           0.488 s
  | Solution of K.-S. eqns.                    :        0.002 s           0.002 s
  | Total energy evaluation                    :        0.000 s           0.000 s

  Partial memory accounting:
  | Current value for overall tracked memory usage on task 0  :           0.166 MB
  | Peak value for overall tracked memory usage on task 0     :           0.696 MB after allocating gradient_basis_wave
  | Largest tracked array allocation on task 0 so far         :           0.397 MB  when allocating gradient_basis_wave
  Note:  These values currently only include a subset of arrays which are explicitly tracked.
  The "true" memory usage will be greater.
------------------------------------------------------------

------------------------------------------------------------
          Begin self-consistency iteration #    5

  Date     :  20200710, Time     :  150255.451
------------------------------------------------------------
  Evaluating new KS density.
  Integration grid: deviation in total charge (<rho> - N_e) =   5.684342E-14
  Pulay mixing of updated and previous charge densities.

  Evaluating partitioned Hartree potential by multipole expansion.
  | Analytical far-field extrapolation by fixed multipoles:
  | Hartree multipole sum: apparent total charge =  -0.484416E-03
  Summing up the Hartree potential.
  Time summed over all CPUs for potential: real work        0.281 s, elapsed        0.281 s
  | RMS charge density error from multipole expansion :   0.251441E-01

  Integrating Hamiltonian matrix: batch-based integration.
  Time summed over all CPUs for integration: real work        0.487 s, elapsed        0.487 s

  Updating Kohn-Sham eigenvalues and eigenvectors using ELSI and the ELPA eigensolver.
  Finished Cholesky decomposition
  | Time :     0.000 s
  Finished transformation to standard eigenproblem
  | Time :     0.000 s
  Starting LAPACK eigensolver
  Finished solving standard eigenproblem
  | Time :     0.001 s
  Finished back-transformation of eigenvectors
  | Time :     0.000 s

  Obtaining occupation numbers and chemical potential using ELSI.
  | Chemical potential (Fermi level):    -1.59469429eV
  Highest occupied state (VBM) at     -5.70021148 eV
  | Occupation number:      2.00000000

  Lowest unoccupied state (CBM) at    -1.34744983 eV
  | Occupation number:      0.00000000

  Overall HOMO-LUMO gap:      4.35276166 eV.

  Total energy components:
  | Sum of eigenvalues            :        -180.55182264 Ha       -4913.06506804 eV
  | XC energy correction          :         -42.63792742 Ha       -1160.23703737 eV
  | XC potential correction       :          54.81730709 Ha        1491.65482054 eV
  | Free-atom electrostatic energy:        -146.85922401 Ha       -3996.24281196 eV
  | Hartree energy correction     :          -8.26222519 Ha        -224.82658642 eV
  | vdW energy correction         :           0.00000000 Ha           0.00000000 eV
  | Entropy correction            :          -0.00000000 Ha          -0.00000000 eV
  | ---------------------------
  | Total energy                  :        -323.49389217 Ha       -8802.71668325 eV
  | Total energy, T -> 0          :        -323.49389217 Ha       -8802.71668325 eV  <-- do not rely on this value for anything but (periodic) metals
  | Electronic free energy        :        -323.49389217 Ha       -8802.71668325 eV

  Derived energy quantities:
  | Kinetic energy                :         322.67926526 Ha        8780.54955705 eV
  | Electrostatic energy          :        -603.53523000 Ha      -16423.02920293 eV
  | Energy correction for multipole
  | error in Hartree potential    :           0.04208508 Ha           1.14519343 eV
  | Sum of eigenvalues per atom                           :        -377.92808216 eV
  | Total energy (T->0) per atom                          :        -677.13205256 eV  <-- do not rely on this value for anything but (periodic) metals
  | Electronic free energy per atom                       :        -677.13205256 eV

  Self-consistency convergence accuracy:
  | Change of charge density      :  0.2064E-01
  | Change of sum of eigenvalues  : -0.5410E+01 eV
  | Change of total energy        :  0.8214E-02 eV

  End self-consistency iteration #     5       :  max(cpu_time)    wall_clock(cpu1)
  | Time for this iteration                    :        1.175 s           1.176 s
  | Charge density update                      :        0.384 s           0.384 s
  | Density mixing                             :        0.011 s           0.011 s
  | Hartree multipole update                   :        0.009 s           0.009 s
  | Hartree multipole summation                :        0.282 s           0.282 s
  | Integration                                :        0.487 s           0.487 s
  | Solution of K.-S. eqns.                    :        0.002 s           0.002 s
  | Total energy evaluation                    :        0.000 s           0.000 s

  Partial memory accounting:
  | Current value for overall tracked memory usage on task 0  :           0.166 MB
  | Peak value for overall tracked memory usage on task 0     :           0.696 MB after allocating gradient_basis_wave
  | Largest tracked array allocation on task 0 so far         :           0.397 MB  when allocating gradient_basis_wave
  Note:  These values currently only include a subset of arrays which are explicitly tracked.
  The "true" memory usage will be greater.
------------------------------------------------------------

------------------------------------------------------------
          Begin self-consistency iteration #    6

  Date     :  20200710, Time     :  150256.628
------------------------------------------------------------
  Evaluating new KS density.
  Integration grid: deviation in total charge (<rho> - N_e) =  -7.105427E-15
  Pulay mixing of updated and previous charge densities.

  Evaluating partitioned Hartree potential by multipole expansion.
  | Analytical far-field extrapolation by fixed multipoles:
  | Hartree multipole sum: apparent total charge =  -0.487587E-03
  Summing up the Hartree potential.
  Time summed over all CPUs for potential: real work        0.281 s, elapsed        0.281 s
  | RMS charge density error from multipole expansion :   0.255552E-01

  Integrating Hamiltonian matrix: batch-based integration.
  Time summed over all CPUs for integration: real work        0.487 s, elapsed        0.487 s

  Updating Kohn-Sham eigenvalues and eigenvectors using ELSI and the ELPA eigensolver.
  Finished Cholesky decomposition
  | Time :     0.000 s
  Finished transformation to standard eigenproblem
  | Time :     0.000 s
  Starting LAPACK eigensolver
  Finished solving standard eigenproblem
  | Time :     0.001 s
  Finished back-transformation of eigenvectors
  | Time :     0.000 s

  Obtaining occupation numbers and chemical potential using ELSI.
  | Chemical potential (Fermi level):    -1.58901947eV
  Highest occupied state (VBM) at     -5.66823549 eV
  | Occupation number:      2.00000000

  Lowest unoccupied state (CBM) at    -1.36174263 eV
  | Occupation number:      0.00000000

  Overall HOMO-LUMO gap:      4.30649286 eV.

  Total energy components:
  | Sum of eigenvalues            :        -180.55959571 Ha       -4913.27658405 eV
  | XC energy correction          :         -42.63583965 Ha       -1160.18022614 eV
  | XC potential correction       :          54.81457713 Ha        1491.58053451 eV
  | Free-atom electrostatic energy:        -146.85922401 Ha       -3996.24281196 eV
  | Hartree energy correction     :          -8.25376047 Ha        -224.59624967 eV
  | vdW energy correction         :           0.00000000 Ha           0.00000000 eV
  | Entropy correction            :          -0.00000000 Ha          -0.00000000 eV
  | ---------------------------
  | Total energy                  :        -323.49384271 Ha       -8802.71533731 eV
  | Total energy, T -> 0          :        -323.49384271 Ha       -8802.71533731 eV  <-- do not rely on this value for anything but (periodic) metals
  | Electronic free energy        :        -323.49384271 Ha       -8802.71533731 eV

  Derived energy quantities:
  | Kinetic energy                :         322.59689295 Ha        8778.30809252 eV
  | Electrostatic energy          :        -603.45489601 Ha      -16420.84320369 eV
  | Energy correction for multipole
  | error in Hartree potential    :           0.04246171 Ha           1.15544196 eV
  | Sum of eigenvalues per atom                           :        -377.94435262 eV
  | Total energy (T->0) per atom                          :        -677.13194902 eV  <-- do not rely on this value for anything but (periodic) metals
  | Electronic free energy per atom                       :        -677.13194902 eV

  Self-consistency convergence accuracy:
  | Change of charge density      :  0.1044E-01
  | Change of sum of eigenvalues  : -0.2115E+00 eV
  | Change of total energy        :  0.1346E-02 eV

  End self-consistency iteration #     6       :  max(cpu_time)    wall_clock(cpu1)
  | Time for this iteration                    :        1.175 s           1.177 s
  | Charge density update                      :        0.383 s           0.384 s
  | Density mixing                             :        0.012 s           0.012 s
  | Hartree multipole update                   :        0.009 s           0.009 s
  | Hartree multipole summation                :        0.282 s           0.282 s
  | Integration                                :        0.487 s           0.487 s
  | Solution of K.-S. eqns.                    :        0.002 s           0.002 s
  | Total energy evaluation                    :        0.000 s           0.001 s

  Partial memory accounting:
  | Current value for overall tracked memory usage on task 0  :           0.166 MB
  | Peak value for overall tracked memory usage on task 0     :           0.696 MB after allocating gradient_basis_wave
  | Largest tracked array allocation on task 0 so far         :           0.397 MB  when allocating gradient_basis_wave
  Note:  These values currently only include a subset of arrays which are explicitly tracked.
  The "true" memory usage will be greater.
------------------------------------------------------------

------------------------------------------------------------
          Begin self-consistency iteration #    7

  Date     :  20200710, Time     :  150257.805
------------------------------------------------------------
  Evaluating new KS density.
  Integration grid: deviation in total charge (<rho> - N_e) =   0.000000E+00
  Pulay mixing of updated and previous charge densities.

  Evaluating partitioned Hartree potential by multipole expansion.
  | Analytical far-field extrapolation by fixed multipoles:
  | Hartree multipole sum: apparent total charge =  -0.488721E-03
  Summing up the Hartree potential.
  Time summed over all CPUs for potential: real work        0.281 s, elapsed        0.281 s
  | RMS charge density error from multipole expansion :   0.256994E-01

  Integrating Hamiltonian matrix: batch-based integration.
  Time summed over all CPUs for integration: real work        0.487 s, elapsed        0.487 s

  Updating Kohn-Sham eigenvalues and eigenvectors using ELSI and the ELPA eigensolver.
  Finished Cholesky decomposition
  | Time :     0.000 s
  Finished transformation to standard eigenproblem
  | Time :     0.000 s
  Starting LAPACK eigensolver
  Finished solving standard eigenproblem
  | Time :     0.002 s
  Finished back-transformation of eigenvectors
  | Time :     0.000 s

[...]
  |   Hirshfeld dipole moment :      0.06295959
  |   Hirshfeld second moments:      0.00284755      -0.02378558      -0.01809821
  |                                 -0.02378558      -0.00865066       0.01185799
  |                                 -0.01809821       0.01185799      -0.01707862
  ----------------------------------------------------------------------
  | Atom    12: O
  |   Hirshfeld charge        :     -0.14097159
  |   Free atom volume        :     23.61338643
  |   Hirshfeld volume        :     20.67320837
  |   Hirshfeld dipole vector :      0.02727412       0.00360513       0.02567826
  |   Hirshfeld dipole moment :      0.03763307
  |   Hirshfeld second moments:      0.05133336      -0.00959666      -0.01374474
  |                                 -0.00959666       0.10608073       0.00198289
  |                                 -0.01374474       0.00198289       0.03743932
  ----------------------------------------------------------------------
  | Atom    13: H
  |   Hirshfeld charge        :      0.17869688
  |   Free atom volume        :      9.95071624
  |   Hirshfeld volume        :      6.18351786
  |   Hirshfeld dipole vector :      0.04597712      -0.11117868       0.01093415
  |   Hirshfeld dipole moment :      0.12080625
  |   Hirshfeld second moments:      0.11788295       0.00197095      -0.01161187
  |                                  0.00197095       0.12574595       0.00071301
  |                                 -0.01161187       0.00071301       0.09539758
  ----------------------------------------------------------------------


  Total energy components:
  | Sum of eigenvalues            :        -180.55269354 Ha       -4913.08876650 eV
  | XC energy correction          :         -42.63326516 Ha       -1160.11017079 eV
  | XC potential correction       :          54.81132348 Ha        1491.49199822 eV
  | Free-atom electrostatic energy:        -146.85922401 Ha       -3996.24281196 eV
  | Hartree energy correction     :          -8.25996363 Ha        -224.76504616 eV
  | vdW energy correction         :          -0.00311843 Ha          -0.08485671 eV
  | Entropy correction            :          -0.00000000 Ha          -0.00000000 eV
  | ---------------------------
  | Total energy                  :        -323.49694129 Ha       -8802.79965390 eV
  | Total energy, T -> 0          :        -323.49694129 Ha       -8802.79965390 eV  <-- do not rely on this value for anything but (periodic) metals
  | Electronic free energy        :        -323.49694129 Ha       -8802.79965390 eV

  Derived energy quantities:
  | Kinetic energy                :         322.55786829 Ha        8777.24617743 eV
  | Electrostatic energy          :        -603.41842598 Ha      -16419.85080384 eV
  | Energy correction for multipole
  | error in Hartree potential    :           0.04257241 Ha           1.15845413 eV
  | Sum of eigenvalues per atom                           :        -377.92990512 eV
  | Total energy (T->0) per atom                          :        -677.13843492 eV  <-- do not rely on this value for anything but (periodic) metals
  | Electronic free energy per atom                       :        -677.13843492 eV

  atomic forces [eV/Ang]:
  -----------------------
  atom #    1
   Hellmann-Feynman              :  0.532292E+00  0.426294E+00  0.743501E+00
   Ionic forces                  :  0.000000E+00  0.000000E+00  0.000000E+00
   Multipole                     :  0.232709E+00  0.283989E+00 -0.298090E+00
   Pulay + GGA                   : -0.131674E+01 -0.448185E+00 -0.998202E+00
   Van der Waals                 :  0.217625E-02  0.348712E-02 -0.169647E-02
   ----------------------------------------------------------------
   Total forces(   1)            : -0.549566E+00  0.265586E+00 -0.554486E+00
  atom #    2
   Hellmann-Feynman              :  0.462429E+00 -0.110802E+00  0.458887E+00
   Ionic forces                  :  0.000000E+00  0.000000E+00  0.000000E+00
   Multipole                     :  0.144395E+00  0.291499E-01 -0.485285E-01
   Pulay + GGA                   : -0.115591E+00  0.167517E-01  0.699830E-02
   Van der Waals                 :  0.853820E-02 -0.444158E-02 -0.115977E-02
   ----------------------------------------------------------------
   Total forces(   2)            :  0.499772E+00 -0.693421E-01  0.416197E+00
  atom #    3
   Hellmann-Feynman              : -0.124107E+02  0.164503E+01  0.900526E+00
   Ionic forces                  :  0.000000E+00  0.000000E+00  0.000000E+00
   Multipole                     : -0.680554E-01  0.124049E+00 -0.894774E+00
   Pulay + GGA                   :  0.121543E+02 -0.174531E+01  0.831247E+00
   Van der Waals                 :  0.327193E-02 -0.847045E-02 -0.625024E-02
   ----------------------------------------------------------------
   Total forces(   3)            : -0.321176E+00  0.153003E-01  0.830748E+00
  atom #    4
   Hellmann-Feynman              :  0.193615E+00 -0.259093E-01 -0.856522E-01
   Ionic forces                  :  0.000000E+00  0.000000E+00  0.000000E+00
   Multipole                     :  0.384680E-01  0.131368E-01 -0.995585E-01
   Pulay + GGA                   : -0.167504E+00 -0.115801E+00  0.925943E-01
   Van der Waals                 : -0.259736E-02 -0.657496E-02 -0.571236E-02
   ----------------------------------------------------------------
   Total forces(   4)            :  0.619817E-01 -0.135149E+00 -0.983287E-01
  atom #    5
   Hellmann-Feynman              :  0.203924E+00 -0.856827E-01 -0.262574E+00
   Ionic forces                  :  0.000000E+00  0.000000E+00  0.000000E+00
   Multipole                     :  0.330171E-01 -0.569313E-01 -0.104561E+00
   Pulay + GGA                   : -0.158054E+00  0.155715E+00  0.917866E-01
   Van der Waals                 : -0.240300E-02  0.225678E-02 -0.844909E-03
   ----------------------------------------------------------------
   Total forces(   5)            :  0.764840E-01  0.153578E-01 -0.276193E+00
  atom #    6
   Hellmann-Feynman              : -0.251250E+00 -0.671490E+00  0.419818E+00
   Ionic forces                  :  0.000000E+00  0.000000E+00  0.000000E+00
   Multipole                     : -0.113721E+00  0.695319E+00  0.245586E+00
   Pulay + GGA                   :  0.467396E+00 -0.418009E+00 -0.630172E+00
   Van der Waals                 : -0.401590E-02  0.491365E-02  0.860732E-03
   ----------------------------------------------------------------
   Total forces(   6)            :  0.984091E-01 -0.389266E+00  0.360933E-01
  atom #    7
   Hellmann-Feynman              : -0.186536E+00 -0.425023E-01 -0.699825E-01
   Ionic forces                  :  0.000000E+00  0.000000E+00  0.000000E+00
   Multipole                     : -0.124281E+00  0.480709E-01  0.321015E-01
   Pulay + GGA                   :  0.119064E+00 -0.149402E-01 -0.329458E-01
   Van der Waals                 : -0.577428E-03  0.194794E-02  0.236842E-02
   ----------------------------------------------------------------
   Total forces(   7)            : -0.192329E+00 -0.742363E-02 -0.684584E-01
  atom #    8
   Hellmann-Feynman              :  0.123986E+00 -0.400119E-01  0.118622E+00
   Ionic forces                  :  0.000000E+00  0.000000E+00  0.000000E+00
   Multipole                     :  0.117657E-01  0.634199E-01  0.125794E+00
   Pulay + GGA                   : -0.437135E-01 -0.363298E-01 -0.914884E-01
   Van der Waals                 : -0.244810E-02  0.115574E-01  0.132853E-02
   ----------------------------------------------------------------
   Total forces(   8)            :  0.895896E-01 -0.136441E-02  0.154256E+00
  atom #    9
   Hellmann-Feynman              :  0.115923E+00  0.724700E-01 -0.182125E+00
   Ionic forces                  :  0.000000E+00  0.000000E+00  0.000000E+00
   Multipole                     :  0.178349E-01  0.127656E+00 -0.637125E-02
   Pulay + GGA                   : -0.523320E-01 -0.689491E-01  0.681387E-01
   Van der Waals                 : -0.218428E-02  0.687296E-02  0.861640E-02
   ----------------------------------------------------------------
   Total forces(   9)            :  0.792414E-01  0.138050E+00 -0.111741E+00
  atom #   10
   Hellmann-Feynman              :  0.250502E+01  0.559657E+01  0.874038E+00
   Ionic forces                  :  0.000000E+00  0.000000E+00  0.000000E+00
   Multipole                     :  0.246585E-01 -0.209565E+00  0.307583E+00
   Pulay + GGA                   : -0.181780E+01 -0.273218E+01 -0.132163E+00
   Van der Waals                 :  0.290343E-02 -0.103677E-01 -0.527409E-03
   ----------------------------------------------------------------
   Total forces(  10)            :  0.714780E+00  0.264445E+01  0.104893E+01
  atom #   11
   Hellmann-Feynman              :  0.414273E+01 -0.225585E+01  0.141005E+02
   Ionic forces                  :  0.000000E+00  0.000000E+00  0.000000E+00
   Multipole                     :  0.136426E+00 -0.666198E+00  0.784964E+00
   Pulay + GGA                   : -0.306291E+01  0.336949E+01 -0.135976E+02
   Van der Waals                 : -0.309869E-02 -0.117804E-01  0.170238E-02
   ----------------------------------------------------------------
   Total forces(  11)            :  0.121315E+01  0.435657E+00  0.128957E+01
  atom #   12
   Hellmann-Feynman              : -0.994250E+01  0.123764E+01 -0.128986E+02
   Ionic forces                  :  0.000000E+00  0.000000E+00  0.000000E+00
   Multipole                     : -0.101610E+01 -0.961470E+00 -0.549675E+00
   Pulay + GGA                   :  0.100761E+02 -0.225793E+01  0.105453E+02
   Van der Waals                 : -0.146124E-03  0.556467E-02  0.570518E-02
   ----------------------------------------------------------------
   Total forces(  12)            : -0.882625E+00 -0.197620E+01 -0.289721E+01
  atom #   13
   Hellmann-Feynman              : -0.775258E+00 -0.118592E+01  0.310366E+00
   Ionic forces                  :  0.000000E+00  0.000000E+00  0.000000E+00
   Multipole                     :  0.450342E-01 -0.829838E-01  0.118214E-01
   Pulay + GGA                   : -0.156722E+00  0.323240E+00 -0.895921E-01
   Van der Waals                 :  0.581087E-03  0.503457E-02 -0.439047E-02
   ----------------------------------------------------------------
   Total forces(  13)            : -0.886364E+00 -0.940628E+00  0.228205E+00

  Timings for VdW correction (Tkatchenko-Scheffler 2009 or later):
  | CPU time:        0.088 s, Wall clock time:        0.089 s.
  Removing unitary transformations (pure translations, rotations) from forces on atoms.
  Atomic forces before filtering:
  | Net force on center of mass :   0.135084E-02 -0.496319E-02 -0.242182E-02 eV/A
  | Net torque on center of mass:  -0.560561E-02  0.701755E-02  0.257547E-02 eV
  Atomic forces after filtering:
  | Net force on center of mass :   0.000000E+00  0.535218E-15 -0.802828E-15 eV/A
  | Net torque on center of mass:   0.424838E-15  0.731666E-15 -0.377634E-15 eV

  Energy and forces in a compact form:
  | Total energy uncorrected      :         -0.880279965390222E+04 eV
  | Total energy corrected        :         -0.880279965390222E+04 eV  <-- do not rely on this value for anything but (periodic) metals
  | Electronic free energy        :         -0.880279965390222E+04 eV
  Total atomic forces (unitary forces cleaned) [eV/Ang]:
  |   1         -0.549623997424026E+00          0.265952998756573E+00         -0.554179208881394E+00
  |   2          0.499713666242170E+00         -0.690635741428456E-01          0.416842932581300E+00
  |   3         -0.320797001309132E+00          0.158696289306941E-01          0.830906928080816E+00
  |   4          0.625789072052163E-01         -0.134559502778946E+00         -0.979347748009416E-01
  |   5          0.769184059826036E-01          0.159583351193506E-01         -0.276075062695025E+00
  |   6          0.982280248676854E-01         -0.388942667430247E+00          0.363928583135773E-01
  |   7         -0.192513236360762E+00         -0.701351773379695E-02         -0.684938002868230E-01
  |   8          0.890903248274879E-01         -0.118963674838592E-02          0.154668519381529E+00
  |   9          0.792895970663778E-01          0.138401754010979E+00         -0.111225409694999E+00
  |  10          0.714387243940248E+00          0.264476786660509E+01          0.104896662690017E+01
  |  11          0.121238612063530E+01          0.435814848861791E+00          0.128966165802137E+01
  |  12         -0.882878229423837E+00         -0.197574643026719E+01         -0.289749171316251E+01
  |  13         -0.886779826249330E+00         -0.940250103183071E+00          0.227960446242935E+00

  ------------------------------------ 
  Start decomposition of the XC Energy 
  ------------------------------------ 
  X and C from original XC functional choice 
  Hartree-Fock Energy :          0.000000000 Ha              0.000000000 eV
  X Energy            :        -41.033757951 Ha          -1116.585365087 eV
  C Energy            :         -1.599507210 Ha            -43.524805708 eV
  Total XC Energy     :        -42.633265161 Ha          -1160.110170795 eV
  ------------------------------------ 
  LDA X and C from self-consistent density 
  X Energy LDA        :        -37.251378156 Ha          -1013.661574163 eV
  C Energy LDA        :         -3.138171344 Ha            -85.393987068 eV
  ------------------------------------ 
  End decomposition of the XC Energy 
  ------------------------------------ 

------------------------------------------------------------

------------------------------------------------------------------------------
  Final output of selected total energy values:

  The following output summarizes some interesting total energy values
  at the end of a run (AFTER all relaxation, molecular dynamics, etc.).

  | Total energy of the DFT / Hartree-Fock s.c.f. calculation      :          -8802.799653902 eV
  | Final zero-broadening corrected energy (caution - metals only) :          -8802.799653902 eV
  | For reference only, the value of 1 Hartree used in FHI-aims is :             27.211384500 eV

  Before relying on these values, please be sure to understand exactly which
  total energy value is referred to by a given number. Different objects may
  all carry the same name 'total energy'. Definitions:

  Total energy of the DFT / Hartree-Fock s.c.f. calculation:
  | Note that this energy does not include ANY quantities calculated after the
  | s.c.f. cycle, in particular not ANY RPA, MP2, etc. many-body perturbation terms.

  Final zero-broadening corrected energy:
  | For metallic systems only, a broadening of the occupation numbers at the Fermi
  | level can be extrapolated back to zero broadening by an electron-gas inspired
  | formula. For all systems that are not real metals, this value can be
  | meaningless and should be avoided.

------------------------------------------------------------------------------
  Methods described in the following list of references were used in this FHI-aims run.
  If you publish the results, please make sure to cite these reference if they apply.
  FHI-aims is an academic code, and for our developers (often, Ph.D. students
  and postdocs), scientific credit in the community is essential.
  Thank you for helping us!

  For any use of FHI-aims, please cite:

    Volker Blum, Ralf Gehrke, Felix Hanke, Paula Havu, Ville Havu,
    Xinguo Ren, Karsten Reuter, and Matthias Scheffler
    'Ab initio molecular simulations with numeric atom-centered orbitals'
    Computer Physics Communications 180, 2175-2196 (2009)
    http://dx.doi.org/10.1016/j.cpc.2009.06.022


  The scalable eigensolver library ELPA was used in your run.
  ELPA is essential especially for large systems on hundreds or thousands of CPUs.
  For ELPA, please cite:

    Andreas Marek, Volker Blum, Rainer Johanni, Ville Havu, Bruno Lang,
    Thomas Auckenthaler, Alexander Heinecke, Hans-Joachim Bungartz, and Hermann Lederer,
    'The ELPA Library - Scalable Parallel Eigenvalue Solutions
    for Electronic Structure Theory and Computational Science'
    The Journal of Physics: Condensed Matter 26, 213201 (2014).
    http://dx.doi.org/10.1088/0953-8984/26/21/213201


  The ELSI infrastructure was used in your run to solve the Kohn-Sham electronic structure.
  Please check out http://elsi-interchange.org to learn more.
  If scalability is important for your project, please acknowledge ELSI by citing:

    V. W-z. Yu, F. Corsetti, A. Garcia, W. P. Huhn, M. Jacquelin, W. Jia,
    B. Lange, L. Lin, J. Lu, W. Mi, A. Seifitokaldani, A. Vazquez-Mayagoitia,
    C. Yang, H. Yang, and V. Blum
    'ELSI: A unified software interface for Kohn-Sham electronic structure solvers'
    Computer Physics Communications 222, 267-285 (2018).
    http://dx.doi.org/10.1016/j.cpc.2017.09.007


  For the real-space grid partitioning and parallelization used in this calculation, please cite:

    Ville Havu, Volker Blum, Paula Havu, and Matthias Scheffler,
    'Efficient O(N) integration for all-electron electronic structure calculation'
    'using numerically tabulated basis functions'
    Journal of Computational Physics 228, 8367-8379 (2009).
    http://dx.doi.org/10.1016/j.jcp.2009.08.008

  Of course, there are many other important community references, e.g., those cited in the
  above references. Our list is limited to references that describe implementations in the
  FHI-aims code. The reason is purely practical (length of this list) - please credit others as well.

------------------------------------------------------------
          Leaving FHI-aims.
          Date     :  20200710, Time     :  150311.983

          Computational steps:
          | Number of self-consistency cycles          :           16
          | Number of SCF (re)initializations          :            1

          Detailed time accounting                     :  max(cpu_time)    wall_clock(cpu1)
          | Total time                                 :       22.490 s          22.546 s
          | Preparation time                           :        0.147 s           0.148 s
          | Boundary condition initalization           :        0.000 s           0.000 s
          | Grid partitioning                          :        0.111 s           0.111 s
          | Preloading free-atom quantities on grid    :        0.002 s           0.002 s
          | Free-atom superposition energy             :        0.085 s           0.085 s
          | Total time for integrations                :        8.501 s           8.505 s
          | Total time for solution of K.-S. equations :        0.036 s           0.037 s
          | Total time for density & force components  :        7.080 s           7.105 s
          | Total time for mixing                      :        0.213 s           0.213 s
          | Total time for Hartree multipole update    :        0.140 s           0.143 s
          | Total time for Hartree multipole sum       :        5.778 s           5.788 s
          | Total time for total energy evaluation     :        0.003 s           0.004 s
          | Total time for vdW correction              :        0.088 s           0.089 s

          Partial memory accounting:
          | Residual value for overall tracked memory usage across tasks :           0.000 MB (should be 0.000 MB)
          | Peak values for overall tracked memory usage (after allocating hessian_basis_wave):
          |   Minimum:        1.622 MB (on task 1)
          |   Maximum:        1.622 MB (on task 1)
          |   Average:        1.622 MB
          | Largest tracked array allocation (hessian_basis_wave):
          |   Minimum:        0.794 MB (on task 1)
          |   Maximum:        0.794 MB (on task 1)
          |   Average:        0.794 MB
          Note:  These values currently only include a subset of arrays which are explicitly tracked.
          The "true" memory usage will be greater.

          Have a nice day.
------------------------------------------------------------
