  MPI-parallelism will be employed.
------------------------------------------------------------
          Invoking FHI-aims ...
          Version 171221_1
          Compiled on 2019/09/09 at 14:39:39 on host puhti-login2.bullx.

          When using FHI-aims, please cite the following reference:

          Volker Blum, Ralf Gehrke, Felix Hanke, Paula Havu,
          Ville Havu, Xinguo Ren, Karsten Reuter, and Matthias Scheffler,
          'Ab Initio Molecular Simulations with Numeric Atom-Centered Orbitals',
          Computer Physics Communications 180, 2175-2196 (2009)

          For any questions about FHI-aims, please visit the aimsclub website
          with its forums and wiki. Contributions to both the forums and the
          wiki are warmly encouraged - they are for you, and everyone is welcome there.

------------------------------------------------------------



  Date     :  20200710, Time     :  150447.979
  Time zero on CPU 1             :   0.121360000000000E-01  s.
  Internal wall clock time zero  :           363625487.979  s.

  FHI-aims created a unique identifier for this run for later identification
  aims_uuid : E80BB3BA-51BA-4684-A01D-ACFC264CD610

  Using        1 parallel tasks.
  Task        0 on host r18c46.bullx reporting.

  Performing system and environment tests:
  | Environment variable OMP_NUM_THREADS correctly set to 1.
  | Stacksize not measured: no C compiler
  | Checking for scalapack...
  | Testing pdtran()...
  | All pdtran() tests passed.

  Obtaining array dimensions for all initial allocations:
  
  -----------------------------------------------------------------------
  Parsing control.in (first pass over file, find array dimensions only).
  The contents of control.in will be repeated verbatim below
  unless switched off by setting 'verbatim_writeout .false.' .
  in the first line of control.in .
  -----------------------------------------------------------------------
  
  #########################################################################################
  #
  #  Volker Blum, FHI 2009 : Test run input file control.in for simple H2O
  #
  #########################################################################################
  #
  #  Physical model
  #
    xc                 pbe
    vdw_correction_hirshfeld
    spin               none
    relativistic       none
    charge             0.
  #
  #  SCF convergence
  #
    occupation_type    gaussian 0.01
    mixer              pulay
      n_max_pulay        10
      charge_mix_param   0.2
    sc_accuracy_rho    1E-5
    sc_accuracy_eev    1E-3
    sc_accuracy_etot   1E-6
    sc_accuracy_forces 1E-4
    sc_iter_limit      100
  #
  #  Relaxation
  #
  #  relax_geometry   bfgs 1.e-3
  #
  ################################################################################
  #
  #  FHI-aims code project
  #  VB, Fritz-Haber Institut, 2009
  #
  #  Suggested "light" defaults for H atom (to be pasted into control.in file)
  #  Be sure to double-check any results obtained with these settings for post-processing,
  #  e.g., with the "tight" defaults and larger basis sets.
  #
  ################################################################################
    species        H
  #     global species definitions
      nucleus             1
      mass                1.00794
  #
      l_hartree           4
  #
      cut_pot             3.5  1.5  1.0
      basis_dep_cutoff    1e-4
  #
      radial_base         24 5.0
      radial_multiplier   1
      angular_grids       specified
        division   0.2421   50
        division   0.3822  110
        division   0.4799  194
        division   0.5341  302
  #      division   0.5626  434
  #      division   0.5922  590
  #      division   0.6542  770
  #      division   0.6868 1202
  #      outer_grid  770
        outer_grid  302
  ################################################################################
  #
  #  Definition of "minimal" basis
  #
  ################################################################################
  #     valence basis states
      valence      1  s   1.
  #     ion occupancy
      ion_occ      1  s   0.5
  ################################################################################
  #
  #  Suggested additional basis functions. For production calculations,
  #  uncomment them one after another (the most important basis functions are
  #  listed first).
  #
  #  Basis constructed for dimers: 0.5 A, 0.7 A, 1.0 A, 1.5 A, 2.5 A
  #
  ################################################################################
  #  "First tier" - improvements: -1014.90 meV to -62.69 meV
       hydro 2 s 2.1
       hydro 2 p 3.5
  #  "Second tier" - improvements: -12.89 meV to -1.83 meV
  #     hydro 1 s 0.85
  #     hydro 2 p 3.7
  #     hydro 2 s 1.2
  #     hydro 3 d 7
  #  "Third tier" - improvements: -0.25 meV to -0.12 meV
  #     hydro 4 f 11.2
  #     hydro 3 p 4.8
  #     hydro 4 d 9
  #     hydro 3 s 3.2
  ################################################################################
  #
  #  FHI-aims code project
  #  VB, Fritz-Haber Institut, 2009
  #
  #  Suggested "light" defaults for C atom (to be pasted into control.in file)
  #  Be sure to double-check any results obtained with these settings for post-processing,
  #  e.g., with the "tight" defaults and larger basis sets.
  #
  ################################################################################
    species        C
  #     global species definitions
      nucleus             6
      mass                12.0107
  #
      l_hartree           4
  #
      cut_pot             3.5  1.5  1.0
      basis_dep_cutoff    1e-4
  #
      radial_base         34 5.0
      radial_multiplier   1
      angular_grids specified
        division   0.3326   50
        division   0.5710  110
        division   0.7727  194
        division   0.8772  302
  #      division   0.9334  434
  #      division   0.9625  590
  #      division   0.9924  770
  #      division   1.0230  974
  #      division   1.4589 1202
  #     outer_grid  974
       outer_grid 302
  ################################################################################
  #
  #  Definition of "minimal" basis
  #
  ################################################################################
  #     valence basis states
      valence      2  s   2.
      valence      2  p   2.
  #     ion occupancy
      ion_occ      2  s   1.
      ion_occ      2  p   1.
  ################################################################################
  #
  #  Suggested additional basis functions. For production calculations,
  #  uncomment them one after another (the most important basis functions are
  #  listed first).
  #
  #  Constructed for dimers: 1.0 A, 1.25 A, 1.5 A, 2.0 A, 3.0 A
  #
  ################################################################################
  #  "First tier" - improvements: -1214.57 meV to -155.61 meV
       hydro 2 p 1.7
       hydro 3 d 6
       hydro 2 s 4.9
  #  "Second tier" - improvements: -67.75 meV to -5.23 meV
  #     hydro 4 f 9.8
  #     hydro 3 p 5.2
  #     hydro 3 s 4.3
  #     hydro 5 g 14.4
  #     hydro 3 d 6.2
  #  "Third tier" - improvements: -2.43 meV to -0.60 meV
  #     hydro 2 p 5.6
  #     hydro 2 s 1.4
  #     hydro 3 d 4.9
  #     hydro 4 f 11.2
  #  "Fourth tier" - improvements: -0.39 meV to -0.18 meV
  #     hydro 2 p 2.1
  #     hydro 5 g 16.4
  #     hydro 4 d 13.2
  #     hydro 3 s 13.6
  #     hydro 4 f 17.6
  #  Further basis functions - improvements: -0.08 meV and below
  #     hydro 3 s 2
  #     hydro 3 p 6
  #     hydro 4 d 20
  ################################################################################
  #
  #  FHI-aims code project
  #  VB, Fritz-Haber Institut, 2009
  #
  #  Suggested "light" defaults for N atom (to be pasted into control.in file)
  #  Be sure to double-check any results obtained with these settings for post-processing,
  #  e.g., with the "tight" defaults and larger basis sets.
  #
  ################################################################################
    species        N
  #     global species definitions
      nucleus             7
      mass                14.0067
  #
      l_hartree           4
  #
      cut_pot             3.5  1.5  1.0
      basis_dep_cutoff    1e-4
  #
      radial_base         35 5.0
      radial_multiplier   1
      angular_grids       specified
        division   0.2599   50
        division   0.4601  110
        division   0.5885  194
        division   0.6503  302
  #      division   0.6939  434
  #      division   0.7396  590
  #      division   0.7632  770
  #      division   0.8122  974
  #      division   1.1604 1202
  #      outer_grid  974
        outer_grid  302
  ################################################################################
  #
  #  Definition of "minimal" basis
  #
  ################################################################################
  #     valence basis states
      valence      2  s   2.
      valence      2  p   3.
  #     ion occupancy
      ion_occ      2  s   1.
      ion_occ      2  p   2.
  ################################################################################
  #
  #  Suggested additional basis functions. For production calculations,
  #  uncomment them one after another (the most important basis functions are
  #  listed first).
  #
  #  Constructed for dimers: 1.0 A, 1.1 A, 1.5 A, 2.0 A, 3.0 A
  #
  ################################################################################
  #  "First tier" - improvements: -1193.42 meV to -220.60 meV
       hydro 2 p 1.8
       hydro 3 d 6.8
       hydro 3 s 5.8
  #  "Second tier" - improvements: -80.21 meV to -6.86 meV
  #     hydro 4 f 10.8
  #     hydro 3 p 5.8
  #     hydro 1 s 0.8
  #     hydro 5 g 16
  #     hydro 3 d 4.9
  #  "Third tier" - improvements: -4.29 meV to -0.53 meV
  #     hydro 3 s 16
  #     ionic 2 p auto
  #     hydro 3 d 6.6
  #     hydro 4 f 11.6
  #  "Fourth tier" - improvements: -0.75 meV to -0.25 meV
  #     hydro 2 p 4.5
  #     hydro 2 s 2.4
  #     hydro 5 g 14.4
  #     hydro 4 d 14.4
  #     hydro 4 f 16.8
  # Further basis functions - -0.21 meV and below
  #     hydro 3 p 14.8
  #     hydro 3 s 4.4
  #     hydro 3 d 19.6
  #     hydro 5 g 12.8
  ################################################################################
  #
  #  FHI-aims code project
  #  VB, Fritz-Haber Institut, 2009
  #
  #  Suggested "light" defaults for O atom (to be pasted into control.in file)
  #  Be sure to double-check any results obtained with these settings for post-processing,
  #  e.g., with the "tight" defaults and larger basis sets.
  #
  ################################################################################
    species        O
  #     global species definitions
      nucleus             8
      mass                15.9994
  #
      l_hartree           4
  #
      cut_pot             3.5  1.5  1.0
      basis_dep_cutoff    1e-4
  #
      radial_base         36 5.0
      radial_multiplier   1
       angular_grids specified
        division   0.2659   50
        division   0.4451  110
        division   0.6052  194
        division   0.7543  302
  #      division   0.8014  434
  #      division   0.8507  590
  #      division   0.8762  770
  #      division   0.9023  974
  #      division   1.2339 1202
  #      outer_grid 974
        outer_grid 302
  ################################################################################
  #
  #  Definition of "minimal" basis
  #
  ################################################################################
  #     valence basis states
      valence      2  s   2.
      valence      2  p   4.
  #     ion occupancy
      ion_occ      2  s   1.
      ion_occ      2  p   3.
  ################################################################################
  #
  #  Suggested additional basis functions. For production calculations,
  #  uncomment them one after another (the most important basis functions are
  #  listed first).
  #
  #  Constructed for dimers: 1.0 A, 1.208 A, 1.5 A, 2.0 A, 3.0 A
  #
  ################################################################################
  #  "First tier" - improvements: -699.05 meV to -159.38 meV
       hydro 2 p 1.8
       hydro 3 d 7.6
       hydro 3 s 6.4
  #  "Second tier" - improvements: -49.91 meV to -5.39 meV
  #     hydro 4 f 11.6
  #     hydro 3 p 6.2
  #     hydro 3 d 5.6
  #     hydro 5 g 17.6
  #     hydro 1 s 0.75
  #  "Third tier" - improvements: -2.83 meV to -0.50 meV
  #     ionic 2 p auto
  #     hydro 4 f 10.8
  #     hydro 4 d 4.7
  #     hydro 2 s 6.8
  #  "Fourth tier" - improvements: -0.40 meV to -0.12 meV
  #     hydro 3 p 5
  #     hydro 3 s 3.3
  #     hydro 5 g 15.6
  #     hydro 4 f 17.6
  #     hydro 4 d 14
  # Further basis functions - -0.08 meV and below
  #     hydro 3 s 2.1
  #     hydro 4 d 11.6
  #     hydro 3 p 16
  #     hydro 2 s 17.2
  
  -----------------------------------------------------------------------
  Completed first pass over input file control.in .
  -----------------------------------------------------------------------
  
  
  -----------------------------------------------------------------------
  Parsing geometry.in (first pass over file, find array dimensions only).
  The contents of geometry.in will be repeated verbatim below
  unless switched off by setting 'verbatim_writeout .false.' .
  in the first line of geometry.in .
  -----------------------------------------------------------------------
  
  atom  0.00000 0.00000 0.00000 C
  atom  1.09300 0.00000 0.00000 H
  atom  -0.47961 0.00000 -1.41207 N
  atom  0.29582 -0.26437 -2.02088 H
  atom  -1.23987 -0.67124 -1.49905 H
  atom  -0.49584 1.26211 0.72868 C
  atom  -1.58789 1.28919 0.74431 H
  atom  -0.13407 1.27425 1.75947 H
  atom  -0.13407 2.16087 0.22380 H
  atom  -0.39425 -1.28861 0.74398 C
  atom  -0.10189 -1.56493 1.88303 O
  atom  -1.10210 -2.13717 0.06896 O
  atom  -0.38265 -2.72305 -0.22108 H
  
  -----------------------------------------------------------------------
  Completed first pass over input file geometry.in .
  -----------------------------------------------------------------------
  

  Basic array size parameters:
  | Number of species                 :        4
  | Number of atoms                   :       13
  | Max. basis fn. angular momentum   :        2
  | Max. atomic/ionic basis occupied n:        2
  | Max. number of basis fn. types    :        2
  | Max. radial fns per species/type  :        3
  | Max. logarithmic grid size        :     1301
  | Max. radial integration grid size :       36
  | Max. angular integration grid size:      302
  | Max. angular grid division number :        8
  | Radial grid for Hartree potential :     1301
  | Number of spin channels           :        1

------------------------------------------------------------
          Reading file control.in.
------------------------------------------------------------
  XC: Using PBE gradient-corrected functionals.
  Spin treatment: No spin polarisation.
  Non-relativistic treatment of kinetic energy.
  Charge =   0.000000E+00: Neutral system requested explicitly.
  Occupation type: Gaussian broadening, width =   0.100000E-01 eV.
  Using pulay charge density mixing.
  Pulay mixing - number of memorized iterations:   10
  Charge density mixing - mixing parameter:     0.2000
  Convergence accuracy of self-consistent charge density:  0.1000E-04
  Convergence accuracy of sum of eigenvalues:  0.1000E-02
  Convergence accuracy of total energy:  0.1000E-05
  Convergence accuracy of forces:  0.1000E-03
  Maximum number of s.-c. iterations  :   100
 
  Reading configuration options for species H                   .
  | Found nuclear charge :   1.0000
  | Found atomic mass :    1.00794000000000      amu
  | Found l_max for Hartree potential  :   4
  | Found cutoff potl. onset [A], width [A], scale factor :    3.50000    1.50000    1.00000
  | Threshold for basis-dependent cutoff potential is   0.100000E-03
  | Found data for basic radial integration grid :    24 points, outermost radius =    5.000 A
  | Found multiplier for basic radial grid :   1
  | Found angular grid specification: user-specified.
  | Specified grid contains     5 separate shells.
  | Check grid settings after all constraints further below.
  | Found free-atom valence shell :  1 s   1.000
  | No ionic wave fns used. Skipping ion_occ.
  | Found hydrogenic basis function :  2 s   2.100
  | Found hydrogenic basis function :  2 p   3.500
  Species H                   : Missing cutoff potential type.
  Defaulting to exp(1/x)/(1-x)^2 type cutoff potential.
  Species H : No 'logarithmic' tag. Using default grid for free atom:
  | Default logarithmic grid data [bohr] : 0.1000E-03 0.1000E+03 0.1012E+01
  Species H : On-site basis accuracy parameter (for Gram-Schmidt orthonormalisation) not specified.
  Using default value basis_acc =  0.1000000E-03.
  Species H                   : Using default innermost maximum threshold i_radial=  2 for radial functions.
  Species H                   : Default cutoff onset for free atom density etc. : 0.35000000E+01 AA.
  Species H                   : Basic radial grid will be enhanced according to radial_multiplier =   1, to contain    24 grid points.
 
  Reading configuration options for species C                   .
  | Found nuclear charge :   6.0000
  | Found atomic mass :    12.0107000000000      amu
  | Found l_max for Hartree potential  :   4
  | Found cutoff potl. onset [A], width [A], scale factor :    3.50000    1.50000    1.00000
  | Threshold for basis-dependent cutoff potential is   0.100000E-03
  | Found data for basic radial integration grid :    34 points, outermost radius =    5.000 A
  | Found multiplier for basic radial grid :   1
  | Found angular grid specification: user-specified.
  | Specified grid contains     5 separate shells.
  | Check grid settings after all constraints further below.
  | Found free-atom valence shell :  2 s   2.000
  | Found free-atom valence shell :  2 p   2.000
  | No ionic wave fns used. Skipping ion_occ.
  | No ionic wave fns used. Skipping ion_occ.
  | Found hydrogenic basis function :  2 p   1.700
  | Found hydrogenic basis function :  3 d   6.000
  | Found hydrogenic basis function :  2 s   4.900
  Species C                   : Missing cutoff potential type.
  Defaulting to exp(1/x)/(1-x)^2 type cutoff potential.
  Species C : No 'logarithmic' tag. Using default grid for free atom:
  | Default logarithmic grid data [bohr] : 0.1000E-03 0.1000E+03 0.1012E+01
  Species C : On-site basis accuracy parameter (for Gram-Schmidt orthonormalisation) not specified.
  Using default value basis_acc =  0.1000000E-03.
  Species C                   : Using default innermost maximum threshold i_radial=  2 for radial functions.
  Species C                   : Default cutoff onset for free atom density etc. : 0.35000000E+01 AA.
  Species C                   : Basic radial grid will be enhanced according to radial_multiplier =   1, to contain    34 grid points.
 
  Reading configuration options for species N                   .
  | Found nuclear charge :   7.0000
  | Found atomic mass :    14.0067000000000      amu
  | Found l_max for Hartree potential  :   4
  | Found cutoff potl. onset [A], width [A], scale factor :    3.50000    1.50000    1.00000
  | Threshold for basis-dependent cutoff potential is   0.100000E-03
  | Found data for basic radial integration grid :    35 points, outermost radius =    5.000 A
  | Found multiplier for basic radial grid :   1
  | Found angular grid specification: user-specified.
  | Specified grid contains     5 separate shells.
  | Check grid settings after all constraints further below.
  | Found free-atom valence shell :  2 s   2.000
  | Found free-atom valence shell :  2 p   3.000
  | No ionic wave fns used. Skipping ion_occ.
  | No ionic wave fns used. Skipping ion_occ.
  | Found hydrogenic basis function :  2 p   1.800
  | Found hydrogenic basis function :  3 d   6.800
  | Found hydrogenic basis function :  3 s   5.800
  Species N                   : Missing cutoff potential type.
  Defaulting to exp(1/x)/(1-x)^2 type cutoff potential.
  Species N : No 'logarithmic' tag. Using default grid for free atom:
  | Default logarithmic grid data [bohr] : 0.1000E-03 0.1000E+03 0.1012E+01
  Species N : On-site basis accuracy parameter (for Gram-Schmidt orthonormalisation) not specified.
  Using default value basis_acc =  0.1000000E-03.
  Species N                   : Using default innermost maximum threshold i_radial=  2 for radial functions.
  Species N                   : Default cutoff onset for free atom density etc. : 0.35000000E+01 AA.
  Species N                   : Basic radial grid will be enhanced according to radial_multiplier =   1, to contain    35 grid points.
 
  Reading configuration options for species O                   .
  | Found nuclear charge :   8.0000
  | Found atomic mass :    15.9994000000000      amu
  | Found l_max for Hartree potential  :   4
  | Found cutoff potl. onset [A], width [A], scale factor :    3.50000    1.50000    1.00000
  | Threshold for basis-dependent cutoff potential is   0.100000E-03
  | Found data for basic radial integration grid :    36 points, outermost radius =    5.000 A
  | Found multiplier for basic radial grid :   1
  | Found angular grid specification: user-specified.
  | Specified grid contains     5 separate shells.
  | Check grid settings after all constraints further below.
  | Found free-atom valence shell :  2 s   2.000
  | Found free-atom valence shell :  2 p   4.000
  | No ionic wave fns used. Skipping ion_occ.
  | No ionic wave fns used. Skipping ion_occ.
  | Found hydrogenic basis function :  2 p   1.800
  | Found hydrogenic basis function :  3 d   7.600
  | Found hydrogenic basis function :  3 s   6.400
  Species O                   : Missing cutoff potential type.
  Defaulting to exp(1/x)/(1-x)^2 type cutoff potential.
  Species O : No 'logarithmic' tag. Using default grid for free atom:
  | Default logarithmic grid data [bohr] : 0.1000E-03 0.1000E+03 0.1012E+01
  Species O : On-site basis accuracy parameter (for Gram-Schmidt orthonormalisation) not specified.
  Using default value basis_acc =  0.1000000E-03.
  Species O                   : Using default innermost maximum threshold i_radial=  2 for radial functions.
  Species O                   : Default cutoff onset for free atom density etc. : 0.35000000E+01 AA.
  Species O                   : Basic radial grid will be enhanced according to radial_multiplier =   1, to contain    36 grid points.
 
  Finished reading input file 'control.in'. Consistency checks are next.
 
  MPI_IN_PLACE appears to work with this MPI implementation.
  | Keeping use_mpi_in_place .true. (see manual).
  Target number of points in a grid batch is not set. Defaulting to  100
  Method for grid partitioning is not set. Defaulting to parallel hash+maxmin partitioning.
  Batch size limit is not set. Defaulting to    200
  By default, will store active basis functions for each batch.
  If in need of memory, prune_basis_once .false. can be used to disable this option.
  communication_type for Hartree potential was not specified.
  Defaulting to calc_hartree .
  Pulay mixer: Number of initial linear mixing iterations not set.
  Defaulting to    0 iterations.
  Work space size for distributed Hartree potential not set.
  Defaulting to   0.200000E+03 MB.
  Algorithm-dependent basis array size parameters:
  | n_max_pulay                         :       10
  Presetting      1001 iterations before the initial mixing cycle
  is restarted anyway using the sc_init_iter criterion / keyword.
  Presetting a factor      1.000 between actual scf density residual
  and density convergence criterion sc_accuracy_rho below which sc_init_iter
  takes no effect.
  Geometry relaxation not requested: no relaxation will be performed.
  Handling of forces: Unphysical translation and rotation will be removed from forces.
  No accuracy limit for integral partition fn. given. Defaulting to  0.1000E-14.
  No threshold value for u(r) in integrations given. Defaulting to  0.1000E-05.
  No accuracy for occupation numbers given. Defaulting to  0.1000E-12.
  No threshold value for occupation numbers given. Defaulting to  0.0000E+00.
  No accuracy for fermi level given. Defaulting to  0.1000E-19.
  Maximum # of iterations to find E_F not set. Defaulting to  200.
  Preferred method for the eigenvalue solver ('KS_method') not specified in 'control.in'.
  Defaulting to serial version, 'lapack_fast'.
  Will not use alltoall communication since running on < 1024 CPUs.
  Threshold for basis singularities not set.
  Default threshold for basis singularities:  0.1000E-04
  partition_type (choice of integration weights) for integrals was not specified.
  | Using a version of the partition function of Stratmann and coworkers ('stratmann_smoother').
  | At each grid point, the set of atoms used to build the partition table is smoothly restricted to
  | only those atoms whose free-atom density would be non-zero at that grid point.
  Partitioning for Hartree potential was not defined. Using partition_type for integrals.
  | Adjusted default value of keyword multip_moments_threshold to:       0.10000000E-11
  | This value may affect high angular momentum components of the Hartree potential in periodic systems.
  No q(lm)/r^(l+1) cutoff set for long-range Hartree potential.
  | Using default value of  0.100000E-09 .
  | Verify using the multipole_threshold keyword.
  Defaulting to new monopole extrapolation.
  Density update method: automatic selection selected.
------------------------------------------------------------


------------------------------------------------------------
          Reading geometry description geometry.in.
------------------------------------------------------------
  Input structure read successfully.
  The structure contains       13 atoms,  and a total of         48.000 electrons.

  Input geometry:
  | No unit cell requested.
  | Atomic structure:
  |       Atom                x [A]            y [A]            z [A]
  |    1: Species C             0.00000000        0.00000000        0.00000000
  |    2: Species H             1.09300000        0.00000000        0.00000000
  |    3: Species N            -0.47961000        0.00000000       -1.41207000
  |    4: Species H             0.29582000       -0.26437000       -2.02088000
  |    5: Species H            -1.23987000       -0.67124000       -1.49905000
  |    6: Species C            -0.49584000        1.26211000        0.72868000
  |    7: Species H            -1.58789000        1.28919000        0.74431000
  |    8: Species H            -0.13407000        1.27425000        1.75947000
  |    9: Species H            -0.13407000        2.16087000        0.22380000
  |   10: Species C            -0.39425000       -1.28861000        0.74398000
  |   11: Species O            -0.10189000       -1.56493000        1.88303000
  |   12: Species O            -1.10210000       -2.13717000        0.06896000
  |   13: Species H            -0.38265000       -2.72305000       -0.22108000
  |

  | The smallest distance between any two atoms is         0.97210436 AA.
  |
  | The first atom of this pair is atom number                     12 .
  | The second atom of this pair is atom number                    13 .

  Number of empty states per atom not set in control.in - providing a guess from actual geometry.
  | Total number of empty states used during s.c.f. cycle:       29
  If you use a very high smearing, use empty_states (per atom!) in control.in to increase this value.

  Structure-dependent array size parameters: 
  | Maximum number of distinct radial functions  :       21
  | Maximum number of basis functions            :      119
  | Number of Kohn-Sham states (occupied + empty):       53
------------------------------------------------------------

------------------------------------------------------------
          Preparing all fixed parts of the calculation.
------------------------------------------------------------
  Determining machine precision:
    2.225073858507201E-308
  Setting up grids for atomic and cluster calculations.

  Creating wave function, potential, and density for free atoms.

  Species: H

  List of occupied orbitals and eigenvalues:
    n    l              occ      energy [Ha]    energy [eV]
    1    0           1.0000        -0.237589        -6.4651


  Species: C

  List of occupied orbitals and eigenvalues:
    n    l              occ      energy [Ha]    energy [eV]
    1    0           2.0000       -10.038835      -273.1706
    2    0           2.0000        -0.502696       -13.6791
    2    1           2.0000        -0.191971        -5.2238


  Species: N

  List of occupied orbitals and eigenvalues:
    n    l              occ      energy [Ha]    energy [eV]
    1    0           2.0000       -14.128000      -384.4424
    2    0           2.0000        -0.681077       -18.5330
    2    1           3.0000        -0.259788        -7.0692


  Species: O

  List of occupied orbitals and eigenvalues:
    n    l              occ      energy [Ha]    energy [eV]
    1    0           2.0000       -18.898188      -514.2459
    2    0           2.0000        -0.878505       -23.9053
    2    1           4.0000        -0.331779        -9.0282

  Creating fixed part of basis set: Ionic, confined, hydrogenic.
 
  H                    hydrogenic:
 
  List of hydrogenic basis orbitals: 
    n    l      effective z      eigenvalue [eV]  inner max. [A]     outer max. [A]     outer radius [A]   
    2    0         2.100000       -14.9728           0.193243           1.317208           4.583499
    2    1         3.500000       -41.6669           0.602369           0.602369           3.723403
 
 
  C                    hydrogenic:
 
  List of hydrogenic basis orbitals: 
    n    l      effective z      eigenvalue [eV]  inner max. [A]     outer max. [A]     outer radius [A]   
    2    1         1.700000        -9.7616           1.230570           1.230570           4.607917
    3    2         6.000000       -54.4224           0.792453           0.792453           3.883070
    2    0         4.900000       -81.6679           0.082559           0.562749           3.078220
 
 
  N                    hydrogenic:
 
  List of hydrogenic basis orbitals: 
    n    l      effective z      eigenvalue [eV]  inner max. [A]     outer max. [A]     outer radius [A]   
    2    1         1.800000       -10.9749           1.177451           1.177451           4.573712
    3    2         6.800000       -69.9026           0.704619           0.704619           3.538137
    3    0         5.800000       -50.8545           0.067388           1.191934           4.250239
 
 
  O                    hydrogenic:
 
  List of hydrogenic basis orbitals: 
    n    l      effective z      eigenvalue [eV]  inner max. [A]     outer max. [A]     outer radius [A]   
    2    1         1.800000       -10.9749           1.164242           1.164242           4.578029
    3    2         7.600000       -87.3180           0.624125           0.624125           3.251020
    3    0         6.400000       -61.9207           0.061167           1.081902           4.001998
 

  Adding cutoff potential to free-atom effective potential.
  Creating atomic-like basis functions for current effective potential.

  Species H                   :

  List of atomic basis orbitals and eigenvalues:
    n    l      energy [Ha]    energy [eV]    outer radius [A]
    1    0        -0.237589        -6.4651       4.527807


  Species C                   :

  List of atomic basis orbitals and eigenvalues:
    n    l      energy [Ha]    energy [eV]    outer radius [A]
    1    0       -10.038835      -273.1706       1.934409
    2    0        -0.502696       -13.6791       4.496620
    2    1        -0.191971        -5.2238       4.551928


  Species N                   :

  List of atomic basis orbitals and eigenvalues:
    n    l      energy [Ha]    energy [eV]    outer radius [A]
    1    0       -14.128000      -384.4424       1.637919
    2    0        -0.681077       -18.5330       4.463241
    2    1        -0.259788        -7.0692       4.518138


  Species O                   :

  List of atomic basis orbitals and eigenvalues:
    n    l      energy [Ha]    energy [eV]    outer radius [A]
    1    0       -18.898188      -514.2459       1.415765
    2    0        -0.878505       -23.9053       4.413171
    2    1        -0.331779        -9.0282       4.522403

  Assembling full basis from fixed parts.
  | Species H :   atomic orbital   1 s accepted.
  | Species H :    hydro orbital   2 s accepted.
  | Species H :    hydro orbital   2 p accepted.
  | Species C :   atomic orbital   1 s accepted.
  | Species C :    hydro orbital   2 s accepted.
  | Species C :   atomic orbital   2 s accepted.
  | Species C :   atomic orbital   2 p accepted.
  | Species C :    hydro orbital   2 p accepted.
  | Species C :    hydro orbital   3 d accepted.
  | Species N :   atomic orbital   1 s accepted.
  | Species N :    hydro orbital   3 s accepted.
  | Species N :   atomic orbital   2 s accepted.
  | Species N :   atomic orbital   2 p accepted.
  | Species N :    hydro orbital   2 p accepted.
  | Species N :    hydro orbital   3 d accepted.
  | Species O :   atomic orbital   1 s accepted.
  | Species O :    hydro orbital   3 s accepted.
  | Species O :   atomic orbital   2 s accepted.
  | Species O :   atomic orbital   2 p accepted.
  | Species O :    hydro orbital   2 p accepted.
  | Species O :    hydro orbital   3 d accepted.
 
  Basis size parameters after reduction:
  | Total number of radial functions:       21
  | Total number of basis functions :      119
 
  Per-task memory consumption for arrays in subroutine allocate_ext:
  |           5.250512MB.
  Testing on-site integration grid accuracy.
  |  Species  Function  <phi|h_atom|phi> (log., in eV)  <phi|h_atom|phi> (rad., in eV)
           1        1                 -6.4663192853                 -6.4651273558
           1        2                 13.7111246313                 13.7170609718
           1        3                 25.2673269279                 25.2674696378
           2        4               -273.1705927641               -273.1705631568
           2        5                -10.7109323383                -10.7107120029
           2        6                 17.4381822266                 17.4352413244
           2        7                 -5.2255326521                 -5.2270484734
           2        8                  8.6835629259                  8.6603288385
           2        9                 27.4952418996                 27.4953360207
           3       10               -384.4424306495               -384.4423701208
           3       11                 12.5842251816                 12.5842222903
           3       12                -15.7264628251                -15.7264433455
           3       13                 -7.0696854293                 -7.0701769954
           3       14                  8.8090390882                  8.7901077751
           3       15                 35.9586762123                 35.9588528632
           4       16               -514.2458688638               -514.2457643834
           4       17                 15.1795651126                 15.1795290741
           4       18                -21.5359799773                -21.5360846186
           4       19                 -9.0283069236                 -9.0284644067
           4       20                  8.3027758564                  8.2834874195
           4       21                 45.8339351984                 45.8338762259

  Preparing densities etc. for the partition functions (integrals / Hartree potential).

  Preparations completed.
  max(cpu_time)          :      0.151 s.
  Wall clock time (cpu1) :      0.151 s.
------------------------------------------------------------

------------------------------------------------------------
          Begin self-consistency loop: Initialization.

          Date     :  20200710, Time     :  150448.146
------------------------------------------------------------

  Initializing index lists of integration centers etc. from given atomic structure:
  | Number of centers in hartree potential         :        13
  | Number of centers in hartree multipole         :        13
  | Number of centers in electron density summation:        13
  | Number of centers in basis integrals           :        13
  | Number of centers in integrals                 :        13
  | Number of centers in hamiltonian               :        13
  Partitioning the integration grid into batches with parallel hashing+maxmin method.
  | Number of batches:      955
  | Maximal batch size:     138
  | Minimal batch size:      66
  | Average batch size:      72.928
  | Standard deviation of batch sizes:      17.622

  Integration load balanced across     1 MPI tasks.
  Work distribution over tasks is as follows:
  Task     0 has      69646 integration points.
  Initializing partition tables, free-atom densities, potentials, etc. across the integration grid (initialize_grid_storage).
  | initialize_grid_storage: Actual outermost partition radius vs. multipole_radius_free
  | (-- VB: in principle, multipole_radius_free should be larger, hence this output)
  | Species        1: Confinement radius =              4.999999999999999 AA, multipole_radius_free =              5.054417573612229 AA.
  | Species        1: outer_partition_radius set to              5.054417573612229 AA .
  | Species        2: Confinement radius =              4.999999999999999 AA, multipole_radius_free =              5.019602836301480 AA.
  | Species        2: outer_partition_radius set to              5.019602836301480 AA .
  | Species        3: Confinement radius =              4.999999999999999 AA, multipole_radius_free =              5.043624274424571 AA.
  | Species        3: outer_partition_radius set to              5.043624274424571 AA .
  | Species        4: Confinement radius =              4.999999999999999 AA, multipole_radius_free =              5.048384829883283 AA.
  | Species        4: outer_partition_radius set to              5.048384829883283 AA .
  | Original list of interatomic distances with          13 x         13 entries is created.
  | Net number of integration points:    69646
  | of which are non-zero points    :    59559
  Renormalizing the initial density to the exact electron count on the 3D integration grid.
  | Initial density: Formal number of electrons (from input files) :      48.0000000000
  | Integrated number of electrons on 3D grid     :      47.9998198773
  | Charge integration error                      :      -0.0001801227
  | Normalization factor for density and gradient :       1.0000037526
  Obtaining max. number of non-zero basis functions in each batch (get_n_compute_maxes).
  | Maximal number of non-zero basis functions:      118 in task     0
  Selecting the method for density update.
  Loop over occupied states selected for charge density update.
  Allocating        0.050 MB for KS_eigenvector
  Integrating Hamiltonian matrix: batch-based integration.
  Time summed over all CPUs for integration: real work        0.493 s, elapsed        0.493 s
  Integrating overlap matrix.
  Time summed over all CPUs for integration: real work        0.211 s, elapsed        0.211 s

  Updating Kohn-Sham eigenvalues and eigenvectors using ELSI and the ELPA eigensolver.
  Overlap matrix is nonsingular
  | Lowest eigenvalue of overlap  :  0.48E-02
  | Highest eigenvalue of overlap :  0.61E+01
  Finished singularity check of overlap matrix
  | Time :     0.002 s
  Finished Cholesky decomposition
  | Time :     0.000 s
  Finished transformation to standard eigenproblem
  | Time :     0.000 s
  Starting LAPACK eigensolver
  Finished solving standard eigenproblem
  | Time :     0.002 s
  Finished back-transformation of eigenvectors
  | Time :     0.000 s

  Obtaining occupation numbers and chemical potential using ELSI.
  | Chemical potential (Fermi level):    -9.86610273eV
  Writing Kohn-Sham eigenvalues.

  State    Occupation    Eigenvalue [Ha]    Eigenvalue [eV]
      1       2.00000         -19.008291         -517.24191
      2       2.00000         -18.977367         -516.40042
      3       2.00000         -14.245821         -387.64850
      4       2.00000         -10.166589         -276.64695
      5       2.00000         -10.141306         -275.95897
      6       2.00000         -10.132136         -275.70944
      7       2.00000          -1.184553          -32.23333
      8       2.00000          -1.097194          -29.85617
      9       2.00000          -0.990655          -26.95710
     10       2.00000          -0.861648          -23.44664
     11       2.00000          -0.752433          -20.47474
     12       2.00000          -0.684247          -18.61930
     13       2.00000          -0.627905          -17.08617
     14       2.00000          -0.614933          -16.73319
     15       2.00000          -0.581803          -15.83165
     16       2.00000          -0.568040          -15.45716
     17       2.00000          -0.555554          -15.11738
     18       2.00000          -0.532948          -14.50226
     19       2.00000          -0.515194          -14.01914
     20       2.00000          -0.493935          -13.44066
     21       2.00000          -0.459048          -12.49133
     22       2.00000          -0.427252          -11.62613
     23       2.00000          -0.416048          -11.32124
     24       2.00000          -0.381657          -10.38540
     25       0.00000          -0.163390           -4.44607
     26       0.00000          -0.064735           -1.76153
     27       0.00000          -0.028058           -0.76351
     28       0.00000          -0.019776           -0.53814
     29       0.00000          -0.002078           -0.05653
     30       0.00000           0.010992            0.29909
     31       0.00000           0.023844            0.64884
     32       0.00000           0.027220            0.74070
     33       0.00000           0.041767            1.13654
     34       0.00000           0.067492            1.83656
     35       0.00000           0.086770            2.36113
     36       0.00000           0.132185            3.59693
     37       0.00000           0.167649            4.56196
     38       0.00000           0.195696            5.32515
     39       0.00000           0.216002            5.87770
     40       0.00000           0.224288            6.10317
     41       0.00000           0.258674            7.03888
     42       0.00000           0.280584            7.63507
     43       0.00000           0.285136            7.75895
     44       0.00000           0.306232            8.33301
     45       0.00000           0.342276            9.31380
     46       0.00000           0.356912            9.71206
     47       0.00000           0.370249           10.07500
     48       0.00000           0.384048           10.45047
     49       0.00000           0.425112           11.56789
     50       0.00000           0.467930           12.73302
     51       0.00000           0.527978           14.36701
     52       0.00000           0.534945           14.55659
     53       0.00000           0.554430           15.08681

  Highest occupied state (VBM) at    -10.38540203 eV
  | Occupation number:      2.00000000

  Lowest unoccupied state (CBM) at    -4.44606698 eV
  | Occupation number:      0.00000000

  Overall HOMO-LUMO gap:      5.93933505 eV.
  Calculating total energy contributions from superposition of free atom densities.

  Total energy components:
  | Sum of eigenvalues            :        -188.83311042 Ha       -5138.41037389 eV
  | XC energy correction          :         -41.78748380 Ha       -1137.09528896 eV
  | XC potential correction       :          53.71834996 Ha        1461.75067548 eV
  | Free-atom electrostatic energy:        -146.85619365 Ha       -3996.16035162 eV
  | Hartree energy correction     :           0.00000000 Ha           0.00000000 eV
  | vdW energy correction         :           0.00000000 Ha           0.00000000 eV
  | Entropy correction            :           0.00000000 Ha           0.00000000 eV
  | ---------------------------
  | Total energy                  :        -323.75843791 Ha       -8809.91533899 eV
  | Total energy, T -> 0          :        -323.75843791 Ha       -8809.91533899 eV  <-- do not rely on this value for anything but (periodic) metals
  | Electronic free energy        :        -323.75843791 Ha       -8809.91533899 eV

  Derived energy quantities:
  | Kinetic energy                :         320.49539499 Ha        8721.12342362 eV
  | Electrostatic energy          :        -602.46634910 Ha      -16393.94347366 eV
  | Energy correction for multipole
  | error in Hartree potential    :           0.00000000 Ha           0.00000000 eV
  | Sum of eigenvalues per atom                           :        -395.26233645 eV
  | Total energy (T->0) per atom                          :        -677.68579531 eV  <-- do not rely on this value for anything but (periodic) metals
  | Electronic free energy per atom                       :        -677.68579531 eV
  Initialize hartree_potential_storage
  Max. number of atoms included in rho_multipole:           13

  End scf initialization - timings             :  max(cpu_time)    wall_clock(cpu1)
  | Time for scf. initialization               :        1.147 s           1.148 s
  | Boundary condition initialization          :        0.000 s           0.000 s
  | Integration                                :        0.704 s           0.704 s
  | Solution of K.-S. eqns.                    :        0.004 s           0.005 s
  | Grid partitioning                          :        0.112 s           0.112 s
  | Preloading free-atom quantities on grid    :        0.002 s           0.002 s
  | Free-atom superposition energy             :        0.084 s           0.084 s
  | Total energy evaluation                    :        0.000 s           0.000 s

  Partial memory accounting:
  | Current value for overall tracked memory usage on task 0  :           0.165 MB
  | Peak value for overall tracked memory usage on task 0     :           0.670 MB after allocating wave
  | Largest tracked array allocation on task 0 so far         :           0.130 MB  when allocating H_times_psi
  Note:  These values currently only include a subset of arrays which are explicitly tracked.
  The "true" memory usage will be greater.
------------------------------------------------------------

------------------------------------------------------------
          Begin self-consistency iteration #    1

  Date     :  20200710, Time     :  150449.294
------------------------------------------------------------
  Evaluating new KS density.
  Integration grid: deviation in total charge (<rho> - N_e) =   9.947598E-14
  Pulay mixing of updated and previous charge densities.

  Evaluating partitioned Hartree potential by multipole expansion.
  | Analytical far-field extrapolation by fixed multipoles:
  | Hartree multipole sum: apparent total charge =  -0.284535E-03
  Summing up the Hartree potential.
  Time summed over all CPUs for potential: real work        0.283 s, elapsed        0.283 s
  | RMS charge density error from multipole expansion :   0.591631E-02

  Integrating Hamiltonian matrix: batch-based integration.
  Time summed over all CPUs for integration: real work        0.498 s, elapsed        0.498 s

  Updating Kohn-Sham eigenvalues and eigenvectors using ELSI and the ELPA eigensolver.
  Finished Cholesky decomposition
  | Time :     0.000 s
  Finished transformation to standard eigenproblem
  | Time :     0.000 s
  Starting LAPACK eigensolver
  Finished solving standard eigenproblem
  | Time :     0.002 s
  Finished back-transformation of eigenvectors
  | Time :     0.000 s

  Obtaining occupation numbers and chemical potential using ELSI.
  | Chemical potential (Fermi level):    -4.68340726eV
  Writing Kohn-Sham eigenvalues.

  State    Occupation    Eigenvalue [Ha]    Eigenvalue [eV]
      1       2.00000         -18.901011         -514.32269
      2       2.00000         -18.840836         -512.68524
      3       2.00000         -14.095549         -383.55940
      4       2.00000         -10.119487         -275.36526
      5       2.00000         -10.062541         -273.81566
      6       2.00000         -10.026829         -272.84390
      7       2.00000          -1.136777          -30.93327
      8       2.00000          -1.036159          -28.19532
      9       2.00000          -0.920972          -25.06092
     10       2.00000          -0.793800          -21.60039
     11       2.00000          -0.700030          -19.04878
     12       2.00000          -0.640955          -17.44127
     13       2.00000          -0.574183          -15.62430
     14       2.00000          -0.553979          -15.07453
     15       2.00000          -0.528670          -14.38584
     16       2.00000          -0.505450          -13.75399
     17       2.00000          -0.494158          -13.44673
     18       2.00000          -0.469243          -12.76874
     19       2.00000          -0.447732          -12.18342
     20       2.00000          -0.437466          -11.90405
     21       2.00000          -0.398714          -10.84955
     22       2.00000          -0.374066          -10.17886
     23       2.00000          -0.344291           -9.36864
     24       2.00000          -0.307251           -8.36073
     25       0.00000          -0.130070           -3.53939
     26       0.00000          -0.045716           -1.24399
     27       0.00000          -0.001008           -0.02742
     28       0.00000           0.015506            0.42194
     29       0.00000           0.027036            0.73570
     30       0.00000           0.054780            1.49064
     31       0.00000           0.065059            1.77036
     32       0.00000           0.071699            1.95103
     33       0.00000           0.081949            2.22994
     34       0.00000           0.103974            2.82927
     35       0.00000           0.126367            3.43862
     36       0.00000           0.161196            4.38636
     37       0.00000           0.191958            5.22344
     38       0.00000           0.222571            6.05646
     39       0.00000           0.250575            6.81849
     40       0.00000           0.260507            7.08874
     41       0.00000           0.297866            8.10536
     42       0.00000           0.313455            8.52954
     43       0.00000           0.319732            8.70034
     44       0.00000           0.345873            9.41170
     45       0.00000           0.377437           10.27058
     46       0.00000           0.389910           10.60999
     47       0.00000           0.412224           11.21718
     48       0.00000           0.423835           11.53314
     49       0.00000           0.461200           12.54990
     50       0.00000           0.504174           13.71928
     51       0.00000           0.565118           15.37763
     52       0.00000           0.570453           15.52281
     53       0.00000           0.589225           16.03364

  Highest occupied state (VBM) at     -8.36073177 eV
  | Occupation number:      2.00000000

  Lowest unoccupied state (CBM) at    -3.53939198 eV
  | Occupation number:      0.00000000

  Overall HOMO-LUMO gap:      4.82133979 eV.

  Total energy components:
  | Sum of eigenvalues            :        -185.42029584 Ha       -5045.54296434 eV
  | XC energy correction          :         -42.11824326 Ha       -1146.09571188 eV
  | XC potential correction       :          54.14858676 Ha        1473.45801446 eV
  | Free-atom electrostatic energy:        -146.85619365 Ha       -3996.16035162 eV
  | Hartree energy correction     :          -3.32544662 Ha         -90.49000660 eV
  | vdW energy correction         :           0.00000000 Ha           0.00000000 eV
  | Entropy correction            :           0.00000000 Ha           0.00000000 eV
  | ---------------------------
  | Total energy                  :        -323.57159262 Ha       -8804.83101998 eV
  | Total energy, T -> 0          :        -323.57159262 Ha       -8804.83101998 eV  <-- do not rely on this value for anything but (periodic) metals
  | Electronic free energy        :        -323.57159262 Ha       -8804.83101998 eV

  Derived energy quantities:
  | Kinetic energy                :         322.30328694 Ha        8770.31866651 eV
  | Electrostatic energy          :        -603.75663629 Ha      -16429.05397461 eV
  | Energy correction for multipole
  | error in Hartree potential    :           0.01215942 Ha           0.33087455 eV
  | Sum of eigenvalues per atom                           :        -388.11868956 eV
  | Total energy (T->0) per atom                          :        -677.29469384 eV  <-- do not rely on this value for anything but (periodic) metals
  | Electronic free energy per atom                       :        -677.29469384 eV

  Self-consistency convergence accuracy:
  | Change of charge density      :  0.5892E+00
  | Change of sum of eigenvalues  :  0.9287E+02 eV
  | Change of total energy        :  0.5084E+01 eV

  End self-consistency iteration #     1       :  max(cpu_time)    wall_clock(cpu1)
  | Time for this iteration                    :        1.190 s           1.191 s
  | Charge density update                      :        0.391 s           0.392 s
  | Density mixing                             :        0.005 s           0.006 s
  | Hartree multipole update                   :        0.009 s           0.009 s
  | Hartree multipole summation                :        0.284 s           0.283 s
  | Integration                                :        0.498 s           0.499 s
  | Solution of K.-S. eqns.                    :        0.002 s           0.002 s
  | Total energy evaluation                    :        0.000 s           0.000 s

  Partial memory accounting:
  | Current value for overall tracked memory usage on task 0  :           0.165 MB
  | Peak value for overall tracked memory usage on task 0     :           0.686 MB after allocating gradient_basis_wave
  | Largest tracked array allocation on task 0 so far         :           0.391 MB  when allocating gradient_basis_wave
  Note:  These values currently only include a subset of arrays which are explicitly tracked.
  The "true" memory usage will be greater.
------------------------------------------------------------

------------------------------------------------------------
          Begin self-consistency iteration #    2

  Date     :  20200710, Time     :  150450.486
------------------------------------------------------------
  Evaluating new KS density.
  Integration grid: deviation in total charge (<rho> - N_e) =   2.842171E-14
  Pulay mixing of updated and previous charge densities.

  Evaluating partitioned Hartree potential by multipole expansion.
  | Analytical far-field extrapolation by fixed multipoles:
  | Hartree multipole sum: apparent total charge =  -0.416533E-03
  Summing up the Hartree potential.
  Time summed over all CPUs for potential: real work        0.283 s, elapsed        0.283 s
  | RMS charge density error from multipole expansion :   0.139435E-01

  Integrating Hamiltonian matrix: batch-based integration.
  Time summed over all CPUs for integration: real work        0.499 s, elapsed        0.499 s

  Updating Kohn-Sham eigenvalues and eigenvectors using ELSI and the ELPA eigensolver.
  Finished Cholesky decomposition
  | Time :     0.000 s
  Finished transformation to standard eigenproblem
  | Time :     0.000 s
  Starting LAPACK eigensolver
  Finished solving standard eigenproblem
  | Time :     0.002 s
  Finished back-transformation of eigenvectors
  | Time :     0.000 s

  Obtaining occupation numbers and chemical potential using ELSI.
  | Chemical potential (Fermi level):    -3.46404787eV
  Highest occupied state (VBM) at     -6.35465725 eV
  | Occupation number:      2.00000000

  Lowest unoccupied state (CBM) at    -2.38376787 eV
  | Occupation number:      0.00000000

  Overall HOMO-LUMO gap:      3.97088938 eV.

  Checking to see if s.c.f. parameters should be adjusted.

  Total energy components:
  | Sum of eigenvalues            :        -181.85487785 Ha       -4948.52300425 eV
  | XC energy correction          :         -42.47740562 Ha       -1155.86901675 eV
  | XC potential correction       :          54.61426460 Ha        1486.12975316 eV
  | Free-atom electrostatic energy:        -146.85619365 Ha       -3996.16035162 eV
  | Hartree energy correction     :          -6.91704965 Ha        -188.22249754 eV
  | vdW energy correction         :           0.00000000 Ha           0.00000000 eV
  | Entropy correction            :           0.00000000 Ha           0.00000000 eV
  | ---------------------------
  | Total energy                  :        -323.49126216 Ha       -8802.64511701 eV
  | Total energy, T -> 0          :        -323.49126216 Ha       -8802.64511701 eV  <-- do not rely on this value for anything but (periodic) metals
  | Electronic free energy        :        -323.49126216 Ha       -8802.64511701 eV

  Derived energy quantities:
  | Kinetic energy                :         323.62170294 Ha        8806.19459138 eV
  | Electrostatic energy          :        -604.63555949 Ha      -16452.97069163 eV
  | Energy correction for multipole
  | error in Hartree potential    :           0.02660616 Ha           0.72399047 eV
  | Sum of eigenvalues per atom                           :        -380.65561571 eV
  | Total energy (T->0) per atom                          :        -677.12654746 eV  <-- do not rely on this value for anything but (periodic) metals
  | Electronic free energy per atom                       :        -677.12654746 eV

  Self-consistency convergence accuracy:
  | Change of charge density      :  0.3687E+00
  | Change of sum of eigenvalues  :  0.9702E+02 eV
  | Change of total energy        :  0.2186E+01 eV

  End self-consistency iteration #     2       :  max(cpu_time)    wall_clock(cpu1)
  | Time for this iteration                    :        1.185 s           1.186 s
  | Charge density update                      :        0.385 s           0.385 s
  | Density mixing                             :        0.007 s           0.007 s
  | Hartree multipole update                   :        0.009 s           0.009 s
  | Hartree multipole summation                :        0.283 s           0.283 s
  | Integration                                :        0.499 s           0.499 s
  | Solution of K.-S. eqns.                    :        0.002 s           0.003 s
  | Total energy evaluation                    :        0.000 s           0.000 s

  Partial memory accounting:
  | Current value for overall tracked memory usage on task 0  :           0.166 MB
  | Peak value for overall tracked memory usage on task 0     :           0.686 MB after allocating gradient_basis_wave
  | Largest tracked array allocation on task 0 so far         :           0.391 MB  when allocating gradient_basis_wave
  Note:  These values currently only include a subset of arrays which are explicitly tracked.
  The "true" memory usage will be greater.
------------------------------------------------------------

------------------------------------------------------------
          Begin self-consistency iteration #    3

  Date     :  20200710, Time     :  150451.673
------------------------------------------------------------
  Evaluating new KS density.
  Integration grid: deviation in total charge (<rho> - N_e) =  -5.684342E-14
  Pulay mixing of updated and previous charge densities.

  Evaluating partitioned Hartree potential by multipole expansion.
  | Analytical far-field extrapolation by fixed multipoles:
  | Hartree multipole sum: apparent total charge =  -0.509723E-03
  Summing up the Hartree potential.
  Time summed over all CPUs for potential: real work        0.283 s, elapsed        0.283 s
  | RMS charge density error from multipole expansion :   0.218347E-01

  Integrating Hamiltonian matrix: batch-based integration.
  Time summed over all CPUs for integration: real work        0.498 s, elapsed        0.498 s

  Updating Kohn-Sham eigenvalues and eigenvectors using ELSI and the ELPA eigensolver.
  Finished Cholesky decomposition
  | Time :     0.000 s
  Finished transformation to standard eigenproblem
  | Time :     0.000 s
  Starting LAPACK eigensolver
  Finished solving standard eigenproblem
  | Time :     0.002 s
  Finished back-transformation of eigenvectors
  | Time :     0.000 s

  Obtaining occupation numbers and chemical potential using ELSI.
  | Chemical potential (Fermi level):    -2.81159154eV
  Highest occupied state (VBM) at     -5.66773393 eV
  | Occupation number:      2.00000000

  Lowest unoccupied state (CBM) at    -1.71816024 eV
  | Occupation number:      0.00000000

  Overall HOMO-LUMO gap:      3.94957369 eV.

  Total energy components:
  | Sum of eigenvalues            :        -180.51010081 Ha       -4911.92975923 eV
  | XC energy correction          :         -42.63260300 Ha       -1160.09215236 eV
  | XC potential correction       :          54.81248952 Ha        1491.52372775 eV
  | Free-atom electrostatic energy:        -146.85619365 Ha       -3996.16035162 eV
  | Hartree energy correction     :          -8.29134688 Ha        -225.61902802 eV
  | vdW energy correction         :           0.00000000 Ha           0.00000000 eV
  | Entropy correction            :           0.00000000 Ha           0.00000000 eV
  | ---------------------------
  | Total energy                  :        -323.47775482 Ha       -8802.27756348 eV
  | Total energy, T -> 0          :        -323.47775482 Ha       -8802.27756348 eV  <-- do not rely on this value for anything but (periodic) metals
  | Electronic free energy        :        -323.47775482 Ha       -8802.27756348 eV

  Derived energy quantities:
  | Kinetic energy                :         323.24572460 Ha        8795.96370018 eV
  | Electrostatic energy          :        -604.09087642 Ha      -16438.14911131 eV
  | Energy correction for multipole
  | error in Hartree potential    :           0.03746055 Ha           1.01935351 eV
  | Sum of eigenvalues per atom                           :        -377.84075071 eV
  | Total energy (T->0) per atom                          :        -677.09827411 eV  <-- do not rely on this value for anything but (periodic) metals
  | Electronic free energy per atom                       :        -677.09827411 eV

  Self-consistency convergence accuracy:
  | Change of charge density      :  0.2075E+00
  | Change of sum of eigenvalues  :  0.3659E+02 eV
  | Change of total energy        :  0.3676E+00 eV

  End self-consistency iteration #     3       :  max(cpu_time)    wall_clock(cpu1)
  | Time for this iteration                    :        1.186 s           1.186 s
  | Charge density update                      :        0.385 s           0.384 s
  | Density mixing                             :        0.008 s           0.009 s
  | Hartree multipole update                   :        0.009 s           0.009 s
  | Hartree multipole summation                :        0.283 s           0.284 s
  | Integration                                :        0.498 s           0.498 s
  | Solution of K.-S. eqns.                    :        0.002 s           0.002 s
  | Total energy evaluation                    :        0.000 s           0.000 s

  Partial memory accounting:
  | Current value for overall tracked memory usage on task 0  :           0.166 MB
  | Peak value for overall tracked memory usage on task 0     :           0.687 MB after allocating gradient_basis_wave
  | Largest tracked array allocation on task 0 so far         :           0.391 MB  when allocating gradient_basis_wave
  Note:  These values currently only include a subset of arrays which are explicitly tracked.
  The "true" memory usage will be greater.
------------------------------------------------------------

------------------------------------------------------------
          Begin self-consistency iteration #    4

  Date     :  20200710, Time     :  150452.860
------------------------------------------------------------
  Evaluating new KS density.
  Integration grid: deviation in total charge (<rho> - N_e) =  -4.973799E-14
  Pulay mixing of updated and previous charge densities.

  Evaluating partitioned Hartree potential by multipole expansion.
  | Analytical far-field extrapolation by fixed multipoles:
  | Hartree multipole sum: apparent total charge =  -0.541542E-03
  Summing up the Hartree potential.
  Time summed over all CPUs for potential: real work        0.283 s, elapsed        0.283 s
  | RMS charge density error from multipole expansion :   0.253062E-01

  Integrating Hamiltonian matrix: batch-based integration.
  Time summed over all CPUs for integration: real work        0.497 s, elapsed        0.497 s

  Updating Kohn-Sham eigenvalues and eigenvectors using ELSI and the ELPA eigensolver.
  Finished Cholesky decomposition
  | Time :     0.000 s
  Finished transformation to standard eigenproblem
  | Time :     0.000 s
  Starting LAPACK eigensolver
  Finished solving standard eigenproblem
  | Time :     0.002 s
  Finished back-transformation of eigenvectors
  | Time :     0.000 s

  Obtaining occupation numbers and chemical potential using ELSI.
  | Chemical potential (Fermi level):    -2.70873020eV
  Highest occupied state (VBM) at     -5.48720533 eV
  | Occupation number:      2.00000000

  Lowest unoccupied state (CBM) at    -1.62128004 eV
  | Occupation number:      0.00000000

  Overall HOMO-LUMO gap:      3.86592529 eV.

  Total energy components:
  | Sum of eigenvalues            :        -180.36301476 Ha       -4907.92734413 eV
  | XC energy correction          :         -42.67054697 Ha       -1161.12466047 eV
  | XC potential correction       :          54.86026020 Ha        1492.82363419 eV
  | Free-atom electrostatic energy:        -146.85619365 Ha       -3996.16035162 eV
  | Hartree energy correction     :          -8.44721970 Ha        -229.86054316 eV
  | vdW energy correction         :           0.00000000 Ha           0.00000000 eV
  | Entropy correction            :           0.00000000 Ha           0.00000000 eV
  | ---------------------------
  | Total energy                  :        -323.47671487 Ha       -8802.24926520 eV
  | Total energy, T -> 0          :        -323.47671487 Ha       -8802.24926520 eV  <-- do not rely on this value for anything but (periodic) metals
  | Electronic free energy        :        -323.47671487 Ha       -8802.24926520 eV

  Derived energy quantities:
  | Kinetic energy                :         322.84377882 Ha        8785.02619878 eV
  | Electrostatic energy          :        -603.64994672 Ha      -16426.15080350 eV
  | Energy correction for multipole
  | error in Hartree potential    :           0.04167355 Ha           1.13399506 eV
  | Sum of eigenvalues per atom                           :        -377.53287263 eV
  | Total energy (T->0) per atom                          :        -677.09609732 eV  <-- do not rely on this value for anything but (periodic) metals
  | Electronic free energy per atom                       :        -677.09609732 eV

  Self-consistency convergence accuracy:
  | Change of charge density      :  0.6844E-01
  | Change of sum of eigenvalues  :  0.4002E+01 eV
  | Change of total energy        :  0.2830E-01 eV

  End self-consistency iteration #     4       :  max(cpu_time)    wall_clock(cpu1)
  | Time for this iteration                    :        1.187 s           1.187 s
  | Charge density update                      :        0.385 s           0.385 s
  | Density mixing                             :        0.010 s           0.010 s
  | Hartree multipole update                   :        0.009 s           0.009 s
  | Hartree multipole summation                :        0.283 s           0.283 s
  | Integration                                :        0.497 s           0.498 s
  | Solution of K.-S. eqns.                    :        0.002 s           0.002 s
  | Total energy evaluation                    :        0.000 s           0.000 s

  Partial memory accounting:
  | Current value for overall tracked memory usage on task 0  :           0.166 MB
  | Peak value for overall tracked memory usage on task 0     :           0.687 MB after allocating gradient_basis_wave
  | Largest tracked array allocation on task 0 so far         :           0.391 MB  when allocating gradient_basis_wave
  Note:  These values currently only include a subset of arrays which are explicitly tracked.
  The "true" memory usage will be greater.
------------------------------------------------------------

------------------------------------------------------------
          Begin self-consistency iteration #    5

  Date     :  20200710, Time     :  150454.048
------------------------------------------------------------
  Evaluating new KS density.
  Integration grid: deviation in total charge (<rho> - N_e) =  -4.973799E-14
  Pulay mixing of updated and previous charge densities.

  Evaluating partitioned Hartree potential by multipole expansion.
  | Analytical far-field extrapolation by fixed multipoles:
  | Hartree multipole sum: apparent total charge =  -0.535868E-03
  Summing up the Hartree potential.
  Time summed over all CPUs for potential: real work        0.283 s, elapsed        0.283 s
  | RMS charge density error from multipole expansion :   0.251026E-01

  Integrating Hamiltonian matrix: batch-based integration.
  Time summed over all CPUs for integration: real work        0.498 s, elapsed        0.498 s

  Updating Kohn-Sham eigenvalues and eigenvectors using ELSI and the ELPA eigensolver.
  Finished Cholesky decomposition
  | Time :     0.000 s
  Finished transformation to standard eigenproblem
  | Time :     0.000 s
  Starting LAPACK eigensolver
  Finished solving standard eigenproblem
  | Time :     0.002 s
  Finished back-transformation of eigenvectors
  | Time :     0.000 s

  Obtaining occupation numbers and chemical potential using ELSI.
  | Chemical potential (Fermi level):    -2.77596164eV
  Highest occupied state (VBM) at     -5.58326926 eV
  | Occupation number:      2.00000000

  Lowest unoccupied state (CBM) at    -1.71618337 eV
  | Occupation number:      0.00000000

  Overall HOMO-LUMO gap:      3.86708589 eV.

  Total energy components:
  | Sum of eigenvalues            :        -180.57553161 Ha       -4913.71022195 eV
  | XC energy correction          :         -42.64453067 Ha       -1160.41672083 eV
  | XC potential correction       :          54.82649383 Ha        1491.90480432 eV
  | Free-atom electrostatic energy:        -146.85619365 Ha       -3996.16035162 eV
  | Hartree energy correction     :          -8.22666395 Ha        -223.85891578 eV
  | vdW energy correction         :           0.00000000 Ha           0.00000000 eV
  | Entropy correction            :           0.00000000 Ha           0.00000000 eV
  | ---------------------------
  | Total energy                  :        -323.47642605 Ha       -8802.24140586 eV
  | Total energy, T -> 0          :        -323.47642605 Ha       -8802.24140586 eV  <-- do not rely on this value for anything but (periodic) metals
  | Electronic free energy        :        -323.47642605 Ha       -8802.24140586 eV

  Derived energy quantities:
  | Kinetic energy                :         322.71096558 Ha        8781.41216690 eV
  | Electrostatic energy          :        -603.54286096 Ha      -16423.23685192 eV
  | Energy correction for multipole
  | error in Hartree potential    :           0.04103434 Ha           1.11660111 eV
  | Sum of eigenvalues per atom                           :        -377.97770938 eV
  | Total energy (T->0) per atom                          :        -677.09549276 eV  <-- do not rely on this value for anything but (periodic) metals
  | Electronic free energy per atom                       :        -677.09549276 eV

  Self-consistency convergence accuracy:
  | Change of charge density      :  0.2062E-01
  | Change of sum of eigenvalues  : -0.5783E+01 eV
  | Change of total energy        :  0.7859E-02 eV

  End self-consistency iteration #     5       :  max(cpu_time)    wall_clock(cpu1)
  | Time for this iteration                    :        1.188 s           1.188 s
  | Charge density update                      :        0.384 s           0.384 s
  | Density mixing                             :        0.011 s           0.011 s
  | Hartree multipole update                   :        0.009 s           0.009 s
  | Hartree multipole summation                :        0.283 s           0.284 s
  | Integration                                :        0.498 s           0.498 s
  | Solution of K.-S. eqns.                    :        0.002 s           0.002 s
  | Total energy evaluation                    :        0.000 s           0.000 s

  Partial memory accounting:
  | Current value for overall tracked memory usage on task 0  :           0.166 MB
  | Peak value for overall tracked memory usage on task 0     :           0.687 MB after allocating gradient_basis_wave
  | Largest tracked array allocation on task 0 so far         :           0.391 MB  when allocating gradient_basis_wave
  Note:  These values currently only include a subset of arrays which are explicitly tracked.
  The "true" memory usage will be greater.
------------------------------------------------------------

------------------------------------------------------------
          Begin self-consistency iteration #    6

  Date     :  20200710, Time     :  150455.237
------------------------------------------------------------
  Evaluating new KS density.
  Integration grid: deviation in total charge (<rho> - N_e) =   4.263256E-14
  Pulay mixing of updated and previous charge densities.

  Evaluating partitioned Hartree potential by multipole expansion.
  | Analytical far-field extrapolation by fixed multipoles:
  | Hartree multipole sum: apparent total charge =  -0.540464E-03
  Summing up the Hartree potential.
  Time summed over all CPUs for potential: real work        0.283 s, elapsed        0.283 s
  | RMS charge density error from multipole expansion :   0.255878E-01

  Integrating Hamiltonian matrix: batch-based integration.
  Time summed over all CPUs for integration: real work        0.497 s, elapsed        0.497 s

  Updating Kohn-Sham eigenvalues and eigenvectors using ELSI and the ELPA eigensolver.
  Finished Cholesky decomposition
  | Time :     0.000 s
  Finished transformation to standard eigenproblem
  | Time :     0.000 s
  Starting LAPACK eigensolver
  Finished solving standard eigenproblem
  | Time :     0.002 s
  Finished back-transformation of eigenvectors
  | Time :     0.000 s

  Obtaining occupation numbers and chemical potential using ELSI.
  | Chemical potential (Fermi level):    -2.76669903eV
  Highest occupied state (VBM) at     -5.53940930 eV
  | Occupation number:      2.00000000

  Lowest unoccupied state (CBM) at    -1.71978995 eV
  | Occupation number:      0.00000000

  Overall HOMO-LUMO gap:      3.81961935 eV.

  Total energy components:
  | Sum of eigenvalues            :        -180.55012743 Ha       -4913.01893900 eV
  | XC energy correction          :         -42.64681798 Ha       -1160.47896167 eV
  | XC potential correction       :          54.82944045 Ha        1491.98498601 eV
  | Free-atom electrostatic energy:        -146.85619365 Ha       -3996.16035162 eV
  | Hartree energy correction     :          -8.25268440 Ha        -224.56696834 eV
  | vdW energy correction         :           0.00000000 Ha           0.00000000 eV
  | Entropy correction            :           0.00000000 Ha           0.00000000 eV
  | ---------------------------
  | Total energy                  :        -323.47638301 Ha       -8802.24023463 eV
  | Total energy, T -> 0          :        -323.47638301 Ha       -8802.24023463 eV  <-- do not rely on this value for anything but (periodic) metals
  | Electronic free energy        :        -323.47638301 Ha       -8802.24023463 eV

  Derived energy quantities:
  | Kinetic energy                :         322.64077423 Ha        8779.50216298 eV
  | Electrostatic energy          :        -603.47033926 Ha      -16421.26343593 eV
  | Energy correction for multipole
  | error in Hartree potential    :           0.04150080 Ha           1.12929410 eV
  | Sum of eigenvalues per atom                           :        -377.92453377 eV
  | Total energy (T->0) per atom                          :        -677.09540266 eV  <-- do not rely on this value for anything but (periodic) metals
  | Electronic free energy per atom                       :        -677.09540266 eV

  Self-consistency convergence accuracy:
  | Change of charge density      :  0.1084E-01
  | Change of sum of eigenvalues  :  0.6913E+00 eV
  | Change of total energy        :  0.1171E-02 eV

  End self-consistency iteration #     6       :  max(cpu_time)    wall_clock(cpu1)
  | Time for this iteration                    :        1.189 s           1.189 s
  | Charge density update                      :        0.385 s           0.385 s
  | Density mixing                             :        0.012 s           0.012 s
  | Hartree multipole update                   :        0.009 s           0.009 s
  | Hartree multipole summation                :        0.283 s           0.284 s
  | Integration                                :        0.497 s           0.497 s
  | Solution of K.-S. eqns.                    :        0.002 s           0.002 s
  | Total energy evaluation                    :        0.000 s           0.000 s

  Partial memory accounting:
  | Current value for overall tracked memory usage on task 0  :           0.166 MB
  | Peak value for overall tracked memory usage on task 0     :           0.687 MB after allocating gradient_basis_wave
  | Largest tracked array allocation on task 0 so far         :           0.391 MB  when allocating gradient_basis_wave
  Note:  These values currently only include a subset of arrays which are explicitly tracked.
  The "true" memory usage will be greater.
------------------------------------------------------------

------------------------------------------------------------
          Begin self-consistency iteration #    7

  Date     :  20200710, Time     :  150456.427
------------------------------------------------------------
  Evaluating new KS density.
  Integration grid: deviation in total charge (<rho> - N_e) =   2.842171E-14
  Pulay mixing of updated and previous charge densities.

  Evaluating partitioned Hartree potential by multipole expansion.
  | Analytical far-field extrapolation by fixed multipoles:
  | Hartree multipole sum: apparent total charge =  -0.541181E-03
  Summing up the Hartree potential.
  Time summed over all CPUs for potential: real work        0.289 s, elapsed        0.289 s
  | RMS charge density error from multipole expansion :   0.256757E-01

  Integrating Hamiltonian matrix: batch-based integration.
  Time summed over all CPUs for integration: real work        0.498 s, elapsed        0.498 s

  Updating Kohn-Sham eigenvalues and eigenvectors using ELSI and the ELPA eigensolver.
  Finished Cholesky decomposition
  | Time :     0.000 s
  Finished transformation to standard eigenproblem
  | Time :     0.000 s
  Starting LAPACK eigensolver
  Finished solving standard eigenproblem
  | Time :     0.002 s
  Finished back-transformation of eigenvectors
  | Time :     0.000 s

[...]
  |   Hirshfeld dipole moment :      0.05721830
  |   Hirshfeld second moments:      0.01328115      -0.03252431      -0.01988977
  |                                 -0.03252431      -0.01822406       0.01080814
  |                                 -0.01988977       0.01080814      -0.01415004
  ----------------------------------------------------------------------
  | Atom    12: O
  |   Hirshfeld charge        :     -0.15807327
  |   Free atom volume        :     23.61338643
  |   Hirshfeld volume        :     20.69062553
  |   Hirshfeld dipole vector :      0.03217640       0.02360210       0.00056965
  |   Hirshfeld dipole moment :      0.03990870
  |   Hirshfeld second moments:      0.05867297      -0.03145701      -0.00923373
  |                                 -0.03145701       0.08382766       0.03025508
  |                                 -0.00923373       0.03025508       0.04540014
  ----------------------------------------------------------------------
  | Atom    13: H
  |   Hirshfeld charge        :      0.18908683
  |   Free atom volume        :      9.95071624
  |   Hirshfeld volume        :      5.95834225
  |   Hirshfeld dipole vector :      0.08918680      -0.08158134      -0.04775461
  |   Hirshfeld dipole moment :      0.12996270
  |   Hirshfeld second moments:      0.12181019      -0.00157053       0.00104028
  |                                 -0.00157053       0.12602071       0.00574230
  |                                  0.00104028       0.00574230       0.11259929
  ----------------------------------------------------------------------


  Total energy components:
  | Sum of eigenvalues            :        -180.55011250 Ha       -4913.01853288 eV
  | XC energy correction          :         -42.64346114 Ha       -1160.38761737 eV
  | XC potential correction       :          54.82518561 Ha        1491.86920584 eV
  | Free-atom electrostatic energy:        -146.85619365 Ha       -3996.16035162 eV
  | Hartree energy correction     :          -8.25177725 Ha        -224.54228354 eV
  | vdW energy correction         :          -0.00336254 Ha          -0.09149932 eV
  | Entropy correction            :           0.00000000 Ha           0.00000000 eV
  | ---------------------------
  | Total energy                  :        -323.47972147 Ha       -8802.33107888 eV
  | Total energy, T -> 0          :        -323.47972147 Ha       -8802.33107888 eV  <-- do not rely on this value for anything but (periodic) metals
  | Electronic free energy        :        -323.47972147 Ha       -8802.33107888 eV

  Derived energy quantities:
  | Kinetic energy                :         322.60486197 Ha        8778.52494060 eV
  | Electrostatic energy          :        -603.43775977 Ha      -16420.37690279 eV
  | Energy correction for multipole
  | error in Hartree potential    :           0.04151013 Ha           1.12954814 eV
  | Sum of eigenvalues per atom                           :        -377.92450253 eV
  | Total energy (T->0) per atom                          :        -677.10239068 eV  <-- do not rely on this value for anything but (periodic) metals
  | Electronic free energy per atom                       :        -677.10239068 eV

  atomic forces [eV/Ang]:
  -----------------------
  atom #    1
   Hellmann-Feynman              : -0.111094E-01  0.131651E+00  0.915827E+00
   Ionic forces                  :  0.000000E+00  0.000000E+00  0.000000E+00
   Multipole                     :  0.171669E+00  0.102869E+00 -0.246107E+00
   Pulay + GGA                   : -0.845725E+00 -0.229762E-01 -0.124605E+01
   Van der Waals                 :  0.267602E-02  0.790492E-02 -0.821167E-03
   ----------------------------------------------------------------
   Total forces(   1)            : -0.682490E+00  0.219448E+00 -0.577148E+00
  atom #    2
   Hellmann-Feynman              :  0.255528E+00  0.344815E-01 -0.554199E-02
   Ionic forces                  :  0.000000E+00  0.000000E+00  0.000000E+00
   Multipole                     :  0.184083E+00  0.121818E-01  0.106032E-01
   Pulay + GGA                   : -0.129661E+00  0.326714E-01  0.454960E-01
   Van der Waals                 :  0.363252E-02 -0.633739E-02 -0.654881E-02
   ----------------------------------------------------------------
   Total forces(   2)            :  0.313582E+00  0.729973E-01  0.440085E-01
  atom #    3
   Hellmann-Feynman              : -0.345237E+01  0.104332E+02 -0.159366E+01
   Ionic forces                  :  0.000000E+00  0.000000E+00  0.000000E+00
   Multipole                     : -0.215304E+00  0.267964E+00 -0.101487E+01
   Pulay + GGA                   :  0.424141E+01 -0.102098E+02  0.312410E+01
   Van der Waals                 :  0.344730E-02 -0.385516E-02 -0.888895E-02
   ----------------------------------------------------------------
   Total forces(   3)            :  0.577187E+00  0.487492E+00  0.506679E+00
  atom #    4
   Hellmann-Feynman              : -0.129906E+00 -0.287608E+00 -0.141797E+00
   Ionic forces                  :  0.000000E+00  0.000000E+00  0.000000E+00
   Multipole                     :  0.377515E-01 -0.281101E-01 -0.105030E+00
   Pulay + GGA                   : -0.154207E+00  0.147995E+00  0.943343E-01
   Van der Waals                 : -0.356012E-02  0.200139E-03  0.445969E-02
   ----------------------------------------------------------------
   Total forces(   4)            : -0.249921E+00 -0.167522E+00 -0.148033E+00
  atom #    5
   Hellmann-Feynman              : -0.283485E-01 -0.235764E+00 -0.206165E+00
   Ionic forces                  :  0.000000E+00  0.000000E+00  0.000000E+00
   Multipole                     : -0.630384E-01 -0.693319E-01 -0.635859E-01
   Pulay + GGA                   :  0.127212E+00  0.189472E+00  0.485633E-01
   Van der Waals                 : -0.191440E-02  0.572061E-02 -0.218376E-02
   ----------------------------------------------------------------
   Total forces(   5)            :  0.339104E-01 -0.109904E+00 -0.223371E+00
  atom #    6
   Hellmann-Feynman              :  0.101669E+00 -0.333573E+00  0.543448E+00
   Ionic forces                  :  0.000000E+00  0.000000E+00  0.000000E+00
   Multipole                     : -0.811664E-01  0.627685E+00  0.235495E+00
   Pulay + GGA                   :  0.160200E+00 -0.586136E+00 -0.574334E+00
   Van der Waals                 : -0.106414E-02  0.689176E-02 -0.336357E-02
   ----------------------------------------------------------------
   Total forces(   6)            :  0.179639E+00 -0.285133E+00  0.201246E+00
  atom #    7
   Hellmann-Feynman              : -0.210073E+00 -0.529806E-01 -0.513894E-01
   Ionic forces                  :  0.000000E+00  0.000000E+00  0.000000E+00
   Multipole                     : -0.119174E+00  0.492952E-01  0.233726E-01
   Pulay + GGA                   :  0.121679E+00  0.157018E-01 -0.950008E-02
   Van der Waals                 : -0.160115E-02  0.100723E-02  0.262696E-02
   ----------------------------------------------------------------
   Total forces(   7)            : -0.209169E+00  0.130236E-01 -0.348900E-01
  atom #    8
   Hellmann-Feynman              :  0.532639E-01 -0.476724E-01  0.182852E+00
   Ionic forces                  :  0.000000E+00  0.000000E+00  0.000000E+00
   Multipole                     :  0.172821E-01  0.626610E-01  0.122120E+00
   Pulay + GGA                   : -0.414454E-01 -0.340109E-01 -0.833364E-01
   Van der Waals                 : -0.261951E-02  0.115162E-01  0.166579E-02
   ----------------------------------------------------------------
   Total forces(   8)            :  0.264811E-01 -0.750606E-02  0.223302E+00
  atom #    9
   Hellmann-Feynman              :  0.878012E-01  0.707926E-02 -0.184587E+00
   Ionic forces                  :  0.000000E+00  0.000000E+00  0.000000E+00
   Multipole                     :  0.157226E-01  0.128879E+00 -0.120337E-01
   Pulay + GGA                   : -0.585083E-01 -0.101828E+00  0.216546E-01
   Van der Waals                 : -0.215667E-02  0.235565E-02  0.335407E-02
   ----------------------------------------------------------------
   Total forces(   9)            :  0.428587E-01  0.364862E-01 -0.171612E+00
  atom #   10
   Hellmann-Feynman              :  0.381521E+01  0.559638E+01  0.221037E+01
   Ionic forces                  :  0.000000E+00  0.000000E+00  0.000000E+00
   Multipole                     :  0.259632E-01  0.118491E-01  0.263533E+00
   Pulay + GGA                   : -0.243742E+01 -0.285541E+01 -0.533676E-01
   Van der Waals                 :  0.253825E-02 -0.143316E-01  0.462886E-02
   ----------------------------------------------------------------
   Total forces(  10)            :  0.140629E+01  0.273848E+01  0.242517E+01
  atom #   11
   Hellmann-Feynman              :  0.407406E+01 -0.227673E+01  0.137077E+02
   Ionic forces                  :  0.000000E+00  0.000000E+00  0.000000E+00
   Multipole                     :  0.560459E-01 -0.646145E+00  0.783018E+00
   Pulay + GGA                   : -0.333859E+01  0.355891E+01 -0.134530E+02
   Van der Waals                 : -0.356851E-02 -0.107107E-01  0.307262E-02
   ----------------------------------------------------------------
   Total forces(  11)            :  0.787949E+00  0.625323E+00  0.104074E+01
  atom #   12
   Hellmann-Feynman              : -0.148587E+02 -0.201181E+01 -0.522591E+01
   Ionic forces                  :  0.000000E+00  0.000000E+00  0.000000E+00
   Multipole                     : -0.106441E+01 -0.120834E+01 -0.295279E+00
   Pulay + GGA                   :  0.142081E+02  0.647488E+00  0.272542E+01
   Van der Waals                 :  0.200693E-02  0.693948E-02  0.290619E-02
   ----------------------------------------------------------------
   Total forces(  12)            : -0.171303E+01 -0.256573E+01 -0.279286E+01
  atom #   13
   Hellmann-Feynman              : -0.219120E+00 -0.122161E+01 -0.618863E+00
   Ionic forces                  :  0.000000E+00  0.000000E+00  0.000000E+00
   Multipole                     :  0.381261E-01 -0.337546E-01 -0.241650E-01
   Pulay + GGA                   : -0.333155E+00  0.200864E+00  0.144738E+00
   Van der Waals                 :  0.218348E-02 -0.730115E-02 -0.907928E-03
   ----------------------------------------------------------------
   Total forces(  13)            : -0.511965E+00 -0.106180E+01 -0.499198E+00

  Timings for VdW correction (Tkatchenko-Scheffler 2009 or later):
  | CPU time:        0.089 s, Wall clock time:        0.090 s.
  Removing unitary transformations (pure translations, rotations) from forces on atoms.
  Atomic forces before filtering:
  | Net force on center of mass :   0.132705E-02 -0.434076E-02 -0.596806E-02 eV/A
  | Net torque on center of mass:   0.120863E-03  0.387456E-02  0.167718E-02 eV
  Atomic forces after filtering:
  | Net force on center of mass :  -0.892031E-16  0.178406E-15  0.267609E-15 eV/A
  | Net torque on center of mass:   0.236021E-15  0.634307E-15 -0.944085E-15 eV

  Energy and forces in a compact form:
  | Total energy uncorrected      :         -0.880233107887990E+04 eV
  | Total energy corrected        :         -0.880233107887990E+04 eV  <-- do not rely on this value for anything but (periodic) metals
  | Electronic free energy        :         -0.880233107887990E+04 eV
  Total atomic forces (unitary forces cleaned) [eV/Ang]:
  |   1         -0.682563200794615E+00          0.219756622186670E+00         -0.576624477843070E+00
  |   2          0.313508774471306E+00          0.732284021882796E-01          0.447316674102754E-01
  |   3          0.577371447660298E+00          0.487824976217033E+00          0.507115162775241E+00
  |   4         -0.249643851384301E+00         -0.167246906708817E+00         -0.147453979939500E+00
  |   5          0.340635210143397E-01         -0.109517102739049E+00         -0.223070429049679E+00
  |   6          0.179521157267054E+00         -0.284785387951989E+00          0.201670800033449E+00
  |   7         -0.209287842890882E+00          0.134481960643012E-01         -0.346645712320864E-01
  |   8          0.261756599809003E-01         -0.717782853032407E-02          0.223792937882404E+00
  |   9          0.428965093293653E-01          0.368051792382353E-01         -0.171126343322554E+00
  |  10          0.140599252866841E+01          0.273882280444942E+01          0.242562440712784E+01
  |  11          0.787421095314096E+00          0.625649287042456E+00          0.104125359805575E+01
  |  12         -0.171326551118202E+01         -0.256533940853940E+01         -0.279252089466135E+01
  |  13         -0.512190287453955E+00         -0.106146883291682E+01         -0.498727877236720E+00

  ------------------------------------ 
  Start decomposition of the XC Energy 
  ------------------------------------ 
  X and C from original XC functional choice 
  Hartree-Fock Energy :          0.000000000 Ha              0.000000000 eV
  X Energy            :        -41.042339229 Ha          -1116.818873536 eV
  C Energy            :         -1.601121907 Ha            -43.568743830 eV
  Total XC Energy     :        -42.643461135 Ha          -1160.387617366 eV
  ------------------------------------ 
  LDA X and C from self-consistent density 
  X Energy LDA        :        -37.261558855 Ha          -1013.938605077 eV
  C Energy LDA        :         -3.138910580 Ha            -85.414102708 eV
  ------------------------------------ 
  End decomposition of the XC Energy 
  ------------------------------------ 

------------------------------------------------------------

------------------------------------------------------------------------------
  Final output of selected total energy values:

  The following output summarizes some interesting total energy values
  at the end of a run (AFTER all relaxation, molecular dynamics, etc.).

  | Total energy of the DFT / Hartree-Fock s.c.f. calculation      :          -8802.331078880 eV
  | Final zero-broadening corrected energy (caution - metals only) :          -8802.331078880 eV
  | For reference only, the value of 1 Hartree used in FHI-aims is :             27.211384500 eV

  Before relying on these values, please be sure to understand exactly which
  total energy value is referred to by a given number. Different objects may
  all carry the same name 'total energy'. Definitions:

  Total energy of the DFT / Hartree-Fock s.c.f. calculation:
  | Note that this energy does not include ANY quantities calculated after the
  | s.c.f. cycle, in particular not ANY RPA, MP2, etc. many-body perturbation terms.

  Final zero-broadening corrected energy:
  | For metallic systems only, a broadening of the occupation numbers at the Fermi
  | level can be extrapolated back to zero broadening by an electron-gas inspired
  | formula. For all systems that are not real metals, this value can be
  | meaningless and should be avoided.

------------------------------------------------------------------------------
  Methods described in the following list of references were used in this FHI-aims run.
  If you publish the results, please make sure to cite these reference if they apply.
  FHI-aims is an academic code, and for our developers (often, Ph.D. students
  and postdocs), scientific credit in the community is essential.
  Thank you for helping us!

  For any use of FHI-aims, please cite:

    Volker Blum, Ralf Gehrke, Felix Hanke, Paula Havu, Ville Havu,
    Xinguo Ren, Karsten Reuter, and Matthias Scheffler
    'Ab initio molecular simulations with numeric atom-centered orbitals'
    Computer Physics Communications 180, 2175-2196 (2009)
    http://dx.doi.org/10.1016/j.cpc.2009.06.022


  The scalable eigensolver library ELPA was used in your run.
  ELPA is essential especially for large systems on hundreds or thousands of CPUs.
  For ELPA, please cite:

    Andreas Marek, Volker Blum, Rainer Johanni, Ville Havu, Bruno Lang,
    Thomas Auckenthaler, Alexander Heinecke, Hans-Joachim Bungartz, and Hermann Lederer,
    'The ELPA Library - Scalable Parallel Eigenvalue Solutions
    for Electronic Structure Theory and Computational Science'
    The Journal of Physics: Condensed Matter 26, 213201 (2014).
    http://dx.doi.org/10.1088/0953-8984/26/21/213201


  The ELSI infrastructure was used in your run to solve the Kohn-Sham electronic structure.
  Please check out http://elsi-interchange.org to learn more.
  If scalability is important for your project, please acknowledge ELSI by citing:

    V. W-z. Yu, F. Corsetti, A. Garcia, W. P. Huhn, M. Jacquelin, W. Jia,
    B. Lange, L. Lin, J. Lu, W. Mi, A. Seifitokaldani, A. Vazquez-Mayagoitia,
    C. Yang, H. Yang, and V. Blum
    'ELSI: A unified software interface for Kohn-Sham electronic structure solvers'
    Computer Physics Communications 222, 267-285 (2018).
    http://dx.doi.org/10.1016/j.cpc.2017.09.007


  For the real-space grid partitioning and parallelization used in this calculation, please cite:

    Ville Havu, Volker Blum, Paula Havu, and Matthias Scheffler,
    'Efficient O(N) integration for all-electron electronic structure calculation'
    'using numerically tabulated basis functions'
    Journal of Computational Physics 228, 8367-8379 (2009).
    http://dx.doi.org/10.1016/j.jcp.2009.08.008

  Of course, there are many other important community references, e.g., those cited in the
  above references. Our list is limited to references that describe implementations in the
  FHI-aims code. The reason is purely practical (length of this list) - please credit others as well.

------------------------------------------------------------
          Leaving FHI-aims.
          Date     :  20200710, Time     :  150510.737

          Computational steps:
          | Number of self-consistency cycles          :           16
          | Number of SCF (re)initializations          :            1

          Detailed time accounting                     :  max(cpu_time)    wall_clock(cpu1)
          | Total time                                 :       22.714 s          22.758 s
          | Preparation time                           :        0.151 s           0.151 s
          | Boundary condition initalization           :        0.000 s           0.000 s
          | Grid partitioning                          :        0.112 s           0.112 s
          | Preloading free-atom quantities on grid    :        0.002 s           0.002 s
          | Free-atom superposition energy             :        0.084 s           0.084 s
          | Total time for integrations                :        8.674 s           8.674 s
          | Total time for solution of K.-S. equations :        0.037 s           0.041 s
          | Total time for density & force components  :        7.115 s           7.122 s
          | Total time for mixing                      :        0.217 s           0.219 s
          | Total time for Hartree multipole update    :        0.140 s           0.140 s
          | Total time for Hartree multipole sum       :        5.781 s           5.799 s
          | Total time for total energy evaluation     :        0.003 s           0.002 s
          | Total time for vdW correction              :        0.089 s           0.090 s

          Partial memory accounting:
          | Residual value for overall tracked memory usage across tasks :           0.000 MB (should be 0.000 MB)
          | Peak values for overall tracked memory usage (after allocating hessian_basis_wave):
          |   Minimum:        1.601 MB (on task 1)
          |   Maximum:        1.601 MB (on task 1)
          |   Average:        1.601 MB
          | Largest tracked array allocation (hessian_basis_wave):
          |   Minimum:        0.782 MB (on task 1)
          |   Maximum:        0.782 MB (on task 1)
          |   Average:        0.782 MB
          Note:  These values currently only include a subset of arrays which are explicitly tracked.
          The "true" memory usage will be greater.

          Have a nice day.
------------------------------------------------------------
