  MPI-parallelism will be employed.
------------------------------------------------------------
          Invoking FHI-aims ...
          Version 171221_1
          Compiled on 2019/09/09 at 14:39:39 on host puhti-login2.bullx.

          When using FHI-aims, please cite the following reference:

          Volker Blum, Ralf Gehrke, Felix Hanke, Paula Havu,
          Ville Havu, Xinguo Ren, Karsten Reuter, and Matthias Scheffler,
          'Ab Initio Molecular Simulations with Numeric Atom-Centered Orbitals',
          Computer Physics Communications 180, 2175-2196 (2009)

          For any questions about FHI-aims, please visit the aimsclub website
          with its forums and wiki. Contributions to both the forums and the
          wiki are warmly encouraged - they are for you, and everyone is welcome there.

------------------------------------------------------------



  Date     :  20200805, Time     :  181618.837
  Time zero on CPU 1             :   0.105380000000000E-01  s.
  Internal wall clock time zero  :           365883378.837  s.

  FHI-aims created a unique identifier for this run for later identification
  aims_uuid : 7CA1FB0E-7644-4FD9-A2A9-275860765AA8

  Using        1 parallel tasks.
  Task        0 on host r13c17.bullx reporting.

  Performing system and environment tests:
  | Environment variable OMP_NUM_THREADS correctly set to 1.
  | Stacksize not measured: no C compiler
  | Checking for scalapack...
  | Testing pdtran()...
  | All pdtran() tests passed.

  Obtaining array dimensions for all initial allocations:
  
  -----------------------------------------------------------------------
  Parsing control.in (first pass over file, find array dimensions only).
  The contents of control.in will be repeated verbatim below
  unless switched off by setting 'verbatim_writeout .false.' .
  in the first line of control.in .
  -----------------------------------------------------------------------
  
  #########################################################################################
  #
  #  Volker Blum, FHI 2009 : Test run input file control.in for simple H2O
  #
  #########################################################################################
  #
  #  Physical model
  #
    xc                 pbe
    vdw_correction_hirshfeld
    spin               none
    relativistic       none
    charge             0.
  #
  #  SCF convergence
  #
    occupation_type    gaussian 0.01
    mixer              pulay
      n_max_pulay        10
      charge_mix_param   0.2
    sc_accuracy_rho    1E-5
    sc_accuracy_eev    1E-3
    sc_accuracy_etot   1E-6
    sc_accuracy_forces 1E-4
    sc_iter_limit      100
  #
  #  Relaxation
  #
  #  relax_geometry   bfgs 1.e-3
  #
  ################################################################################
  #
  #  FHI-aims code project
  #  VB, Fritz-Haber Institut, 2009
  #
  #  Suggested "light" defaults for H atom (to be pasted into control.in file)
  #  Be sure to double-check any results obtained with these settings for post-processing,
  #  e.g., with the "tight" defaults and larger basis sets.
  #
  ################################################################################
    species        H
  #     global species definitions
      nucleus             1
      mass                1.00794
  #
      l_hartree           4
  #
      cut_pot             3.5  1.5  1.0
      basis_dep_cutoff    1e-4
  #
      radial_base         24 5.0
      radial_multiplier   1
      angular_grids       specified
        division   0.2421   50
        division   0.3822  110
        division   0.4799  194
        division   0.5341  302
  #      division   0.5626  434
  #      division   0.5922  590
  #      division   0.6542  770
  #      division   0.6868 1202
  #      outer_grid  770
        outer_grid  302
  ################################################################################
  #
  #  Definition of "minimal" basis
  #
  ################################################################################
  #     valence basis states
      valence      1  s   1.
  #     ion occupancy
      ion_occ      1  s   0.5
  ################################################################################
  #
  #  Suggested additional basis functions. For production calculations,
  #  uncomment them one after another (the most important basis functions are
  #  listed first).
  #
  #  Basis constructed for dimers: 0.5 A, 0.7 A, 1.0 A, 1.5 A, 2.5 A
  #
  ################################################################################
  #  "First tier" - improvements: -1014.90 meV to -62.69 meV
       hydro 2 s 2.1
       hydro 2 p 3.5
  #  "Second tier" - improvements: -12.89 meV to -1.83 meV
  #     hydro 1 s 0.85
  #     hydro 2 p 3.7
  #     hydro 2 s 1.2
  #     hydro 3 d 7
  #  "Third tier" - improvements: -0.25 meV to -0.12 meV
  #     hydro 4 f 11.2
  #     hydro 3 p 4.8
  #     hydro 4 d 9
  #     hydro 3 s 3.2
  ################################################################################
  #
  #  FHI-aims code project
  #  VB, Fritz-Haber Institut, 2009
  #
  #  Suggested "light" defaults for C atom (to be pasted into control.in file)
  #  Be sure to double-check any results obtained with these settings for post-processing,
  #  e.g., with the "tight" defaults and larger basis sets.
  #
  ################################################################################
    species        C
  #     global species definitions
      nucleus             6
      mass                12.0107
  #
      l_hartree           4
  #
      cut_pot             3.5  1.5  1.0
      basis_dep_cutoff    1e-4
  #
      radial_base         34 5.0
      radial_multiplier   1
      angular_grids specified
        division   0.3326   50
        division   0.5710  110
        division   0.7727  194
        division   0.8772  302
  #      division   0.9334  434
  #      division   0.9625  590
  #      division   0.9924  770
  #      division   1.0230  974
  #      division   1.4589 1202
  #     outer_grid  974
       outer_grid 302
  ################################################################################
  #
  #  Definition of "minimal" basis
  #
  ################################################################################
  #     valence basis states
      valence      2  s   2.
      valence      2  p   2.
  #     ion occupancy
      ion_occ      2  s   1.
      ion_occ      2  p   1.
  ################################################################################
  #
  #  Suggested additional basis functions. For production calculations,
  #  uncomment them one after another (the most important basis functions are
  #  listed first).
  #
  #  Constructed for dimers: 1.0 A, 1.25 A, 1.5 A, 2.0 A, 3.0 A
  #
  ################################################################################
  #  "First tier" - improvements: -1214.57 meV to -155.61 meV
       hydro 2 p 1.7
       hydro 3 d 6
       hydro 2 s 4.9
  #  "Second tier" - improvements: -67.75 meV to -5.23 meV
  #     hydro 4 f 9.8
  #     hydro 3 p 5.2
  #     hydro 3 s 4.3
  #     hydro 5 g 14.4
  #     hydro 3 d 6.2
  #  "Third tier" - improvements: -2.43 meV to -0.60 meV
  #     hydro 2 p 5.6
  #     hydro 2 s 1.4
  #     hydro 3 d 4.9
  #     hydro 4 f 11.2
  #  "Fourth tier" - improvements: -0.39 meV to -0.18 meV
  #     hydro 2 p 2.1
  #     hydro 5 g 16.4
  #     hydro 4 d 13.2
  #     hydro 3 s 13.6
  #     hydro 4 f 17.6
  #  Further basis functions - improvements: -0.08 meV and below
  #     hydro 3 s 2
  #     hydro 3 p 6
  #     hydro 4 d 20
  ################################################################################
  #
  #  FHI-aims code project
  #  VB, Fritz-Haber Institut, 2009
  #
  #  Suggested "light" defaults for N atom (to be pasted into control.in file)
  #  Be sure to double-check any results obtained with these settings for post-processing,
  #  e.g., with the "tight" defaults and larger basis sets.
  #
  ################################################################################
    species        N
  #     global species definitions
      nucleus             7
      mass                14.0067
  #
      l_hartree           4
  #
      cut_pot             3.5  1.5  1.0
      basis_dep_cutoff    1e-4
  #
      radial_base         35 5.0
      radial_multiplier   1
      angular_grids       specified
        division   0.2599   50
        division   0.4601  110
        division   0.5885  194
        division   0.6503  302
  #      division   0.6939  434
  #      division   0.7396  590
  #      division   0.7632  770
  #      division   0.8122  974
  #      division   1.1604 1202
  #      outer_grid  974
        outer_grid  302
  ################################################################################
  #
  #  Definition of "minimal" basis
  #
  ################################################################################
  #     valence basis states
      valence      2  s   2.
      valence      2  p   3.
  #     ion occupancy
      ion_occ      2  s   1.
      ion_occ      2  p   2.
  ################################################################################
  #
  #  Suggested additional basis functions. For production calculations,
  #  uncomment them one after another (the most important basis functions are
  #  listed first).
  #
  #  Constructed for dimers: 1.0 A, 1.1 A, 1.5 A, 2.0 A, 3.0 A
  #
  ################################################################################
  #  "First tier" - improvements: -1193.42 meV to -220.60 meV
       hydro 2 p 1.8
       hydro 3 d 6.8
       hydro 3 s 5.8
  #  "Second tier" - improvements: -80.21 meV to -6.86 meV
  #     hydro 4 f 10.8
  #     hydro 3 p 5.8
  #     hydro 1 s 0.8
  #     hydro 5 g 16
  #     hydro 3 d 4.9
  #  "Third tier" - improvements: -4.29 meV to -0.53 meV
  #     hydro 3 s 16
  #     ionic 2 p auto
  #     hydro 3 d 6.6
  #     hydro 4 f 11.6
  #  "Fourth tier" - improvements: -0.75 meV to -0.25 meV
  #     hydro 2 p 4.5
  #     hydro 2 s 2.4
  #     hydro 5 g 14.4
  #     hydro 4 d 14.4
  #     hydro 4 f 16.8
  # Further basis functions - -0.21 meV and below
  #     hydro 3 p 14.8
  #     hydro 3 s 4.4
  #     hydro 3 d 19.6
  #     hydro 5 g 12.8
  ################################################################################
  #
  #  FHI-aims code project
  #  VB, Fritz-Haber Institut, 2009
  #
  #  Suggested "light" defaults for O atom (to be pasted into control.in file)
  #  Be sure to double-check any results obtained with these settings for post-processing,
  #  e.g., with the "tight" defaults and larger basis sets.
  #
  ################################################################################
    species        O
  #     global species definitions
      nucleus             8
      mass                15.9994
  #
      l_hartree           4
  #
      cut_pot             3.5  1.5  1.0
      basis_dep_cutoff    1e-4
  #
      radial_base         36 5.0
      radial_multiplier   1
       angular_grids specified
        division   0.2659   50
        division   0.4451  110
        division   0.6052  194
        division   0.7543  302
  #      division   0.8014  434
  #      division   0.8507  590
  #      division   0.8762  770
  #      division   0.9023  974
  #      division   1.2339 1202
  #      outer_grid 974
        outer_grid 302
  ################################################################################
  #
  #  Definition of "minimal" basis
  #
  ################################################################################
  #     valence basis states
      valence      2  s   2.
      valence      2  p   4.
  #     ion occupancy
      ion_occ      2  s   1.
      ion_occ      2  p   3.
  ################################################################################
  #
  #  Suggested additional basis functions. For production calculations,
  #  uncomment them one after another (the most important basis functions are
  #  listed first).
  #
  #  Constructed for dimers: 1.0 A, 1.208 A, 1.5 A, 2.0 A, 3.0 A
  #
  ################################################################################
  #  "First tier" - improvements: -699.05 meV to -159.38 meV
       hydro 2 p 1.8
       hydro 3 d 7.6
       hydro 3 s 6.4
  #  "Second tier" - improvements: -49.91 meV to -5.39 meV
  #     hydro 4 f 11.6
  #     hydro 3 p 6.2
  #     hydro 3 d 5.6
  #     hydro 5 g 17.6
  #     hydro 1 s 0.75
  #  "Third tier" - improvements: -2.83 meV to -0.50 meV
  #     ionic 2 p auto
  #     hydro 4 f 10.8
  #     hydro 4 d 4.7
  #     hydro 2 s 6.8
  #  "Fourth tier" - improvements: -0.40 meV to -0.12 meV
  #     hydro 3 p 5
  #     hydro 3 s 3.3
  #     hydro 5 g 15.6
  #     hydro 4 f 17.6
  #     hydro 4 d 14
  # Further basis functions - -0.08 meV and below
  #     hydro 3 s 2.1
  #     hydro 4 d 11.6
  #     hydro 3 p 16
  #     hydro 2 s 17.2
  
  -----------------------------------------------------------------------
  Completed first pass over input file control.in .
  -----------------------------------------------------------------------
  
  
  -----------------------------------------------------------------------
  Parsing geometry.in (first pass over file, find array dimensions only).
  The contents of geometry.in will be repeated verbatim below
  unless switched off by setting 'verbatim_writeout .false.' .
  in the first line of geometry.in .
  -----------------------------------------------------------------------
  
  atom  0.00000 0.00000 0.00000 C
  atom  1.09300 0.00000 0.00000 H
  atom  -0.47961 0.00000 -1.41207 N
  atom  -1.49517 -0.10232 -1.41257 H
  atom  -0.21456 0.88116 -1.84729 H
  atom  -0.49584 1.26211 0.72868 C
  atom  -1.58789 1.28919 0.74431 H
  atom  -0.13407 1.27425 1.75947 H
  atom  -0.13407 2.16087 0.22380 H
  atom  -0.39425 -1.28861 0.74398 C
  atom  -0.10189 -1.56493 1.88303 O
  atom  -1.10210 -2.13717 0.06896 O
  atom  -1.60562 -2.52056 0.80684 H
  
  -----------------------------------------------------------------------
  Completed first pass over input file geometry.in .
  -----------------------------------------------------------------------
  

  Basic array size parameters:
  | Number of species                 :        4
  | Number of atoms                   :       13
  | Max. basis fn. angular momentum   :        2
  | Max. atomic/ionic basis occupied n:        2
  | Max. number of basis fn. types    :        2
  | Max. radial fns per species/type  :        3
  | Max. logarithmic grid size        :     1301
  | Max. radial integration grid size :       36
  | Max. angular integration grid size:      302
  | Max. angular grid division number :        8
  | Radial grid for Hartree potential :     1301
  | Number of spin channels           :        1

------------------------------------------------------------
          Reading file control.in.
------------------------------------------------------------
  XC: Using PBE gradient-corrected functionals.
  Spin treatment: No spin polarisation.
  Non-relativistic treatment of kinetic energy.
  Charge =   0.000000E+00: Neutral system requested explicitly.
  Occupation type: Gaussian broadening, width =   0.100000E-01 eV.
  Using pulay charge density mixing.
  Pulay mixing - number of memorized iterations:   10
  Charge density mixing - mixing parameter:     0.2000
  Convergence accuracy of self-consistent charge density:  0.1000E-04
  Convergence accuracy of sum of eigenvalues:  0.1000E-02
  Convergence accuracy of total energy:  0.1000E-05
  Convergence accuracy of forces:  0.1000E-03
  Maximum number of s.-c. iterations  :   100
 
  Reading configuration options for species H                   .
  | Found nuclear charge :   1.0000
  | Found atomic mass :    1.00794000000000      amu
  | Found l_max for Hartree potential  :   4
  | Found cutoff potl. onset [A], width [A], scale factor :    3.50000    1.50000    1.00000
  | Threshold for basis-dependent cutoff potential is   0.100000E-03
  | Found data for basic radial integration grid :    24 points, outermost radius =    5.000 A
  | Found multiplier for basic radial grid :   1
  | Found angular grid specification: user-specified.
  | Specified grid contains     5 separate shells.
  | Check grid settings after all constraints further below.
  | Found free-atom valence shell :  1 s   1.000
  | No ionic wave fns used. Skipping ion_occ.
  | Found hydrogenic basis function :  2 s   2.100
  | Found hydrogenic basis function :  2 p   3.500
  Species H                   : Missing cutoff potential type.
  Defaulting to exp(1/x)/(1-x)^2 type cutoff potential.
  Species H : No 'logarithmic' tag. Using default grid for free atom:
  | Default logarithmic grid data [bohr] : 0.1000E-03 0.1000E+03 0.1012E+01
  Species H : On-site basis accuracy parameter (for Gram-Schmidt orthonormalisation) not specified.
  Using default value basis_acc =  0.1000000E-03.
  Species H                   : Using default innermost maximum threshold i_radial=  2 for radial functions.
  Species H                   : Default cutoff onset for free atom density etc. : 0.35000000E+01 AA.
  Species H                   : Basic radial grid will be enhanced according to radial_multiplier =   1, to contain    24 grid points.
 
  Reading configuration options for species C                   .
  | Found nuclear charge :   6.0000
  | Found atomic mass :    12.0107000000000      amu
  | Found l_max for Hartree potential  :   4
  | Found cutoff potl. onset [A], width [A], scale factor :    3.50000    1.50000    1.00000
  | Threshold for basis-dependent cutoff potential is   0.100000E-03
  | Found data for basic radial integration grid :    34 points, outermost radius =    5.000 A
  | Found multiplier for basic radial grid :   1
  | Found angular grid specification: user-specified.
  | Specified grid contains     5 separate shells.
  | Check grid settings after all constraints further below.
  | Found free-atom valence shell :  2 s   2.000
  | Found free-atom valence shell :  2 p   2.000
  | No ionic wave fns used. Skipping ion_occ.
  | No ionic wave fns used. Skipping ion_occ.
  | Found hydrogenic basis function :  2 p   1.700
  | Found hydrogenic basis function :  3 d   6.000
  | Found hydrogenic basis function :  2 s   4.900
  Species C                   : Missing cutoff potential type.
  Defaulting to exp(1/x)/(1-x)^2 type cutoff potential.
  Species C : No 'logarithmic' tag. Using default grid for free atom:
  | Default logarithmic grid data [bohr] : 0.1000E-03 0.1000E+03 0.1012E+01
  Species C : On-site basis accuracy parameter (for Gram-Schmidt orthonormalisation) not specified.
  Using default value basis_acc =  0.1000000E-03.
  Species C                   : Using default innermost maximum threshold i_radial=  2 for radial functions.
  Species C                   : Default cutoff onset for free atom density etc. : 0.35000000E+01 AA.
  Species C                   : Basic radial grid will be enhanced according to radial_multiplier =   1, to contain    34 grid points.
 
  Reading configuration options for species N                   .
  | Found nuclear charge :   7.0000
  | Found atomic mass :    14.0067000000000      amu
  | Found l_max for Hartree potential  :   4
  | Found cutoff potl. onset [A], width [A], scale factor :    3.50000    1.50000    1.00000
  | Threshold for basis-dependent cutoff potential is   0.100000E-03
  | Found data for basic radial integration grid :    35 points, outermost radius =    5.000 A
  | Found multiplier for basic radial grid :   1
  | Found angular grid specification: user-specified.
  | Specified grid contains     5 separate shells.
  | Check grid settings after all constraints further below.
  | Found free-atom valence shell :  2 s   2.000
  | Found free-atom valence shell :  2 p   3.000
  | No ionic wave fns used. Skipping ion_occ.
  | No ionic wave fns used. Skipping ion_occ.
  | Found hydrogenic basis function :  2 p   1.800
  | Found hydrogenic basis function :  3 d   6.800
  | Found hydrogenic basis function :  3 s   5.800
  Species N                   : Missing cutoff potential type.
  Defaulting to exp(1/x)/(1-x)^2 type cutoff potential.
  Species N : No 'logarithmic' tag. Using default grid for free atom:
  | Default logarithmic grid data [bohr] : 0.1000E-03 0.1000E+03 0.1012E+01
  Species N : On-site basis accuracy parameter (for Gram-Schmidt orthonormalisation) not specified.
  Using default value basis_acc =  0.1000000E-03.
  Species N                   : Using default innermost maximum threshold i_radial=  2 for radial functions.
  Species N                   : Default cutoff onset for free atom density etc. : 0.35000000E+01 AA.
  Species N                   : Basic radial grid will be enhanced according to radial_multiplier =   1, to contain    35 grid points.
 
  Reading configuration options for species O                   .
  | Found nuclear charge :   8.0000
  | Found atomic mass :    15.9994000000000      amu
  | Found l_max for Hartree potential  :   4
  | Found cutoff potl. onset [A], width [A], scale factor :    3.50000    1.50000    1.00000
  | Threshold for basis-dependent cutoff potential is   0.100000E-03
  | Found data for basic radial integration grid :    36 points, outermost radius =    5.000 A
  | Found multiplier for basic radial grid :   1
  | Found angular grid specification: user-specified.
  | Specified grid contains     5 separate shells.
  | Check grid settings after all constraints further below.
  | Found free-atom valence shell :  2 s   2.000
  | Found free-atom valence shell :  2 p   4.000
  | No ionic wave fns used. Skipping ion_occ.
  | No ionic wave fns used. Skipping ion_occ.
  | Found hydrogenic basis function :  2 p   1.800
  | Found hydrogenic basis function :  3 d   7.600
  | Found hydrogenic basis function :  3 s   6.400
  Species O                   : Missing cutoff potential type.
  Defaulting to exp(1/x)/(1-x)^2 type cutoff potential.
  Species O : No 'logarithmic' tag. Using default grid for free atom:
  | Default logarithmic grid data [bohr] : 0.1000E-03 0.1000E+03 0.1012E+01
  Species O : On-site basis accuracy parameter (for Gram-Schmidt orthonormalisation) not specified.
  Using default value basis_acc =  0.1000000E-03.
  Species O                   : Using default innermost maximum threshold i_radial=  2 for radial functions.
  Species O                   : Default cutoff onset for free atom density etc. : 0.35000000E+01 AA.
  Species O                   : Basic radial grid will be enhanced according to radial_multiplier =   1, to contain    36 grid points.
 
  Finished reading input file 'control.in'. Consistency checks are next.
 
  MPI_IN_PLACE appears to work with this MPI implementation.
  | Keeping use_mpi_in_place .true. (see manual).
  Target number of points in a grid batch is not set. Defaulting to  100
  Method for grid partitioning is not set. Defaulting to parallel hash+maxmin partitioning.
  Batch size limit is not set. Defaulting to    200
  By default, will store active basis functions for each batch.
  If in need of memory, prune_basis_once .false. can be used to disable this option.
  communication_type for Hartree potential was not specified.
  Defaulting to calc_hartree .
  Pulay mixer: Number of initial linear mixing iterations not set.
  Defaulting to    0 iterations.
  Work space size for distributed Hartree potential not set.
  Defaulting to   0.200000E+03 MB.
  Algorithm-dependent basis array size parameters:
  | n_max_pulay                         :       10
  Presetting      1001 iterations before the initial mixing cycle
  is restarted anyway using the sc_init_iter criterion / keyword.
  Presetting a factor      1.000 between actual scf density residual
  and density convergence criterion sc_accuracy_rho below which sc_init_iter
  takes no effect.
  Geometry relaxation not requested: no relaxation will be performed.
  Handling of forces: Unphysical translation and rotation will be removed from forces.
  No accuracy limit for integral partition fn. given. Defaulting to  0.1000E-14.
  No threshold value for u(r) in integrations given. Defaulting to  0.1000E-05.
  No accuracy for occupation numbers given. Defaulting to  0.1000E-12.
  No threshold value for occupation numbers given. Defaulting to  0.0000E+00.
  No accuracy for fermi level given. Defaulting to  0.1000E-19.
  Maximum # of iterations to find E_F not set. Defaulting to  200.
  Preferred method for the eigenvalue solver ('KS_method') not specified in 'control.in'.
  Defaulting to serial version, 'lapack_fast'.
  Will not use alltoall communication since running on < 1024 CPUs.
  Threshold for basis singularities not set.
  Default threshold for basis singularities:  0.1000E-04
  partition_type (choice of integration weights) for integrals was not specified.
  | Using a version of the partition function of Stratmann and coworkers ('stratmann_smoother').
  | At each grid point, the set of atoms used to build the partition table is smoothly restricted to
  | only those atoms whose free-atom density would be non-zero at that grid point.
  Partitioning for Hartree potential was not defined. Using partition_type for integrals.
  | Adjusted default value of keyword multip_moments_threshold to:       0.10000000E-11
  | This value may affect high angular momentum components of the Hartree potential in periodic systems.
  No q(lm)/r^(l+1) cutoff set for long-range Hartree potential.
  | Using default value of  0.100000E-09 .
  | Verify using the multipole_threshold keyword.
  Defaulting to new monopole extrapolation.
  Density update method: automatic selection selected.
------------------------------------------------------------


------------------------------------------------------------
          Reading geometry description geometry.in.
------------------------------------------------------------
  Input structure read successfully.
  The structure contains       13 atoms,  and a total of         48.000 electrons.

  Input geometry:
  | No unit cell requested.
  | Atomic structure:
  |       Atom                x [A]            y [A]            z [A]
  |    1: Species C             0.00000000        0.00000000        0.00000000
  |    2: Species H             1.09300000        0.00000000        0.00000000
  |    3: Species N            -0.47961000        0.00000000       -1.41207000
  |    4: Species H            -1.49517000       -0.10232000       -1.41257000
  |    5: Species H            -0.21456000        0.88116000       -1.84729000
  |    6: Species C            -0.49584000        1.26211000        0.72868000
  |    7: Species H            -1.58789000        1.28919000        0.74431000
  |    8: Species H            -0.13407000        1.27425000        1.75947000
  |    9: Species H            -0.13407000        2.16087000        0.22380000
  |   10: Species C            -0.39425000       -1.28861000        0.74398000
  |   11: Species O            -0.10189000       -1.56493000        1.88303000
  |   12: Species O            -1.10210000       -2.13717000        0.06896000
  |   13: Species H            -1.60562000       -2.52056000        0.80684000
  |

  | The smallest distance between any two atoms is         0.97210451 AA.
  |
  | The first atom of this pair is atom number                     12 .
  | The second atom of this pair is atom number                    13 .

  Number of empty states per atom not set in control.in - providing a guess from actual geometry.
  | Total number of empty states used during s.c.f. cycle:       29
  If you use a very high smearing, use empty_states (per atom!) in control.in to increase this value.

  Structure-dependent array size parameters: 
  | Maximum number of distinct radial functions  :       21
  | Maximum number of basis functions            :      119
  | Number of Kohn-Sham states (occupied + empty):       53
------------------------------------------------------------

------------------------------------------------------------
          Preparing all fixed parts of the calculation.
------------------------------------------------------------
  Determining machine precision:
    2.225073858507201E-308
  Setting up grids for atomic and cluster calculations.

  Creating wave function, potential, and density for free atoms.

  Species: H

  List of occupied orbitals and eigenvalues:
    n    l              occ      energy [Ha]    energy [eV]
    1    0           1.0000        -0.237589        -6.4651


  Species: C

  List of occupied orbitals and eigenvalues:
    n    l              occ      energy [Ha]    energy [eV]
    1    0           2.0000       -10.038835      -273.1706
    2    0           2.0000        -0.502696       -13.6791
    2    1           2.0000        -0.191971        -5.2238


  Species: N

  List of occupied orbitals and eigenvalues:
    n    l              occ      energy [Ha]    energy [eV]
    1    0           2.0000       -14.128000      -384.4424
    2    0           2.0000        -0.681077       -18.5330
    2    1           3.0000        -0.259788        -7.0692


  Species: O

  List of occupied orbitals and eigenvalues:
    n    l              occ      energy [Ha]    energy [eV]
    1    0           2.0000       -18.898188      -514.2459
    2    0           2.0000        -0.878505       -23.9053
    2    1           4.0000        -0.331779        -9.0282

  Creating fixed part of basis set: Ionic, confined, hydrogenic.
 
  H                    hydrogenic:
 
  List of hydrogenic basis orbitals: 
    n    l      effective z      eigenvalue [eV]  inner max. [A]     outer max. [A]     outer radius [A]   
    2    0         2.100000       -14.9728           0.193243           1.317208           4.583499
    2    1         3.500000       -41.6669           0.602369           0.602369           3.723403
 
 
  C                    hydrogenic:
 
  List of hydrogenic basis orbitals: 
    n    l      effective z      eigenvalue [eV]  inner max. [A]     outer max. [A]     outer radius [A]   
    2    1         1.700000        -9.7616           1.230570           1.230570           4.607917
    3    2         6.000000       -54.4224           0.792453           0.792453           3.883070
    2    0         4.900000       -81.6679           0.082559           0.562749           3.078220
 
 
  N                    hydrogenic:
 
  List of hydrogenic basis orbitals: 
    n    l      effective z      eigenvalue [eV]  inner max. [A]     outer max. [A]     outer radius [A]   
    2    1         1.800000       -10.9749           1.177451           1.177451           4.573712
    3    2         6.800000       -69.9026           0.704619           0.704619           3.538137
    3    0         5.800000       -50.8545           0.067388           1.191934           4.250239
 
 
  O                    hydrogenic:
 
  List of hydrogenic basis orbitals: 
    n    l      effective z      eigenvalue [eV]  inner max. [A]     outer max. [A]     outer radius [A]   
    2    1         1.800000       -10.9749           1.164242           1.164242           4.578029
    3    2         7.600000       -87.3180           0.624125           0.624125           3.251020
    3    0         6.400000       -61.9207           0.061167           1.081902           4.001998
 

  Adding cutoff potential to free-atom effective potential.
  Creating atomic-like basis functions for current effective potential.

  Species H                   :

  List of atomic basis orbitals and eigenvalues:
    n    l      energy [Ha]    energy [eV]    outer radius [A]
    1    0        -0.237589        -6.4651       4.527807


  Species C                   :

  List of atomic basis orbitals and eigenvalues:
    n    l      energy [Ha]    energy [eV]    outer radius [A]
    1    0       -10.038835      -273.1706       1.934409
    2    0        -0.502696       -13.6791       4.496620
    2    1        -0.191971        -5.2238       4.551928


  Species N                   :

  List of atomic basis orbitals and eigenvalues:
    n    l      energy [Ha]    energy [eV]    outer radius [A]
    1    0       -14.128000      -384.4424       1.637919
    2    0        -0.681077       -18.5330       4.463241
    2    1        -0.259788        -7.0692       4.518138


  Species O                   :

  List of atomic basis orbitals and eigenvalues:
    n    l      energy [Ha]    energy [eV]    outer radius [A]
    1    0       -18.898188      -514.2459       1.415765
    2    0        -0.878505       -23.9053       4.413171
    2    1        -0.331779        -9.0282       4.522403

  Assembling full basis from fixed parts.
  | Species H :   atomic orbital   1 s accepted.
  | Species H :    hydro orbital   2 s accepted.
  | Species H :    hydro orbital   2 p accepted.
  | Species C :   atomic orbital   1 s accepted.
  | Species C :    hydro orbital   2 s accepted.
  | Species C :   atomic orbital   2 s accepted.
  | Species C :   atomic orbital   2 p accepted.
  | Species C :    hydro orbital   2 p accepted.
  | Species C :    hydro orbital   3 d accepted.
  | Species N :   atomic orbital   1 s accepted.
  | Species N :    hydro orbital   3 s accepted.
  | Species N :   atomic orbital   2 s accepted.
  | Species N :   atomic orbital   2 p accepted.
  | Species N :    hydro orbital   2 p accepted.
  | Species N :    hydro orbital   3 d accepted.
  | Species O :   atomic orbital   1 s accepted.
  | Species O :    hydro orbital   3 s accepted.
  | Species O :   atomic orbital   2 s accepted.
  | Species O :   atomic orbital   2 p accepted.
  | Species O :    hydro orbital   2 p accepted.
  | Species O :    hydro orbital   3 d accepted.
 
  Basis size parameters after reduction:
  | Total number of radial functions:       21
  | Total number of basis functions :      119
 
  Per-task memory consumption for arrays in subroutine allocate_ext:
  |           5.250512MB.
  Testing on-site integration grid accuracy.
  |  Species  Function  <phi|h_atom|phi> (log., in eV)  <phi|h_atom|phi> (rad., in eV)
           1        1                 -6.4663192853                 -6.4651273558
           1        2                 13.7111246313                 13.7170609718
           1        3                 25.2673269279                 25.2674696378
           2        4               -273.1705927641               -273.1705631568
           2        5                -10.7109323383                -10.7107120029
           2        6                 17.4381822266                 17.4352413244
           2        7                 -5.2255326521                 -5.2270484734
           2        8                  8.6835629259                  8.6603288385
           2        9                 27.4952418996                 27.4953360207
           3       10               -384.4424306495               -384.4423701208
           3       11                 12.5842251816                 12.5842222903
           3       12                -15.7264628251                -15.7264433455
           3       13                 -7.0696854293                 -7.0701769954
           3       14                  8.8090390882                  8.7901077751
           3       15                 35.9586762123                 35.9588528632
           4       16               -514.2458688638               -514.2457643834
           4       17                 15.1795651126                 15.1795290741
           4       18                -21.5359799773                -21.5360846186
           4       19                 -9.0283069236                 -9.0284644067
           4       20                  8.3027758564                  8.2834874195
           4       21                 45.8339351984                 45.8338762259

  Preparing densities etc. for the partition functions (integrals / Hartree potential).

  Preparations completed.
  max(cpu_time)          :      0.144 s.
  Wall clock time (cpu1) :      0.146 s.
------------------------------------------------------------

------------------------------------------------------------
          Begin self-consistency loop: Initialization.

          Date     :  20200805, Time     :  181618.995
------------------------------------------------------------

  Initializing index lists of integration centers etc. from given atomic structure:
  | Number of centers in hartree potential         :        13
  | Number of centers in hartree multipole         :        13
  | Number of centers in electron density summation:        13
  | Number of centers in basis integrals           :        13
  | Number of centers in integrals                 :        13
  | Number of centers in hamiltonian               :        13
  Partitioning the integration grid into batches with parallel hashing+maxmin method.
  | Number of batches:      961
  | Maximal batch size:     139
  | Minimal batch size:      66
  | Average batch size:      72.472
  | Standard deviation of batch sizes:      16.870

  Integration load balanced across     1 MPI tasks.
  Work distribution over tasks is as follows:
  Task     0 has      69646 integration points.
  Initializing partition tables, free-atom densities, potentials, etc. across the integration grid (initialize_grid_storage).
  | initialize_grid_storage: Actual outermost partition radius vs. multipole_radius_free
  | (-- VB: in principle, multipole_radius_free should be larger, hence this output)
  | Species        1: Confinement radius =              4.999999999999999 AA, multipole_radius_free =              5.054417573612229 AA.
  | Species        1: outer_partition_radius set to              5.054417573612229 AA .
  | Species        2: Confinement radius =              4.999999999999999 AA, multipole_radius_free =              5.019602836301480 AA.
  | Species        2: outer_partition_radius set to              5.019602836301480 AA .
  | Species        3: Confinement radius =              4.999999999999999 AA, multipole_radius_free =              5.043624274424571 AA.
  | Species        3: outer_partition_radius set to              5.043624274424571 AA .
  | Species        4: Confinement radius =              4.999999999999999 AA, multipole_radius_free =              5.048384829883283 AA.
  | Species        4: outer_partition_radius set to              5.048384829883283 AA .
  | Original list of interatomic distances with          13 x         13 entries is created.
  | Net number of integration points:    69646
  | of which are non-zero points    :    59556
  Renormalizing the initial density to the exact electron count on the 3D integration grid.
  | Initial density: Formal number of electrons (from input files) :      48.0000000000
  | Integrated number of electrons on 3D grid     :      47.9999266481
  | Charge integration error                      :      -0.0000733519
  | Normalization factor for density and gradient :       1.0000015282
  Obtaining max. number of non-zero basis functions in each batch (get_n_compute_maxes).
  | Maximal number of non-zero basis functions:      119 in task     0
  Selecting the method for density update.
  Loop over occupied states selected for charge density update.
  Allocating        0.050 MB for KS_eigenvector
  Integrating Hamiltonian matrix: batch-based integration.
  Time summed over all CPUs for integration: real work        0.490 s, elapsed        0.490 s
  Integrating overlap matrix.
  Time summed over all CPUs for integration: real work        0.210 s, elapsed        0.210 s

  Updating Kohn-Sham eigenvalues and eigenvectors using ELSI and the ELPA eigensolver.
  Overlap matrix is nonsingular
  | Lowest eigenvalue of overlap  :  0.58E-02
  | Highest eigenvalue of overlap :  0.62E+01
  Finished singularity check of overlap matrix
  | Time :     0.002 s
  Finished Cholesky decomposition
  | Time :     0.000 s
  Finished transformation to standard eigenproblem
  | Time :     0.000 s
  Starting LAPACK eigensolver
  Finished solving standard eigenproblem
  | Time :     0.002 s
  Finished back-transformation of eigenvectors
  | Time :     0.000 s

  Obtaining occupation numbers and chemical potential using ELSI.
  | Chemical potential (Fermi level):    -8.90186864eV
  Writing Kohn-Sham eigenvalues.

  State    Occupation    Eigenvalue [Ha]    Eigenvalue [eV]
      1       2.00000         -19.007661         -517.22476
      2       2.00000         -18.978086         -516.42000
      3       2.00000         -14.245790         -387.64767
      4       2.00000         -10.166793         -276.65250
      5       2.00000         -10.141240         -275.95719
      6       2.00000         -10.131969         -275.70490
      7       2.00000          -1.187353          -32.30953
      8       2.00000          -1.093473          -29.75492
      9       2.00000          -0.992168          -26.99827
     10       2.00000          -0.858492          -23.36076
     11       2.00000          -0.763632          -20.77948
     12       2.00000          -0.680309          -18.51216
     13       2.00000          -0.622775          -16.94658
     14       2.00000          -0.602091          -16.38373
     15       2.00000          -0.586892          -15.97014
     16       2.00000          -0.558962          -15.21012
     17       2.00000          -0.552505          -15.03441
     18       2.00000          -0.539016          -14.66738
     19       2.00000          -0.520445          -14.16202
     20       2.00000          -0.503743          -13.70755
     21       2.00000          -0.466394          -12.69123
     22       2.00000          -0.428514          -11.66046
     23       2.00000          -0.402900          -10.96346
     24       2.00000          -0.390813          -10.63456
     25       0.00000          -0.153149           -4.16740
     26       0.00000          -0.059547           -1.62035
     27       0.00000          -0.027639           -0.75209
     28       0.00000          -0.020840           -0.56709
     29       0.00000          -0.003215           -0.08749
     30       0.00000           0.008810            0.23972
     31       0.00000           0.021908            0.59614
     32       0.00000           0.043497            1.18361
     33       0.00000           0.047293            1.28692
     34       0.00000           0.054028            1.47018
     35       0.00000           0.076790            2.08955
     36       0.00000           0.134786            3.66770
     37       0.00000           0.152420            4.14756
     38       0.00000           0.202518            5.51079
     39       0.00000           0.209698            5.70618
     40       0.00000           0.221431            6.02543
     41       0.00000           0.263820            7.17890
     42       0.00000           0.274716            7.47539
     43       0.00000           0.292780            7.96695
     44       0.00000           0.315636            8.58890
     45       0.00000           0.327024            8.89878
     46       0.00000           0.343386            9.34401
     47       0.00000           0.351594            9.56737
     48       0.00000           0.379800           10.33488
     49       0.00000           0.452555           12.31464
     50       0.00000           0.479899           13.05872
     51       0.00000           0.520420           14.16134
     52       0.00000           0.532750           14.49686
     53       0.00000           0.591577           16.09762

  Highest occupied state (VBM) at    -10.63455552 eV
  | Occupation number:      2.00000000

  Lowest unoccupied state (CBM) at    -4.16740392 eV
  | Occupation number:      0.00000000

  Overall HOMO-LUMO gap:      6.46715161 eV.
  Calculating total energy contributions from superposition of free atom densities.

  Total energy components:
  | Sum of eigenvalues            :        -188.84403177 Ha       -5138.70755916 eV
  | XC energy correction          :         -41.78642471 Ha       -1137.06646960 eV
  | XC potential correction       :          53.71684138 Ha        1461.70962484 eV
  | Free-atom electrostatic energy:        -146.85660451 Ha       -3996.17153164 eV
  | Hartree energy correction     :           0.00000000 Ha           0.00000000 eV
  | vdW energy correction         :           0.00000000 Ha           0.00000000 eV
  | Entropy correction            :           0.00000000 Ha           0.00000000 eV
  | ---------------------------
  | Total energy                  :        -323.77021961 Ha       -8810.23593555 eV
  | Total energy, T -> 0          :        -323.77021961 Ha       -8810.23593555 eV  <-- do not rely on this value for anything but (periodic) metals
  | Electronic free energy        :        -323.77021961 Ha       -8810.23593555 eV

  Derived energy quantities:
  | Kinetic energy                :         320.48204814 Ha        8720.76023718 eV
  | Electrostatic energy          :        -602.46584304 Ha      -16393.92970313 eV
  | Energy correction for multipole
  | error in Hartree potential    :           0.00000000 Ha           0.00000000 eV
  | Sum of eigenvalues per atom                           :        -395.28519686 eV
  | Total energy (T->0) per atom                          :        -677.71045658 eV  <-- do not rely on this value for anything but (periodic) metals
  | Electronic free energy per atom                       :        -677.71045658 eV
  Initialize hartree_potential_storage
  Max. number of atoms included in rho_multipole:           13

  End scf initialization - timings             :  max(cpu_time)    wall_clock(cpu1)
  | Time for scf. initialization               :        1.140 s           1.141 s
  | Boundary condition initialization          :        0.000 s           0.000 s
  | Integration                                :        0.700 s           0.701 s
  | Solution of K.-S. eqns.                    :        0.004 s           0.004 s
  | Grid partitioning                          :        0.110 s           0.110 s
  | Preloading free-atom quantities on grid    :        0.002 s           0.003 s
  | Free-atom superposition energy             :        0.084 s           0.084 s
  | Total energy evaluation                    :        0.000 s           0.000 s

  Partial memory accounting:
  | Current value for overall tracked memory usage on task 0  :           0.165 MB
  | Peak value for overall tracked memory usage on task 0     :           0.678 MB after allocating wave
  | Largest tracked array allocation on task 0 so far         :           0.132 MB  when allocating H_times_psi
  Note:  These values currently only include a subset of arrays which are explicitly tracked.
  The "true" memory usage will be greater.
------------------------------------------------------------

------------------------------------------------------------
          Begin self-consistency iteration #    1

  Date     :  20200805, Time     :  181620.136
------------------------------------------------------------
  Evaluating new KS density.
  Integration grid: deviation in total charge (<rho> - N_e) =   3.552714E-14
  Pulay mixing of updated and previous charge densities.

  Evaluating partitioned Hartree potential by multipole expansion.
  | Analytical far-field extrapolation by fixed multipoles:
  | Hartree multipole sum: apparent total charge =  -0.185282E-03
  Summing up the Hartree potential.
  Time summed over all CPUs for potential: real work        0.283 s, elapsed        0.283 s
  | RMS charge density error from multipole expansion :   0.589842E-02

  Integrating Hamiltonian matrix: batch-based integration.
  Time summed over all CPUs for integration: real work        0.495 s, elapsed        0.495 s

  Updating Kohn-Sham eigenvalues and eigenvectors using ELSI and the ELPA eigensolver.
  Finished Cholesky decomposition
  | Time :     0.000 s
  Finished transformation to standard eigenproblem
  | Time :     0.000 s
  Starting LAPACK eigensolver
  Finished solving standard eigenproblem
  | Time :     0.002 s
  Finished back-transformation of eigenvectors
  | Time :     0.000 s

  Obtaining occupation numbers and chemical potential using ELSI.
  | Chemical potential (Fermi level):    -7.72945222eV
  Writing Kohn-Sham eigenvalues.

  State    Occupation    Eigenvalue [Ha]    Eigenvalue [eV]
      1       2.00000         -18.903283         -514.38450
      2       2.00000         -18.838769         -512.62898
      3       2.00000         -14.094482         -383.53037
      4       2.00000         -10.115614         -275.25987
      5       2.00000         -10.061890         -273.79796
      6       2.00000         -10.031879         -272.98133
      7       2.00000          -1.137668          -30.95751
      8       2.00000          -1.030992          -28.05472
      9       2.00000          -0.920912          -25.05929
     10       2.00000          -0.792447          -21.56359
     11       2.00000          -0.712935          -19.39995
     12       2.00000          -0.632221          -17.20361
     13       2.00000          -0.568077          -15.45817
     14       2.00000          -0.538066          -14.64151
     15       2.00000          -0.529439          -14.40676
     16       2.00000          -0.499022          -13.57908
     17       2.00000          -0.489773          -13.32741
     18       2.00000          -0.476840          -12.97548
     19       2.00000          -0.464754          -12.64659
     20       2.00000          -0.444054          -12.08333
     21       2.00000          -0.413656          -11.25615
     22       2.00000          -0.368184          -10.01879
     23       2.00000          -0.332215           -9.04002
     24       2.00000          -0.313331           -8.52618
     25       0.00000          -0.116476           -3.16948
     26       0.00000          -0.033430           -0.90966
     27       0.00000          -0.001263           -0.03437
     28       0.00000           0.017360            0.47238
     29       0.00000           0.026345            0.71687
     30       0.00000           0.045414            1.23578
     31       0.00000           0.057911            1.57585
     32       0.00000           0.081880            2.22808
     33       0.00000           0.090049            2.45037
     34       0.00000           0.096385            2.62278
     35       0.00000           0.118446            3.22309
     36       0.00000           0.162084            4.41054
     37       0.00000           0.178479            4.85665
     38       0.00000           0.230124            6.26200
     39       0.00000           0.239016            6.50395
     40       0.00000           0.260669            7.09316
     41       0.00000           0.296744            8.07480
     42       0.00000           0.310373            8.44567
     43       0.00000           0.330061            8.98141
     44       0.00000           0.352353            9.58800
     45       0.00000           0.366073            9.96134
     46       0.00000           0.382478           10.40775
     47       0.00000           0.389860           10.60863
     48       0.00000           0.418515           11.38836
     49       0.00000           0.492815           13.41017
     50       0.00000           0.511826           13.92750
     51       0.00000           0.561215           15.27144
     52       0.00000           0.566753           15.42213
     53       0.00000           0.631648           17.18801

  Highest occupied state (VBM) at     -8.52617567 eV
  | Occupation number:      2.00000000

  Lowest unoccupied state (CBM) at    -3.16947788 eV
  | Occupation number:      0.00000000

  Overall HOMO-LUMO gap:      5.35669780 eV.

  Total energy components:
  | Sum of eigenvalues            :        -185.42100555 Ha       -5045.56227647 eV
  | XC energy correction          :         -42.11517218 Ha       -1146.01214341 eV
  | XC potential correction       :          54.14442706 Ha        1473.34482325 eV
  | Free-atom electrostatic energy:        -146.85660451 Ha       -3996.17153164 eV
  | Hartree energy correction     :          -3.34033351 Ha         -90.89509959 eV
  | vdW energy correction         :           0.00000000 Ha           0.00000000 eV
  | Entropy correction            :           0.00000000 Ha           0.00000000 eV
  | ---------------------------
  | Total energy                  :        -323.58868869 Ha       -8805.29622786 eV
  | Total energy, T -> 0          :        -323.58868869 Ha       -8805.29622786 eV  <-- do not rely on this value for anything but (periodic) metals
  | Electronic free energy        :        -323.58868869 Ha       -8805.29622786 eV

  Derived energy quantities:
  | Kinetic energy                :         322.27267641 Ha        8769.48571176 eV
  | Electrostatic energy          :        -603.74619293 Ha      -16428.76979622 eV
  | Energy correction for multipole
  | error in Hartree potential    :           0.01203338 Ha           0.32744491 eV
  | Sum of eigenvalues per atom                           :        -388.12017511 eV
  | Total energy (T->0) per atom                          :        -677.33047907 eV  <-- do not rely on this value for anything but (periodic) metals
  | Electronic free energy per atom                       :        -677.33047907 eV

  Self-consistency convergence accuracy:
  | Change of charge density      :  0.5826E+00
  | Change of sum of eigenvalues  :  0.9315E+02 eV
  | Change of total energy        :  0.4940E+01 eV

  End self-consistency iteration #     1       :  max(cpu_time)    wall_clock(cpu1)
  | Time for this iteration                    :        1.189 s           1.190 s
  | Charge density update                      :        0.393 s           0.394 s
  | Density mixing                             :        0.006 s           0.005 s
  | Hartree multipole update                   :        0.009 s           0.009 s
  | Hartree multipole summation                :        0.284 s           0.284 s
  | Integration                                :        0.495 s           0.495 s
  | Solution of K.-S. eqns.                    :        0.002 s           0.003 s
  | Total energy evaluation                    :        0.000 s           0.000 s

  Partial memory accounting:
  | Current value for overall tracked memory usage on task 0  :           0.165 MB
  | Peak value for overall tracked memory usage on task 0     :           0.695 MB after allocating gradient_basis_wave
  | Largest tracked array allocation on task 0 so far         :           0.397 MB  when allocating gradient_basis_wave
  Note:  These values currently only include a subset of arrays which are explicitly tracked.
  The "true" memory usage will be greater.
------------------------------------------------------------

------------------------------------------------------------
          Begin self-consistency iteration #    2

  Date     :  20200805, Time     :  181621.327
------------------------------------------------------------
  Evaluating new KS density.
  Integration grid: deviation in total charge (<rho> - N_e) =  -4.973799E-14
  Pulay mixing of updated and previous charge densities.

  Evaluating partitioned Hartree potential by multipole expansion.
  | Analytical far-field extrapolation by fixed multipoles:
  | Hartree multipole sum: apparent total charge =  -0.329186E-03
  Summing up the Hartree potential.
  Time summed over all CPUs for potential: real work        0.281 s, elapsed        0.281 s
  | RMS charge density error from multipole expansion :   0.141146E-01

  Integrating Hamiltonian matrix: batch-based integration.
  Time summed over all CPUs for integration: real work        0.492 s, elapsed        0.492 s

  Updating Kohn-Sham eigenvalues and eigenvectors using ELSI and the ELPA eigensolver.
  Finished Cholesky decomposition
  | Time :     0.000 s
  Finished transformation to standard eigenproblem
  | Time :     0.000 s
  Starting LAPACK eigensolver
  Finished solving standard eigenproblem
  | Time :     0.002 s
  Finished back-transformation of eigenvectors
  | Time :     0.000 s

  Obtaining occupation numbers and chemical potential using ELSI.
  | Chemical potential (Fermi level):    -2.18855450eV
  Highest occupied state (VBM) at     -6.37976077 eV
  | Occupation number:      2.00000000

  Lowest unoccupied state (CBM) at    -1.90160431 eV
  | Occupation number:      0.00000000

  Overall HOMO-LUMO gap:      4.47815647 eV.

  Checking to see if s.c.f. parameters should be adjusted.

  Total energy components:
  | Sum of eigenvalues            :        -181.79980048 Ha       -4947.02427278 eV
  | XC energy correction          :         -42.47851687 Ha       -1155.89925559 eV
  | XC potential correction       :          54.61545966 Ha        1486.16227239 eV
  | Free-atom electrostatic energy:        -146.85660451 Ha       -3996.17153164 eV
  | Hartree energy correction     :          -6.99078630 Ha        -190.22897400 eV
  | vdW energy correction         :           0.00000000 Ha           0.00000000 eV
  | Entropy correction            :           0.00000000 Ha           0.00000000 eV
  | ---------------------------
  | Total energy                  :        -323.51024850 Ha       -8803.16176161 eV
  | Total energy, T -> 0          :        -323.51024850 Ha       -8803.16176161 eV  <-- do not rely on this value for anything but (periodic) metals
  | Electronic free energy        :        -323.51024850 Ha       -8803.16176161 eV

  Derived energy quantities:
  | Kinetic energy                :         323.60489598 Ha        8805.73725053 eV
  | Electrostatic energy          :        -604.63662761 Ha      -16452.99975656 eV
  | Energy correction for multipole
  | error in Hartree potential    :           0.02684947 Ha           0.73061138 eV
  | Sum of eigenvalues per atom                           :        -380.54032868 eV
  | Total energy (T->0) per atom                          :        -677.16628935 eV  <-- do not rely on this value for anything but (periodic) metals
  | Electronic free energy per atom                       :        -677.16628935 eV

  Self-consistency convergence accuracy:
  | Change of charge density      :  0.3635E+00
  | Change of sum of eigenvalues  :  0.9854E+02 eV
  | Change of total energy        :  0.2134E+01 eV

  End self-consistency iteration #     2       :  max(cpu_time)    wall_clock(cpu1)
  | Time for this iteration                    :        1.175 s           1.175 s
  | Charge density update                      :        0.384 s           0.384 s
  | Density mixing                             :        0.007 s           0.006 s
  | Hartree multipole update                   :        0.009 s           0.008 s
  | Hartree multipole summation                :        0.281 s           0.281 s
  | Integration                                :        0.492 s           0.493 s
  | Solution of K.-S. eqns.                    :        0.002 s           0.002 s
  | Total energy evaluation                    :        0.000 s           0.000 s

  Partial memory accounting:
  | Current value for overall tracked memory usage on task 0  :           0.166 MB
  | Peak value for overall tracked memory usage on task 0     :           0.695 MB after allocating gradient_basis_wave
  | Largest tracked array allocation on task 0 so far         :           0.397 MB  when allocating gradient_basis_wave
  Note:  These values currently only include a subset of arrays which are explicitly tracked.
  The "true" memory usage will be greater.
------------------------------------------------------------

------------------------------------------------------------
          Begin self-consistency iteration #    3

  Date     :  20200805, Time     :  181622.503
------------------------------------------------------------
  Evaluating new KS density.
  Integration grid: deviation in total charge (<rho> - N_e) =   4.263256E-14
  Pulay mixing of updated and previous charge densities.

  Evaluating partitioned Hartree potential by multipole expansion.
  | Analytical far-field extrapolation by fixed multipoles:
  | Hartree multipole sum: apparent total charge =  -0.430520E-03
  Summing up the Hartree potential.
  Time summed over all CPUs for potential: real work        0.281 s, elapsed        0.281 s
  | RMS charge density error from multipole expansion :   0.224677E-01

  Integrating Hamiltonian matrix: batch-based integration.
  Time summed over all CPUs for integration: real work        0.494 s, elapsed        0.494 s

  Updating Kohn-Sham eigenvalues and eigenvectors using ELSI and the ELPA eigensolver.
  Finished Cholesky decomposition
  | Time :     0.000 s
  Finished transformation to standard eigenproblem
  | Time :     0.000 s
  Starting LAPACK eigensolver
  Finished solving standard eigenproblem
  | Time :     0.001 s
  Finished back-transformation of eigenvectors
  | Time :     0.000 s

  Obtaining occupation numbers and chemical potential using ELSI.
  | Chemical potential (Fermi level):    -5.61835986eV
  Highest occupied state (VBM) at     -5.71185505 eV
  | Occupation number:      2.00000000

  Lowest unoccupied state (CBM) at    -1.21866286 eV
  | Occupation number:      0.00000000

  Overall HOMO-LUMO gap:      4.49319219 eV.

  Total energy components:
  | Sum of eigenvalues            :        -180.54983103 Ha       -4913.01087347 eV
  | XC energy correction          :         -42.62605700 Ha       -1159.91402677 eV
  | XC potential correction       :          54.80334360 Ha        1491.27485453 eV
  | Free-atom electrostatic energy:        -146.85660451 Ha       -3996.17153164 eV
  | Hartree energy correction     :          -8.26885599 Ha        -225.00701973 eV
  | vdW energy correction         :           0.00000000 Ha           0.00000000 eV
  | Entropy correction            :          -0.00000000 Ha          -0.00000000 eV
  | ---------------------------
  | Total energy                  :        -323.49800493 Ha       -8802.82859707 eV
  | Total energy, T -> 0          :        -323.49800493 Ha       -8802.82859707 eV  <-- do not rely on this value for anything but (periodic) metals
  | Electronic free energy        :        -323.49800493 Ha       -8802.82859707 eV

  Derived energy quantities:
  | Kinetic energy                :         323.13002234 Ha        8792.81528137 eV
  | Electrostatic energy          :        -604.00197027 Ha      -16435.72985168 eV
  | Energy correction for multipole
  | error in Hartree potential    :           0.03855889 Ha           1.04924071 eV
  | Sum of eigenvalues per atom                           :        -377.92391334 eV
  | Total energy (T->0) per atom                          :        -677.14066131 eV  <-- do not rely on this value for anything but (periodic) metals
  | Electronic free energy per atom                       :        -677.14066131 eV

  Self-consistency convergence accuracy:
  | Change of charge density      :  0.2018E+00
  | Change of sum of eigenvalues  :  0.3401E+02 eV
  | Change of total energy        :  0.3332E+00 eV

  End self-consistency iteration #     3       :  max(cpu_time)    wall_clock(cpu1)
  | Time for this iteration                    :        1.178 s           1.179 s
  | Charge density update                      :        0.383 s           0.383 s
  | Density mixing                             :        0.008 s           0.008 s
  | Hartree multipole update                   :        0.009 s           0.008 s
  | Hartree multipole summation                :        0.281 s           0.282 s
  | Integration                                :        0.494 s           0.494 s
  | Solution of K.-S. eqns.                    :        0.002 s           0.002 s
  | Total energy evaluation                    :        0.000 s           0.001 s

  Partial memory accounting:
  | Current value for overall tracked memory usage on task 0  :           0.166 MB
  | Peak value for overall tracked memory usage on task 0     :           0.695 MB after allocating gradient_basis_wave
  | Largest tracked array allocation on task 0 so far         :           0.397 MB  when allocating gradient_basis_wave
  Note:  These values currently only include a subset of arrays which are explicitly tracked.
  The "true" memory usage will be greater.
------------------------------------------------------------

------------------------------------------------------------
          Begin self-consistency iteration #    4

  Date     :  20200805, Time     :  181623.682
------------------------------------------------------------
  Evaluating new KS density.
  Integration grid: deviation in total charge (<rho> - N_e) =   1.421085E-14
  Pulay mixing of updated and previous charge densities.

  Evaluating partitioned Hartree potential by multipole expansion.
  | Analytical far-field extrapolation by fixed multipoles:
  | Hartree multipole sum: apparent total charge =  -0.462108E-03
  Summing up the Hartree potential.
  Time summed over all CPUs for potential: real work        0.281 s, elapsed        0.281 s
  | RMS charge density error from multipole expansion :   0.257010E-01

  Integrating Hamiltonian matrix: batch-based integration.
  Time summed over all CPUs for integration: real work        0.492 s, elapsed        0.492 s

  Updating Kohn-Sham eigenvalues and eigenvectors using ELSI and the ELPA eigensolver.
  Finished Cholesky decomposition
  | Time :     0.000 s
  Finished transformation to standard eigenproblem
  | Time :     0.000 s
  Starting LAPACK eigensolver
  Finished solving standard eigenproblem
  | Time :     0.001 s
  Finished back-transformation of eigenvectors
  | Time :     0.000 s

  Obtaining occupation numbers and chemical potential using ELSI.
  | Chemical potential (Fermi level):    -1.38830000eV
  Highest occupied state (VBM) at     -5.54780493 eV
  | Occupation number:      2.00000000

  Lowest unoccupied state (CBM) at    -1.14465132 eV
  | Occupation number:      0.00000000

  Overall HOMO-LUMO gap:      4.40315361 eV.

  Total energy components:
  | Sum of eigenvalues            :        -180.39816918 Ha       -4908.88394470 eV
  | XC energy correction          :         -42.66322998 Ha       -1160.92555491 eV
  | XC potential correction       :          54.85023614 Ha        1492.55086543 eV
  | Free-atom electrostatic energy:        -146.85660451 Ha       -3996.17153164 eV
  | Hartree energy correction     :          -8.42947691 Ha        -229.37773746 eV
  | vdW energy correction         :           0.00000000 Ha           0.00000000 eV
  | Entropy correction            :          -0.00000000 Ha          -0.00000000 eV
  | ---------------------------
  | Total energy                  :        -323.49724444 Ha       -8802.80790327 eV
  | Total energy, T -> 0          :        -323.49724444 Ha       -8802.80790327 eV  <-- do not rely on this value for anything but (periodic) metals
  | Electronic free energy        :        -323.49724444 Ha       -8802.80790327 eV

  Derived energy quantities:
  | Kinetic energy                :         322.78857182 Ha        8783.52393992 eV
  | Electrostatic energy          :        -603.62258629 Ha      -16425.40628829 eV
  | Energy correction for multipole
  | error in Hartree potential    :           0.04271652 Ha           1.16237561 eV
  | Sum of eigenvalues per atom                           :        -377.60645728 eV
  | Total energy (T->0) per atom                          :        -677.13906948 eV  <-- do not rely on this value for anything but (periodic) metals
  | Electronic free energy per atom                       :        -677.13906948 eV

  Self-consistency convergence accuracy:
  | Change of charge density      :  0.5955E-01
  | Change of sum of eigenvalues  :  0.4127E+01 eV
  | Change of total energy        :  0.2069E-01 eV

  End self-consistency iteration #     4       :  max(cpu_time)    wall_clock(cpu1)
  | Time for this iteration                    :        1.177 s           1.179 s
  | Charge density update                      :        0.384 s           0.384 s
  | Density mixing                             :        0.009 s           0.010 s
  | Hartree multipole update                   :        0.009 s           0.008 s
  | Hartree multipole summation                :        0.281 s           0.281 s
  | Integration                                :        0.492 s           0.492 s
  | Solution of K.-S. eqns.                    :        0.002 s           0.002 s
  | Total energy evaluation                    :        0.000 s           0.001 s

  Partial memory accounting:
  | Current value for overall tracked memory usage on task 0  :           0.166 MB
  | Peak value for overall tracked memory usage on task 0     :           0.696 MB after allocating gradient_basis_wave
  | Largest tracked array allocation on task 0 so far         :           0.397 MB  when allocating gradient_basis_wave
  Note:  These values currently only include a subset of arrays which are explicitly tracked.
  The "true" memory usage will be greater.
------------------------------------------------------------

------------------------------------------------------------
          Begin self-consistency iteration #    5

  Date     :  20200805, Time     :  181624.861
------------------------------------------------------------
  Evaluating new KS density.
  Integration grid: deviation in total charge (<rho> - N_e) =  -1.421085E-14
  Pulay mixing of updated and previous charge densities.

  Evaluating partitioned Hartree potential by multipole expansion.
  | Analytical far-field extrapolation by fixed multipoles:
  | Hartree multipole sum: apparent total charge =  -0.455731E-03
  Summing up the Hartree potential.
  Time summed over all CPUs for potential: real work        0.281 s, elapsed        0.281 s
  | RMS charge density error from multipole expansion :   0.254352E-01

  Integrating Hamiltonian matrix: batch-based integration.
  Time summed over all CPUs for integration: real work        0.493 s, elapsed        0.493 s

  Updating Kohn-Sham eigenvalues and eigenvectors using ELSI and the ELPA eigensolver.
  Finished Cholesky decomposition
  | Time :     0.000 s
  Finished transformation to standard eigenproblem
  | Time :     0.000 s
  Starting LAPACK eigensolver
  Finished solving standard eigenproblem
  | Time :     0.002 s
  Finished back-transformation of eigenvectors
  | Time :     0.000 s

  Obtaining occupation numbers and chemical potential using ELSI.
  | Chemical potential (Fermi level):    -1.45788336eV
  Highest occupied state (VBM) at     -5.62703733 eV
  | Occupation number:      2.00000000

  Lowest unoccupied state (CBM) at    -1.22698058 eV
  | Occupation number:      0.00000000

  Overall HOMO-LUMO gap:      4.40005675 eV.

  Total energy components:
  | Sum of eigenvalues            :        -180.58574432 Ha       -4913.98812403 eV
  | XC energy correction          :         -42.64032720 Ha       -1160.30233873 eV
  | XC potential correction       :          54.82053746 Ha        1491.74272336 eV
  | Free-atom electrostatic energy:        -146.85660451 Ha       -3996.17153164 eV
  | Hartree energy correction     :          -8.23481024 Ha        -224.08058786 eV
  | vdW energy correction         :           0.00000000 Ha           0.00000000 eV
  | Entropy correction            :          -0.00000000 Ha          -0.00000000 eV
  | ---------------------------
  | Total energy                  :        -323.49694882 Ha       -8802.79985889 eV
  | Total energy, T -> 0          :        -323.49694882 Ha       -8802.79985889 eV  <-- do not rely on this value for anything but (periodic) metals
  | Electronic free energy        :        -323.49694882 Ha       -8802.79985889 eV

  Derived energy quantities:
  | Kinetic energy                :         322.68862074 Ha        8780.80413284 eV
  | Electrostatic energy          :        -603.54524236 Ha      -16423.30165300 eV
  | Energy correction for multipole
  | error in Hartree potential    :           0.04209954 Ha           1.14558669 eV
  | Sum of eigenvalues per atom                           :        -377.99908646 eV
  | Total energy (T->0) per atom                          :        -677.13845068 eV  <-- do not rely on this value for anything but (periodic) metals
  | Electronic free energy per atom                       :        -677.13845068 eV

  Self-consistency convergence accuracy:
  | Change of charge density      :  0.2017E-01
  | Change of sum of eigenvalues  : -0.5104E+01 eV
  | Change of total energy        :  0.8044E-02 eV

  End self-consistency iteration #     5       :  max(cpu_time)    wall_clock(cpu1)
  | Time for this iteration                    :        1.179 s           1.180 s
  | Charge density update                      :        0.383 s           0.384 s
  | Density mixing                             :        0.011 s           0.010 s
  | Hartree multipole update                   :        0.009 s           0.009 s
  | Hartree multipole summation                :        0.281 s           0.281 s
  | Integration                                :        0.493 s           0.494 s
  | Solution of K.-S. eqns.                    :        0.002 s           0.002 s
  | Total energy evaluation                    :        0.000 s           0.000 s

  Partial memory accounting:
  | Current value for overall tracked memory usage on task 0  :           0.166 MB
  | Peak value for overall tracked memory usage on task 0     :           0.696 MB after allocating gradient_basis_wave
  | Largest tracked array allocation on task 0 so far         :           0.397 MB  when allocating gradient_basis_wave
  Note:  These values currently only include a subset of arrays which are explicitly tracked.
  The "true" memory usage will be greater.
------------------------------------------------------------

------------------------------------------------------------
          Begin self-consistency iteration #    6

  Date     :  20200805, Time     :  181626.042
------------------------------------------------------------
  Evaluating new KS density.
  Integration grid: deviation in total charge (<rho> - N_e) =   5.684342E-14
  Pulay mixing of updated and previous charge densities.

  Evaluating partitioned Hartree potential by multipole expansion.
  | Analytical far-field extrapolation by fixed multipoles:
  | Hartree multipole sum: apparent total charge =  -0.458385E-03
  Summing up the Hartree potential.
  Time summed over all CPUs for potential: real work        0.282 s, elapsed        0.282 s
  | RMS charge density error from multipole expansion :   0.258046E-01

  Integrating Hamiltonian matrix: batch-based integration.
  Time summed over all CPUs for integration: real work        0.494 s, elapsed        0.494 s

  Updating Kohn-Sham eigenvalues and eigenvectors using ELSI and the ELPA eigensolver.
  Finished Cholesky decomposition
  | Time :     0.000 s
  Finished transformation to standard eigenproblem
  | Time :     0.000 s
  Starting LAPACK eigensolver
  Finished solving standard eigenproblem
  | Time :     0.001 s
  Finished back-transformation of eigenvectors
  | Time :     0.000 s

  Obtaining occupation numbers and chemical potential using ELSI.
  | Chemical potential (Fermi level):    -1.46562842eV
  Highest occupied state (VBM) at     -5.60137782 eV
  | Occupation number:      2.00000000

  Lowest unoccupied state (CBM) at    -1.24565581 eV
  | Occupation number:      0.00000000

  Overall HOMO-LUMO gap:      4.35572201 eV.

  Total energy components:
  | Sum of eigenvalues            :        -180.60305296 Ha       -4914.45911599 eV
  | XC energy correction          :         -42.63721234 Ha       -1160.21757912 eV
  | XC potential correction       :          54.81647920 Ha        1491.63229232 eV
  | Free-atom electrostatic energy:        -146.85660451 Ha       -3996.17153164 eV
  | Hartree energy correction     :          -8.21650767 Ha        -223.58254957 eV
  | vdW energy correction         :           0.00000000 Ha           0.00000000 eV
  | Entropy correction            :          -0.00000000 Ha          -0.00000000 eV
  | ---------------------------
  | Total energy                  :        -323.49689829 Ha       -8802.79848400 eV
  | Total energy, T -> 0          :        -323.49689829 Ha       -8802.79848400 eV  <-- do not rely on this value for anything but (periodic) metals
  | Electronic free energy        :        -323.49689829 Ha       -8802.79848400 eV

  Derived energy quantities:
  | Kinetic energy                :         322.60764408 Ha        8778.60064569 eV
  | Electrostatic energy          :        -603.46733003 Ha      -16421.18155057 eV
  | Energy correction for multipole
  | error in Hartree potential    :           0.04241676 Ha           1.15421886 eV
  | Sum of eigenvalues per atom                           :        -378.03531661 eV
  | Total energy (T->0) per atom                          :        -677.13834492 eV  <-- do not rely on this value for anything but (periodic) metals
  | Electronic free energy per atom                       :        -677.13834492 eV

  Self-consistency convergence accuracy:
  | Change of charge density      :  0.1019E-01
  | Change of sum of eigenvalues  : -0.4710E+00 eV
  | Change of total energy        :  0.1375E-02 eV

  End self-consistency iteration #     6       :  max(cpu_time)    wall_clock(cpu1)
  | Time for this iteration                    :        1.182 s           1.183 s
  | Charge density update                      :        0.384 s           0.383 s
  | Density mixing                             :        0.012 s           0.012 s
  | Hartree multipole update                   :        0.009 s           0.009 s
  | Hartree multipole summation                :        0.282 s           0.282 s
  | Integration                                :        0.494 s           0.494 s
  | Solution of K.-S. eqns.                    :        0.002 s           0.002 s
  | Total energy evaluation                    :        0.000 s           0.000 s

  Partial memory accounting:
  | Current value for overall tracked memory usage on task 0  :           0.166 MB
  | Peak value for overall tracked memory usage on task 0     :           0.696 MB after allocating gradient_basis_wave
  | Largest tracked array allocation on task 0 so far         :           0.397 MB  when allocating gradient_basis_wave
  Note:  These values currently only include a subset of arrays which are explicitly tracked.
  The "true" memory usage will be greater.
------------------------------------------------------------

------------------------------------------------------------
          Begin self-consistency iteration #    7

  Date     :  20200805, Time     :  181627.225
------------------------------------------------------------
  Evaluating new KS density.
  Integration grid: deviation in total charge (<rho> - N_e) =   1.421085E-14
  Pulay mixing of updated and previous charge densities.

  Evaluating partitioned Hartree potential by multipole expansion.
  | Analytical far-field extrapolation by fixed multipoles:
  | Hartree multipole sum: apparent total charge =  -0.459579E-03
  Summing up the Hartree potential.
  Time summed over all CPUs for potential: real work        0.282 s, elapsed        0.282 s
  | RMS charge density error from multipole expansion :   0.259524E-01

  Integrating Hamiltonian matrix: batch-based integration.
  Time summed over all CPUs for integration: real work        0.499 s, elapsed        0.499 s

  Updating Kohn-Sham eigenvalues and eigenvectors using ELSI and the ELPA eigensolver.
  Finished Cholesky decomposition
  | Time :     0.000 s
  Finished transformation to standard eigenproblem
  | Time :     0.000 s
  Starting LAPACK eigensolver
  Finished solving standard eigenproblem
  | Time :     0.002 s
  Finished back-transformation of eigenvectors
  | Time :     0.000 s

[...]
  |   Hirshfeld dipole moment :      0.06367870
  |   Hirshfeld second moments:      0.01506536      -0.01698898      -0.01418386
  |                                 -0.01698898      -0.01442503       0.00527075
  |                                 -0.01418386       0.00527075      -0.02231426
  ----------------------------------------------------------------------
  | Atom    12: O
  |   Hirshfeld charge        :     -0.14031527
  |   Free atom volume        :     23.61338643
  |   Hirshfeld volume        :     20.76611747
  |   Hirshfeld dipole vector :      0.00740770       0.00967979       0.03851585
  |   Hirshfeld dipole moment :      0.04039855
  |   Hirshfeld second moments:      0.08106080       0.01740416      -0.01962742
  |                                  0.01740416       0.07379692      -0.01403300
  |                                 -0.01962742      -0.01403300       0.03331347
  ----------------------------------------------------------------------
  | Atom    13: H
  |   Hirshfeld charge        :      0.17516847
  |   Free atom volume        :      9.95071624
  |   Hirshfeld volume        :      6.27321850
  |   Hirshfeld dipole vector :     -0.08266717      -0.05245151       0.06592495
  |   Hirshfeld dipole moment :      0.11803017
  |   Hirshfeld second moments:      0.11819269       0.00143035      -0.01149848
  |                                  0.00143035       0.12454204      -0.00037935
  |                                 -0.01149848      -0.00037935       0.08870398
  ----------------------------------------------------------------------


  Total energy components:
  | Sum of eigenvalues            :        -180.59783914 Ha       -4914.31724066 eV
  | XC energy correction          :         -42.63448313 Ha       -1160.14331338 eV
  | XC potential correction       :          54.81302318 Ha        1491.53824932 eV
  | Free-atom electrostatic energy:        -146.85660451 Ha       -3996.17153164 eV
  | Hartree energy correction     :          -8.22097156 Ha        -223.70401804 eV
  | vdW energy correction         :          -0.00318849 Ha          -0.08676330 eV
  | Entropy correction            :          -0.00000000 Ha          -0.00000000 eV
  | ---------------------------
  | Total energy                  :        -323.50006365 Ha       -8802.88461771 eV
  | Total energy, T -> 0          :        -323.50006365 Ha       -8802.88461771 eV  <-- do not rely on this value for anything but (periodic) metals
  | Electronic free energy        :        -323.50006365 Ha       -8802.88461771 eV

  Derived energy quantities:
  | Kinetic energy                :         322.56688177 Ha        8777.49144673 eV
  | Electrostatic energy          :        -603.42927379 Ha      -16420.14598776 eV
  | Energy correction for multipole
  | error in Hartree potential    :           0.04253529 Ha           1.15744421 eV
  | Sum of eigenvalues per atom                           :        -378.02440313 eV
  | Total energy (T->0) per atom                          :        -677.14497059 eV  <-- do not rely on this value for anything but (periodic) metals
  | Electronic free energy per atom                       :        -677.14497059 eV

  atomic forces [eV/Ang]:
  -----------------------
  atom #    1
   Hellmann-Feynman              :  0.462477E+00  0.526284E+00  0.572411E+00
   Ionic forces                  :  0.000000E+00  0.000000E+00  0.000000E+00
   Multipole                     : -0.173174E-01  0.440413E+00 -0.266247E+00
   Pulay + GGA                   : -0.100275E+01 -0.668612E+00 -0.108538E+01
   Van der Waals                 :  0.272432E-02  0.174923E-02 -0.189326E-02
   ----------------------------------------------------------------
   Total forces(   1)            : -0.554865E+00  0.299834E+00 -0.781110E+00
  atom #    2
   Hellmann-Feynman              :  0.285320E+00  0.412001E-01 -0.770359E-01
   Ionic forces                  :  0.000000E+00  0.000000E+00  0.000000E+00
   Multipole                     :  0.181043E+00  0.112381E-01 -0.239804E-01
   Pulay + GGA                   : -0.150107E+00 -0.112685E-01  0.101323E-01
   Van der Waals                 :  0.486120E-02 -0.609060E-02 -0.509949E-02
   ----------------------------------------------------------------
   Total forces(   2)            :  0.321117E+00  0.350791E-01 -0.959835E-01
  atom #    3
   Hellmann-Feynman              :  0.509171E+01 -0.977980E+01 -0.489597E+01
   Ionic forces                  :  0.000000E+00  0.000000E+00  0.000000E+00
   Multipole                     : -0.193673E+00  0.984175E-01 -0.904810E+00
   Pulay + GGA                   : -0.428301E+01  0.889594E+01  0.636768E+01
   Van der Waals                 :  0.243844E-02 -0.778180E-02 -0.600177E-02
   ----------------------------------------------------------------
   Total forces(   3)            :  0.617466E+00 -0.793232E+00  0.560895E+00
  atom #    4
   Hellmann-Feynman              : -0.175563E+00  0.244325E+00 -0.518974E-01
   Ionic forces                  :  0.000000E+00  0.000000E+00  0.000000E+00
   Multipole                     : -0.988210E-01  0.128851E-01 -0.512204E-01
   Pulay + GGA                   :  0.235565E+00 -0.886429E-01 -0.498924E-01
   Van der Waals                 : -0.125913E-02  0.280463E-03 -0.102150E-01
   ----------------------------------------------------------------
   Total forces(   4)            : -0.400783E-01  0.168847E+00 -0.163225E+00
  atom #    5
   Hellmann-Feynman              : -0.131218E+00  0.287033E+00  0.212754E-02
   Ionic forces                  :  0.000000E+00  0.000000E+00  0.000000E+00
   Multipole                     : -0.261527E-01  0.650656E-01 -0.781630E-01
   Pulay + GGA                   : -0.939587E-02 -0.228942E+00  0.319726E-01
   Van der Waals                 : -0.412456E-02 -0.580711E-02 -0.474713E-02
   ----------------------------------------------------------------
   Total forces(   5)            : -0.170891E+00  0.117349E+00 -0.488099E-01
  atom #    6
   Hellmann-Feynman              :  0.317516E+00 -0.103998E+01  0.851461E+00
   Ionic forces                  :  0.000000E+00  0.000000E+00  0.000000E+00
   Multipole                     : -0.128407E+00  0.643954E+00  0.191705E+00
   Pulay + GGA                   :  0.389575E-01 -0.948128E-01 -0.520510E+00
   Van der Waals                 : -0.165724E-02  0.967197E-02  0.767504E-02
   ----------------------------------------------------------------
   Total forces(   6)            :  0.226409E+00 -0.481166E+00  0.530331E+00
  atom #    7
   Hellmann-Feynman              : -0.230887E+00 -0.439996E-01 -0.458597E-01
   Ionic forces                  :  0.000000E+00  0.000000E+00  0.000000E+00
   Multipole                     : -0.120568E+00  0.472289E-01  0.319264E-01
   Pulay + GGA                   :  0.111049E+00  0.161208E-01  0.105798E-01
   Van der Waals                 : -0.134282E-02  0.509052E-02  0.724318E-02
   ----------------------------------------------------------------
   Total forces(   7)            : -0.241748E+00  0.244406E-01  0.388971E-02
  atom #    8
   Hellmann-Feynman              :  0.577310E-01  0.773475E-01  0.256042E+00
   Ionic forces                  :  0.000000E+00  0.000000E+00  0.000000E+00
   Multipole                     :  0.161779E-01  0.623324E-01  0.125422E+00
   Pulay + GGA                   : -0.428180E-01 -0.412521E-01 -0.101395E+00
   Van der Waals                 : -0.300398E-02  0.112446E-01  0.565069E-03
   ----------------------------------------------------------------
   Total forces(   8)            :  0.280869E-01  0.109672E+00  0.280635E+00
  atom #    9
   Hellmann-Feynman              :  0.118269E+00  0.222276E-01 -0.209044E+00
   Ionic forces                  :  0.000000E+00  0.000000E+00  0.000000E+00
   Multipole                     :  0.207532E-01  0.132968E+00 -0.517382E-02
   Pulay + GGA                   : -0.445464E-01 -0.750827E-01  0.734675E-01
   Van der Waals                 : -0.304004E-02  0.573239E-02  0.813607E-02
   ----------------------------------------------------------------
   Total forces(   9)            :  0.914353E-01  0.858453E-01 -0.132614E+00
  atom #   10
   Hellmann-Feynman              :  0.302955E+01  0.515209E+01  0.410628E+00
   Ionic forces                  :  0.000000E+00  0.000000E+00  0.000000E+00
   Multipole                     : -0.267680E-01 -0.252470E+00  0.301890E+00
   Pulay + GGA                   : -0.128194E+01 -0.299725E+01 -0.371728E+00
   Van der Waals                 :  0.513447E-02 -0.120129E-01 -0.106599E-03
   ----------------------------------------------------------------
   Total forces(  10)            :  0.172598E+01  0.189035E+01  0.340683E+00
  atom #   11
   Hellmann-Feynman              :  0.411601E+01 -0.226304E+01  0.141873E+02
   Ionic forces                  :  0.000000E+00  0.000000E+00  0.000000E+00
   Multipole                     :  0.521173E-01 -0.574340E+00  0.827256E+00
   Pulay + GGA                   : -0.357420E+01  0.358534E+01 -0.133837E+02
   Van der Waals                 : -0.341297E-02 -0.117700E-01  0.204204E-02
   ----------------------------------------------------------------
   Total forces(  11)            :  0.590514E+00  0.736192E+00  0.163292E+01
  atom #   12
   Hellmann-Feynman              : -0.298316E+01 -0.185228E+01 -0.159889E+02
   Ionic forces                  :  0.000000E+00  0.000000E+00  0.000000E+00
   Multipole                     : -0.660878E+00 -0.110321E+01 -0.761151E+00
   Pulay + GGA                   :  0.120366E+01  0.196373E+01  0.146548E+02
   Van der Waals                 :  0.152902E-02  0.338853E-02  0.617752E-02
   ----------------------------------------------------------------
   Total forces(  12)            : -0.243885E+01 -0.988371E+00 -0.208905E+01
  atom #   13
   Hellmann-Feynman              : -0.320030E+00 -0.133285E+01  0.142911E+00
   Ionic forces                  :  0.000000E+00  0.000000E+00  0.000000E+00
   Multipole                     : -0.496415E-01 -0.317888E-01  0.718815E-01
   Pulay + GGA                   :  0.210522E+00  0.151328E+00 -0.248740E+00
   Van der Waals                 :  0.115329E-02  0.630467E-02 -0.377563E-02
   ----------------------------------------------------------------
   Total forces(  13)            : -0.157996E+00 -0.120701E+01 -0.377237E-01

  Timings for VdW correction (Tkatchenko-Scheffler 2009 or later):
  | CPU time:        0.088 s, Wall clock time:        0.089 s.
  Removing unitary transformations (pure translations, rotations) from forces on atoms.
  Atomic forces before filtering:
  | Net force on center of mass :  -0.341894E-02 -0.216503E-02  0.837171E-03 eV/A
  | Net torque on center of mass:  -0.111299E-01  0.204475E-02 -0.242992E-02 eV
  Atomic forces after filtering:
  | Net force on center of mass :   0.401414E-15 -0.356812E-15 -0.624421E-15 eV/A
  | Net torque on center of mass:  -0.944085E-16 -0.696262E-15  0.708063E-15 eV

  Energy and forces in a compact form:
  | Total energy uncorrected      :         -0.880288461771371E+04 eV
  | Total energy corrected        :         -0.880288461771371E+04 eV  <-- do not rely on this value for anything but (periodic) metals
  | Electronic free energy        :         -0.880288461771371E+04 eV
  Total atomic forces (unitary forces cleaned) [eV/Ang]:
  |   1         -0.554596456954540E+00          0.300091054345114E+00         -0.781129305123175E+00
  |   2          0.321385691480353E+00          0.354301731181809E-01         -0.959385191056370E-01
  |   3          0.617817478909140E+00         -0.792640363478294E+00          0.560847518208950E+00
  |   4         -0.397182385475642E-01          0.169351684376315E+00         -0.163359260415942E+00
  |   5         -0.170590182003637E+00          0.118079041552362E+00         -0.486073730775661E-01
  |   6          0.226526608135196E+00         -0.481144819281027E+00          0.530618273997348E+00
  |   7         -0.241634362224505E+00          0.243636352464347E-01          0.412018733753241E-02
  |   8          0.281427360340384E-01          0.109450308549792E+00          0.280946561094399E+00
  |   9          0.915051241648480E-01          0.860315313914773E-01         -0.132066575201681E+00
  |  10          0.172631477914313E+01          0.189037871260443E+01          0.340298447503667E+00
  |  11          0.590806669908024E+00          0.735940067723407E+00          0.163247694701096E+01
  |  12         -0.243840097818743E+01         -0.988226286533548E+00         -0.208969970165442E+01
  |  13         -0.157558869857044E+00         -0.120710473961464E+01         -0.385072005744307E-01

  ------------------------------------ 
  Start decomposition of the XC Energy 
  ------------------------------------ 
  X and C from original XC functional choice 
  Hartree-Fock Energy :          0.000000000 Ha              0.000000000 eV
  X Energy            :        -41.034679984 Ha          -1116.610454885 eV
  C Energy            :         -1.599803145 Ha            -43.532858500 eV
  Total XC Energy     :        -42.634483129 Ha          -1160.143313385 eV
  ------------------------------------ 
  LDA X and C from self-consistent density 
  X Energy LDA        :        -37.252777633 Ha          -1013.699655874 eV
  C Energy LDA        :         -3.138266077 Ha            -85.396564891 eV
  ------------------------------------ 
  End decomposition of the XC Energy 
  ------------------------------------ 

------------------------------------------------------------

------------------------------------------------------------------------------
  Final output of selected total energy values:

  The following output summarizes some interesting total energy values
  at the end of a run (AFTER all relaxation, molecular dynamics, etc.).

  | Total energy of the DFT / Hartree-Fock s.c.f. calculation      :          -8802.884617714 eV
  | Final zero-broadening corrected energy (caution - metals only) :          -8802.884617714 eV
  | For reference only, the value of 1 Hartree used in FHI-aims is :             27.211384500 eV

  Before relying on these values, please be sure to understand exactly which
  total energy value is referred to by a given number. Different objects may
  all carry the same name 'total energy'. Definitions:

  Total energy of the DFT / Hartree-Fock s.c.f. calculation:
  | Note that this energy does not include ANY quantities calculated after the
  | s.c.f. cycle, in particular not ANY RPA, MP2, etc. many-body perturbation terms.

  Final zero-broadening corrected energy:
  | For metallic systems only, a broadening of the occupation numbers at the Fermi
  | level can be extrapolated back to zero broadening by an electron-gas inspired
  | formula. For all systems that are not real metals, this value can be
  | meaningless and should be avoided.

------------------------------------------------------------------------------
  Methods described in the following list of references were used in this FHI-aims run.
  If you publish the results, please make sure to cite these reference if they apply.
  FHI-aims is an academic code, and for our developers (often, Ph.D. students
  and postdocs), scientific credit in the community is essential.
  Thank you for helping us!

  For any use of FHI-aims, please cite:

    Volker Blum, Ralf Gehrke, Felix Hanke, Paula Havu, Ville Havu,
    Xinguo Ren, Karsten Reuter, and Matthias Scheffler
    'Ab initio molecular simulations with numeric atom-centered orbitals'
    Computer Physics Communications 180, 2175-2196 (2009)
    http://dx.doi.org/10.1016/j.cpc.2009.06.022


  The scalable eigensolver library ELPA was used in your run.
  ELPA is essential especially for large systems on hundreds or thousands of CPUs.
  For ELPA, please cite:

    Andreas Marek, Volker Blum, Rainer Johanni, Ville Havu, Bruno Lang,
    Thomas Auckenthaler, Alexander Heinecke, Hans-Joachim Bungartz, and Hermann Lederer,
    'The ELPA Library - Scalable Parallel Eigenvalue Solutions
    for Electronic Structure Theory and Computational Science'
    The Journal of Physics: Condensed Matter 26, 213201 (2014).
    http://dx.doi.org/10.1088/0953-8984/26/21/213201


  The ELSI infrastructure was used in your run to solve the Kohn-Sham electronic structure.
  Please check out http://elsi-interchange.org to learn more.
  If scalability is important for your project, please acknowledge ELSI by citing:

    V. W-z. Yu, F. Corsetti, A. Garcia, W. P. Huhn, M. Jacquelin, W. Jia,
    B. Lange, L. Lin, J. Lu, W. Mi, A. Seifitokaldani, A. Vazquez-Mayagoitia,
    C. Yang, H. Yang, and V. Blum
    'ELSI: A unified software interface for Kohn-Sham electronic structure solvers'
    Computer Physics Communications 222, 267-285 (2018).
    http://dx.doi.org/10.1016/j.cpc.2017.09.007


  For the real-space grid partitioning and parallelization used in this calculation, please cite:

    Ville Havu, Volker Blum, Paula Havu, and Matthias Scheffler,
    'Efficient O(N) integration for all-electron electronic structure calculation'
    'using numerically tabulated basis functions'
    Journal of Computational Physics 228, 8367-8379 (2009).
    http://dx.doi.org/10.1016/j.jcp.2009.08.008

  Of course, there are many other important community references, e.g., those cited in the
  above references. Our list is limited to references that describe implementations in the
  FHI-aims code. The reason is purely practical (length of this list) - please credit others as well.

------------------------------------------------------------
          Leaving FHI-aims.
          Date     :  20200805, Time     :  181640.223

          Computational steps:
          | Number of self-consistency cycles          :           15
          | Number of SCF (re)initializations          :            1

          Detailed time accounting                     :  max(cpu_time)    wall_clock(cpu1)
          | Total time                                 :       21.345 s          21.386 s
          | Preparation time                           :        0.144 s           0.146 s
          | Boundary condition initalization           :        0.000 s           0.000 s
          | Grid partitioning                          :        0.110 s           0.110 s
          | Preloading free-atom quantities on grid    :        0.002 s           0.003 s
          | Free-atom superposition energy             :        0.084 s           0.084 s
          | Total time for integrations                :        8.093 s           8.100 s
          | Total time for solution of K.-S. equations :        0.034 s           0.038 s
          | Total time for density & force components  :        6.700 s           6.712 s
          | Total time for mixing                      :        0.196 s           0.194 s
          | Total time for Hartree multipole update    :        0.131 s           0.130 s
          | Total time for Hartree multipole sum       :        5.457 s           5.464 s
          | Total time for total energy evaluation     :        0.002 s           0.004 s
          | Total time for vdW correction              :        0.088 s           0.089 s

          Partial memory accounting:
          | Residual value for overall tracked memory usage across tasks :           0.000 MB (should be 0.000 MB)
          | Peak values for overall tracked memory usage (after allocating hessian_basis_wave):
          |   Minimum:        1.622 MB (on task 1)
          |   Maximum:        1.622 MB (on task 1)
          |   Average:        1.622 MB
          | Largest tracked array allocation (hessian_basis_wave):
          |   Minimum:        0.794 MB (on task 1)
          |   Maximum:        0.794 MB (on task 1)
          |   Average:        0.794 MB
          Note:  These values currently only include a subset of arrays which are explicitly tracked.
          The "true" memory usage will be greater.

          Have a nice day.
------------------------------------------------------------
