  MPI-parallelism will be employed.
------------------------------------------------------------
          Invoking FHI-aims ...
          Version 171221_1
          Compiled on 2019/09/09 at 14:39:39 on host puhti-login2.bullx.

          When using FHI-aims, please cite the following reference:

          Volker Blum, Ralf Gehrke, Felix Hanke, Paula Havu,
          Ville Havu, Xinguo Ren, Karsten Reuter, and Matthias Scheffler,
          'Ab Initio Molecular Simulations with Numeric Atom-Centered Orbitals',
          Computer Physics Communications 180, 2175-2196 (2009)

          For any questions about FHI-aims, please visit the aimsclub website
          with its forums and wiki. Contributions to both the forums and the
          wiki are warmly encouraged - they are for you, and everyone is welcome there.

------------------------------------------------------------



  Date     :  20200815, Time     :  002447.154
  Time zero on CPU 1             :   0.116100000000000E-01  s.
  Internal wall clock time zero  :           366683087.154  s.

  FHI-aims created a unique identifier for this run for later identification
  aims_uuid : 8CF36758-85E6-46FB-A922-A378D3B754B1

  Using        1 parallel tasks.
  Task        0 on host r16c11.bullx reporting.

  Performing system and environment tests:
  | Environment variable OMP_NUM_THREADS correctly set to 1.
  | Stacksize not measured: no C compiler
  | Checking for scalapack...
  | Testing pdtran()...
  | All pdtran() tests passed.

  Obtaining array dimensions for all initial allocations:
  
  -----------------------------------------------------------------------
  Parsing control.in (first pass over file, find array dimensions only).
  The contents of control.in will be repeated verbatim below
  unless switched off by setting 'verbatim_writeout .false.' .
  in the first line of control.in .
  -----------------------------------------------------------------------
  
  #########################################################################################
  #
  #  Volker Blum, FHI 2009 : Test run input file control.in for simple H2O
  #
  #########################################################################################
  #
  #  Physical model
  #
    xc                 pbe
    vdw_correction_hirshfeld
    spin               none
    relativistic       none
    charge             0.
  #
  #  SCF convergence
  #
    occupation_type    gaussian 0.01
    mixer              pulay
      n_max_pulay        10
      charge_mix_param   0.2
    sc_accuracy_rho    1E-5
    sc_accuracy_eev    1E-3
    sc_accuracy_etot   1E-6
    sc_accuracy_forces 1E-4
    sc_iter_limit      100
  #
  #  Relaxation
  #
  #  relax_geometry   bfgs 1.e-3
  #
  ################################################################################
  #
  #  FHI-aims code project
  #  VB, Fritz-Haber Institut, 2009
  #
  #  Suggested "light" defaults for H atom (to be pasted into control.in file)
  #  Be sure to double-check any results obtained with these settings for post-processing,
  #  e.g., with the "tight" defaults and larger basis sets.
  #
  ################################################################################
    species        H
  #     global species definitions
      nucleus             1
      mass                1.00794
  #
      l_hartree           4
  #
      cut_pot             3.5  1.5  1.0
      basis_dep_cutoff    1e-4
  #
      radial_base         24 5.0
      radial_multiplier   1
      angular_grids       specified
        division   0.2421   50
        division   0.3822  110
        division   0.4799  194
        division   0.5341  302
  #      division   0.5626  434
  #      division   0.5922  590
  #      division   0.6542  770
  #      division   0.6868 1202
  #      outer_grid  770
        outer_grid  302
  ################################################################################
  #
  #  Definition of "minimal" basis
  #
  ################################################################################
  #     valence basis states
      valence      1  s   1.
  #     ion occupancy
      ion_occ      1  s   0.5
  ################################################################################
  #
  #  Suggested additional basis functions. For production calculations,
  #  uncomment them one after another (the most important basis functions are
  #  listed first).
  #
  #  Basis constructed for dimers: 0.5 A, 0.7 A, 1.0 A, 1.5 A, 2.5 A
  #
  ################################################################################
  #  "First tier" - improvements: -1014.90 meV to -62.69 meV
       hydro 2 s 2.1
       hydro 2 p 3.5
  #  "Second tier" - improvements: -12.89 meV to -1.83 meV
  #     hydro 1 s 0.85
  #     hydro 2 p 3.7
  #     hydro 2 s 1.2
  #     hydro 3 d 7
  #  "Third tier" - improvements: -0.25 meV to -0.12 meV
  #     hydro 4 f 11.2
  #     hydro 3 p 4.8
  #     hydro 4 d 9
  #     hydro 3 s 3.2
  ################################################################################
  #
  #  FHI-aims code project
  #  VB, Fritz-Haber Institut, 2009
  #
  #  Suggested "light" defaults for C atom (to be pasted into control.in file)
  #  Be sure to double-check any results obtained with these settings for post-processing,
  #  e.g., with the "tight" defaults and larger basis sets.
  #
  ################################################################################
    species        C
  #     global species definitions
      nucleus             6
      mass                12.0107
  #
      l_hartree           4
  #
      cut_pot             3.5  1.5  1.0
      basis_dep_cutoff    1e-4
  #
      radial_base         34 5.0
      radial_multiplier   1
      angular_grids specified
        division   0.3326   50
        division   0.5710  110
        division   0.7727  194
        division   0.8772  302
  #      division   0.9334  434
  #      division   0.9625  590
  #      division   0.9924  770
  #      division   1.0230  974
  #      division   1.4589 1202
  #     outer_grid  974
       outer_grid 302
  ################################################################################
  #
  #  Definition of "minimal" basis
  #
  ################################################################################
  #     valence basis states
      valence      2  s   2.
      valence      2  p   2.
  #     ion occupancy
      ion_occ      2  s   1.
      ion_occ      2  p   1.
  ################################################################################
  #
  #  Suggested additional basis functions. For production calculations,
  #  uncomment them one after another (the most important basis functions are
  #  listed first).
  #
  #  Constructed for dimers: 1.0 A, 1.25 A, 1.5 A, 2.0 A, 3.0 A
  #
  ################################################################################
  #  "First tier" - improvements: -1214.57 meV to -155.61 meV
       hydro 2 p 1.7
       hydro 3 d 6
       hydro 2 s 4.9
  #  "Second tier" - improvements: -67.75 meV to -5.23 meV
  #     hydro 4 f 9.8
  #     hydro 3 p 5.2
  #     hydro 3 s 4.3
  #     hydro 5 g 14.4
  #     hydro 3 d 6.2
  #  "Third tier" - improvements: -2.43 meV to -0.60 meV
  #     hydro 2 p 5.6
  #     hydro 2 s 1.4
  #     hydro 3 d 4.9
  #     hydro 4 f 11.2
  #  "Fourth tier" - improvements: -0.39 meV to -0.18 meV
  #     hydro 2 p 2.1
  #     hydro 5 g 16.4
  #     hydro 4 d 13.2
  #     hydro 3 s 13.6
  #     hydro 4 f 17.6
  #  Further basis functions - improvements: -0.08 meV and below
  #     hydro 3 s 2
  #     hydro 3 p 6
  #     hydro 4 d 20
  ################################################################################
  #
  #  FHI-aims code project
  #  VB, Fritz-Haber Institut, 2009
  #
  #  Suggested "light" defaults for N atom (to be pasted into control.in file)
  #  Be sure to double-check any results obtained with these settings for post-processing,
  #  e.g., with the "tight" defaults and larger basis sets.
  #
  ################################################################################
    species        N
  #     global species definitions
      nucleus             7
      mass                14.0067
  #
      l_hartree           4
  #
      cut_pot             3.5  1.5  1.0
      basis_dep_cutoff    1e-4
  #
      radial_base         35 5.0
      radial_multiplier   1
      angular_grids       specified
        division   0.2599   50
        division   0.4601  110
        division   0.5885  194
        division   0.6503  302
  #      division   0.6939  434
  #      division   0.7396  590
  #      division   0.7632  770
  #      division   0.8122  974
  #      division   1.1604 1202
  #      outer_grid  974
        outer_grid  302
  ################################################################################
  #
  #  Definition of "minimal" basis
  #
  ################################################################################
  #     valence basis states
      valence      2  s   2.
      valence      2  p   3.
  #     ion occupancy
      ion_occ      2  s   1.
      ion_occ      2  p   2.
  ################################################################################
  #
  #  Suggested additional basis functions. For production calculations,
  #  uncomment them one after another (the most important basis functions are
  #  listed first).
  #
  #  Constructed for dimers: 1.0 A, 1.1 A, 1.5 A, 2.0 A, 3.0 A
  #
  ################################################################################
  #  "First tier" - improvements: -1193.42 meV to -220.60 meV
       hydro 2 p 1.8
       hydro 3 d 6.8
       hydro 3 s 5.8
  #  "Second tier" - improvements: -80.21 meV to -6.86 meV
  #     hydro 4 f 10.8
  #     hydro 3 p 5.8
  #     hydro 1 s 0.8
  #     hydro 5 g 16
  #     hydro 3 d 4.9
  #  "Third tier" - improvements: -4.29 meV to -0.53 meV
  #     hydro 3 s 16
  #     ionic 2 p auto
  #     hydro 3 d 6.6
  #     hydro 4 f 11.6
  #  "Fourth tier" - improvements: -0.75 meV to -0.25 meV
  #     hydro 2 p 4.5
  #     hydro 2 s 2.4
  #     hydro 5 g 14.4
  #     hydro 4 d 14.4
  #     hydro 4 f 16.8
  # Further basis functions - -0.21 meV and below
  #     hydro 3 p 14.8
  #     hydro 3 s 4.4
  #     hydro 3 d 19.6
  #     hydro 5 g 12.8
  ################################################################################
  #
  #  FHI-aims code project
  #  VB, Fritz-Haber Institut, 2009
  #
  #  Suggested "light" defaults for O atom (to be pasted into control.in file)
  #  Be sure to double-check any results obtained with these settings for post-processing,
  #  e.g., with the "tight" defaults and larger basis sets.
  #
  ################################################################################
    species        O
  #     global species definitions
      nucleus             8
      mass                15.9994
  #
      l_hartree           4
  #
      cut_pot             3.5  1.5  1.0
      basis_dep_cutoff    1e-4
  #
      radial_base         36 5.0
      radial_multiplier   1
       angular_grids specified
        division   0.2659   50
        division   0.4451  110
        division   0.6052  194
        division   0.7543  302
  #      division   0.8014  434
  #      division   0.8507  590
  #      division   0.8762  770
  #      division   0.9023  974
  #      division   1.2339 1202
  #      outer_grid 974
        outer_grid 302
  ################################################################################
  #
  #  Definition of "minimal" basis
  #
  ################################################################################
  #     valence basis states
      valence      2  s   2.
      valence      2  p   4.
  #     ion occupancy
      ion_occ      2  s   1.
      ion_occ      2  p   3.
  ################################################################################
  #
  #  Suggested additional basis functions. For production calculations,
  #  uncomment them one after another (the most important basis functions are
  #  listed first).
  #
  #  Constructed for dimers: 1.0 A, 1.208 A, 1.5 A, 2.0 A, 3.0 A
  #
  ################################################################################
  #  "First tier" - improvements: -699.05 meV to -159.38 meV
       hydro 2 p 1.8
       hydro 3 d 7.6
       hydro 3 s 6.4
  #  "Second tier" - improvements: -49.91 meV to -5.39 meV
  #     hydro 4 f 11.6
  #     hydro 3 p 6.2
  #     hydro 3 d 5.6
  #     hydro 5 g 17.6
  #     hydro 1 s 0.75
  #  "Third tier" - improvements: -2.83 meV to -0.50 meV
  #     ionic 2 p auto
  #     hydro 4 f 10.8
  #     hydro 4 d 4.7
  #     hydro 2 s 6.8
  #  "Fourth tier" - improvements: -0.40 meV to -0.12 meV
  #     hydro 3 p 5
  #     hydro 3 s 3.3
  #     hydro 5 g 15.6
  #     hydro 4 f 17.6
  #     hydro 4 d 14
  # Further basis functions - -0.08 meV and below
  #     hydro 3 s 2.1
  #     hydro 4 d 11.6
  #     hydro 3 p 16
  #     hydro 2 s 17.2
  
  -----------------------------------------------------------------------
  Completed first pass over input file control.in .
  -----------------------------------------------------------------------
  
  
  -----------------------------------------------------------------------
  Parsing geometry.in (first pass over file, find array dimensions only).
  The contents of geometry.in will be repeated verbatim below
  unless switched off by setting 'verbatim_writeout .false.' .
  in the first line of geometry.in .
  -----------------------------------------------------------------------
  
  atom  0.00000 0.00000 0.00000 C
  atom  1.09300 0.00000 0.00000 H
  atom  -0.47961 0.00000 -1.41207 N
  atom  -1.38243 0.47459 -1.45086 H
  atom  0.20091 0.49077 -1.98841 H
  atom  -0.49584 1.26211 0.72868 C
  atom  -1.58789 1.28919 0.74431 H
  atom  -0.13407 1.27425 1.75947 H
  atom  -0.13407 2.16087 0.22380 H
  atom  -0.39425 -1.28861 0.74398 C
  atom  -0.10189 -1.56493 1.88303 O
  atom  -1.10210 -2.13717 0.06896 O
  atom  -0.92626 -1.79129 -0.82234 H
  
  -----------------------------------------------------------------------
  Completed first pass over input file geometry.in .
  -----------------------------------------------------------------------
  

  Basic array size parameters:
  | Number of species                 :        4
  | Number of atoms                   :       13
  | Max. basis fn. angular momentum   :        2
  | Max. atomic/ionic basis occupied n:        2
  | Max. number of basis fn. types    :        2
  | Max. radial fns per species/type  :        3
  | Max. logarithmic grid size        :     1301
  | Max. radial integration grid size :       36
  | Max. angular integration grid size:      302
  | Max. angular grid division number :        8
  | Radial grid for Hartree potential :     1301
  | Number of spin channels           :        1

------------------------------------------------------------
          Reading file control.in.
------------------------------------------------------------
  XC: Using PBE gradient-corrected functionals.
  Spin treatment: No spin polarisation.
  Non-relativistic treatment of kinetic energy.
  Charge =   0.000000E+00: Neutral system requested explicitly.
  Occupation type: Gaussian broadening, width =   0.100000E-01 eV.
  Using pulay charge density mixing.
  Pulay mixing - number of memorized iterations:   10
  Charge density mixing - mixing parameter:     0.2000
  Convergence accuracy of self-consistent charge density:  0.1000E-04
  Convergence accuracy of sum of eigenvalues:  0.1000E-02
  Convergence accuracy of total energy:  0.1000E-05
  Convergence accuracy of forces:  0.1000E-03
  Maximum number of s.-c. iterations  :   100
 
  Reading configuration options for species H                   .
  | Found nuclear charge :   1.0000
  | Found atomic mass :    1.00794000000000      amu
  | Found l_max for Hartree potential  :   4
  | Found cutoff potl. onset [A], width [A], scale factor :    3.50000    1.50000    1.00000
  | Threshold for basis-dependent cutoff potential is   0.100000E-03
  | Found data for basic radial integration grid :    24 points, outermost radius =    5.000 A
  | Found multiplier for basic radial grid :   1
  | Found angular grid specification: user-specified.
  | Specified grid contains     5 separate shells.
  | Check grid settings after all constraints further below.
  | Found free-atom valence shell :  1 s   1.000
  | No ionic wave fns used. Skipping ion_occ.
  | Found hydrogenic basis function :  2 s   2.100
  | Found hydrogenic basis function :  2 p   3.500
  Species H                   : Missing cutoff potential type.
  Defaulting to exp(1/x)/(1-x)^2 type cutoff potential.
  Species H : No 'logarithmic' tag. Using default grid for free atom:
  | Default logarithmic grid data [bohr] : 0.1000E-03 0.1000E+03 0.1012E+01
  Species H : On-site basis accuracy parameter (for Gram-Schmidt orthonormalisation) not specified.
  Using default value basis_acc =  0.1000000E-03.
  Species H                   : Using default innermost maximum threshold i_radial=  2 for radial functions.
  Species H                   : Default cutoff onset for free atom density etc. : 0.35000000E+01 AA.
  Species H                   : Basic radial grid will be enhanced according to radial_multiplier =   1, to contain    24 grid points.
 
  Reading configuration options for species C                   .
  | Found nuclear charge :   6.0000
  | Found atomic mass :    12.0107000000000      amu
  | Found l_max for Hartree potential  :   4
  | Found cutoff potl. onset [A], width [A], scale factor :    3.50000    1.50000    1.00000
  | Threshold for basis-dependent cutoff potential is   0.100000E-03
  | Found data for basic radial integration grid :    34 points, outermost radius =    5.000 A
  | Found multiplier for basic radial grid :   1
  | Found angular grid specification: user-specified.
  | Specified grid contains     5 separate shells.
  | Check grid settings after all constraints further below.
  | Found free-atom valence shell :  2 s   2.000
  | Found free-atom valence shell :  2 p   2.000
  | No ionic wave fns used. Skipping ion_occ.
  | No ionic wave fns used. Skipping ion_occ.
  | Found hydrogenic basis function :  2 p   1.700
  | Found hydrogenic basis function :  3 d   6.000
  | Found hydrogenic basis function :  2 s   4.900
  Species C                   : Missing cutoff potential type.
  Defaulting to exp(1/x)/(1-x)^2 type cutoff potential.
  Species C : No 'logarithmic' tag. Using default grid for free atom:
  | Default logarithmic grid data [bohr] : 0.1000E-03 0.1000E+03 0.1012E+01
  Species C : On-site basis accuracy parameter (for Gram-Schmidt orthonormalisation) not specified.
  Using default value basis_acc =  0.1000000E-03.
  Species C                   : Using default innermost maximum threshold i_radial=  2 for radial functions.
  Species C                   : Default cutoff onset for free atom density etc. : 0.35000000E+01 AA.
  Species C                   : Basic radial grid will be enhanced according to radial_multiplier =   1, to contain    34 grid points.
 
  Reading configuration options for species N                   .
  | Found nuclear charge :   7.0000
  | Found atomic mass :    14.0067000000000      amu
  | Found l_max for Hartree potential  :   4
  | Found cutoff potl. onset [A], width [A], scale factor :    3.50000    1.50000    1.00000
  | Threshold for basis-dependent cutoff potential is   0.100000E-03
  | Found data for basic radial integration grid :    35 points, outermost radius =    5.000 A
  | Found multiplier for basic radial grid :   1
  | Found angular grid specification: user-specified.
  | Specified grid contains     5 separate shells.
  | Check grid settings after all constraints further below.
  | Found free-atom valence shell :  2 s   2.000
  | Found free-atom valence shell :  2 p   3.000
  | No ionic wave fns used. Skipping ion_occ.
  | No ionic wave fns used. Skipping ion_occ.
  | Found hydrogenic basis function :  2 p   1.800
  | Found hydrogenic basis function :  3 d   6.800
  | Found hydrogenic basis function :  3 s   5.800
  Species N                   : Missing cutoff potential type.
  Defaulting to exp(1/x)/(1-x)^2 type cutoff potential.
  Species N : No 'logarithmic' tag. Using default grid for free atom:
  | Default logarithmic grid data [bohr] : 0.1000E-03 0.1000E+03 0.1012E+01
  Species N : On-site basis accuracy parameter (for Gram-Schmidt orthonormalisation) not specified.
  Using default value basis_acc =  0.1000000E-03.
  Species N                   : Using default innermost maximum threshold i_radial=  2 for radial functions.
  Species N                   : Default cutoff onset for free atom density etc. : 0.35000000E+01 AA.
  Species N                   : Basic radial grid will be enhanced according to radial_multiplier =   1, to contain    35 grid points.
 
  Reading configuration options for species O                   .
  | Found nuclear charge :   8.0000
  | Found atomic mass :    15.9994000000000      amu
  | Found l_max for Hartree potential  :   4
  | Found cutoff potl. onset [A], width [A], scale factor :    3.50000    1.50000    1.00000
  | Threshold for basis-dependent cutoff potential is   0.100000E-03
  | Found data for basic radial integration grid :    36 points, outermost radius =    5.000 A
  | Found multiplier for basic radial grid :   1
  | Found angular grid specification: user-specified.
  | Specified grid contains     5 separate shells.
  | Check grid settings after all constraints further below.
  | Found free-atom valence shell :  2 s   2.000
  | Found free-atom valence shell :  2 p   4.000
  | No ionic wave fns used. Skipping ion_occ.
  | No ionic wave fns used. Skipping ion_occ.
  | Found hydrogenic basis function :  2 p   1.800
  | Found hydrogenic basis function :  3 d   7.600
  | Found hydrogenic basis function :  3 s   6.400
  Species O                   : Missing cutoff potential type.
  Defaulting to exp(1/x)/(1-x)^2 type cutoff potential.
  Species O : No 'logarithmic' tag. Using default grid for free atom:
  | Default logarithmic grid data [bohr] : 0.1000E-03 0.1000E+03 0.1012E+01
  Species O : On-site basis accuracy parameter (for Gram-Schmidt orthonormalisation) not specified.
  Using default value basis_acc =  0.1000000E-03.
  Species O                   : Using default innermost maximum threshold i_radial=  2 for radial functions.
  Species O                   : Default cutoff onset for free atom density etc. : 0.35000000E+01 AA.
  Species O                   : Basic radial grid will be enhanced according to radial_multiplier =   1, to contain    36 grid points.
 
  Finished reading input file 'control.in'. Consistency checks are next.
 
  MPI_IN_PLACE appears to work with this MPI implementation.
  | Keeping use_mpi_in_place .true. (see manual).
  Target number of points in a grid batch is not set. Defaulting to  100
  Method for grid partitioning is not set. Defaulting to parallel hash+maxmin partitioning.
  Batch size limit is not set. Defaulting to    200
  By default, will store active basis functions for each batch.
  If in need of memory, prune_basis_once .false. can be used to disable this option.
  communication_type for Hartree potential was not specified.
  Defaulting to calc_hartree .
  Pulay mixer: Number of initial linear mixing iterations not set.
  Defaulting to    0 iterations.
  Work space size for distributed Hartree potential not set.
  Defaulting to   0.200000E+03 MB.
  Algorithm-dependent basis array size parameters:
  | n_max_pulay                         :       10
  Presetting      1001 iterations before the initial mixing cycle
  is restarted anyway using the sc_init_iter criterion / keyword.
  Presetting a factor      1.000 between actual scf density residual
  and density convergence criterion sc_accuracy_rho below which sc_init_iter
  takes no effect.
  Geometry relaxation not requested: no relaxation will be performed.
  Handling of forces: Unphysical translation and rotation will be removed from forces.
  No accuracy limit for integral partition fn. given. Defaulting to  0.1000E-14.
  No threshold value for u(r) in integrations given. Defaulting to  0.1000E-05.
  No accuracy for occupation numbers given. Defaulting to  0.1000E-12.
  No threshold value for occupation numbers given. Defaulting to  0.0000E+00.
  No accuracy for fermi level given. Defaulting to  0.1000E-19.
  Maximum # of iterations to find E_F not set. Defaulting to  200.
  Preferred method for the eigenvalue solver ('KS_method') not specified in 'control.in'.
  Defaulting to serial version, 'lapack_fast'.
  Will not use alltoall communication since running on < 1024 CPUs.
  Threshold for basis singularities not set.
  Default threshold for basis singularities:  0.1000E-04
  partition_type (choice of integration weights) for integrals was not specified.
  | Using a version of the partition function of Stratmann and coworkers ('stratmann_smoother').
  | At each grid point, the set of atoms used to build the partition table is smoothly restricted to
  | only those atoms whose free-atom density would be non-zero at that grid point.
  Partitioning for Hartree potential was not defined. Using partition_type for integrals.
  | Adjusted default value of keyword multip_moments_threshold to:       0.10000000E-11
  | This value may affect high angular momentum components of the Hartree potential in periodic systems.
  No q(lm)/r^(l+1) cutoff set for long-range Hartree potential.
  | Using default value of  0.100000E-09 .
  | Verify using the multipole_threshold keyword.
  Defaulting to new monopole extrapolation.
  Density update method: automatic selection selected.
------------------------------------------------------------


------------------------------------------------------------
          Reading geometry description geometry.in.
------------------------------------------------------------
  Input structure read successfully.
  The structure contains       13 atoms,  and a total of         48.000 electrons.

  Input geometry:
  | No unit cell requested.
  | Atomic structure:
  |       Atom                x [A]            y [A]            z [A]
  |    1: Species C             0.00000000        0.00000000        0.00000000
  |    2: Species H             1.09300000        0.00000000        0.00000000
  |    3: Species N            -0.47961000        0.00000000       -1.41207000
  |    4: Species H            -1.38243000        0.47459000       -1.45086000
  |    5: Species H             0.20091000        0.49077000       -1.98841000
  |    6: Species C            -0.49584000        1.26211000        0.72868000
  |    7: Species H            -1.58789000        1.28919000        0.74431000
  |    8: Species H            -0.13407000        1.27425000        1.75947000
  |    9: Species H            -0.13407000        2.16087000        0.22380000
  |   10: Species C            -0.39425000       -1.28861000        0.74398000
  |   11: Species O            -0.10189000       -1.56493000        1.88303000
  |   12: Species O            -1.10210000       -2.13717000        0.06896000
  |   13: Species H            -0.92626000       -1.79129000       -0.82234000
  |

  | The smallest distance between any two atoms is         0.97209484 AA.
  |
  | The first atom of this pair is atom number                     12 .
  | The second atom of this pair is atom number                    13 .

  Number of empty states per atom not set in control.in - providing a guess from actual geometry.
  | Total number of empty states used during s.c.f. cycle:       29
  If you use a very high smearing, use empty_states (per atom!) in control.in to increase this value.

  Structure-dependent array size parameters: 
  | Maximum number of distinct radial functions  :       21
  | Maximum number of basis functions            :      119
  | Number of Kohn-Sham states (occupied + empty):       53
------------------------------------------------------------

------------------------------------------------------------
          Preparing all fixed parts of the calculation.
------------------------------------------------------------
  Determining machine precision:
    2.225073858507201E-308
  Setting up grids for atomic and cluster calculations.

  Creating wave function, potential, and density for free atoms.

  Species: H

  List of occupied orbitals and eigenvalues:
    n    l              occ      energy [Ha]    energy [eV]
    1    0           1.0000        -0.237589        -6.4651


  Species: C

  List of occupied orbitals and eigenvalues:
    n    l              occ      energy [Ha]    energy [eV]
    1    0           2.0000       -10.038835      -273.1706
    2    0           2.0000        -0.502696       -13.6791
    2    1           2.0000        -0.191971        -5.2238


  Species: N

  List of occupied orbitals and eigenvalues:
    n    l              occ      energy [Ha]    energy [eV]
    1    0           2.0000       -14.128000      -384.4424
    2    0           2.0000        -0.681077       -18.5330
    2    1           3.0000        -0.259788        -7.0692


  Species: O

  List of occupied orbitals and eigenvalues:
    n    l              occ      energy [Ha]    energy [eV]
    1    0           2.0000       -18.898188      -514.2459
    2    0           2.0000        -0.878505       -23.9053
    2    1           4.0000        -0.331779        -9.0282

  Creating fixed part of basis set: Ionic, confined, hydrogenic.
 
  H                    hydrogenic:
 
  List of hydrogenic basis orbitals: 
    n    l      effective z      eigenvalue [eV]  inner max. [A]     outer max. [A]     outer radius [A]   
    2    0         2.100000       -14.9728           0.193243           1.317208           4.583499
    2    1         3.500000       -41.6669           0.602369           0.602369           3.723403
 
 
  C                    hydrogenic:
 
  List of hydrogenic basis orbitals: 
    n    l      effective z      eigenvalue [eV]  inner max. [A]     outer max. [A]     outer radius [A]   
    2    1         1.700000        -9.7616           1.230570           1.230570           4.607917
    3    2         6.000000       -54.4224           0.792453           0.792453           3.883070
    2    0         4.900000       -81.6679           0.082559           0.562749           3.078220
 
 
  N                    hydrogenic:
 
  List of hydrogenic basis orbitals: 
    n    l      effective z      eigenvalue [eV]  inner max. [A]     outer max. [A]     outer radius [A]   
    2    1         1.800000       -10.9749           1.177451           1.177451           4.573712
    3    2         6.800000       -69.9026           0.704619           0.704619           3.538137
    3    0         5.800000       -50.8545           0.067388           1.191934           4.250239
 
 
  O                    hydrogenic:
 
  List of hydrogenic basis orbitals: 
    n    l      effective z      eigenvalue [eV]  inner max. [A]     outer max. [A]     outer radius [A]   
    2    1         1.800000       -10.9749           1.164242           1.164242           4.578029
    3    2         7.600000       -87.3180           0.624125           0.624125           3.251020
    3    0         6.400000       -61.9207           0.061167           1.081902           4.001998
 

  Adding cutoff potential to free-atom effective potential.
  Creating atomic-like basis functions for current effective potential.

  Species H                   :

  List of atomic basis orbitals and eigenvalues:
    n    l      energy [Ha]    energy [eV]    outer radius [A]
    1    0        -0.237589        -6.4651       4.527807


  Species C                   :

  List of atomic basis orbitals and eigenvalues:
    n    l      energy [Ha]    energy [eV]    outer radius [A]
    1    0       -10.038835      -273.1706       1.934409
    2    0        -0.502696       -13.6791       4.496620
    2    1        -0.191971        -5.2238       4.551928


  Species N                   :

  List of atomic basis orbitals and eigenvalues:
    n    l      energy [Ha]    energy [eV]    outer radius [A]
    1    0       -14.128000      -384.4424       1.637919
    2    0        -0.681077       -18.5330       4.463241
    2    1        -0.259788        -7.0692       4.518138


  Species O                   :

  List of atomic basis orbitals and eigenvalues:
    n    l      energy [Ha]    energy [eV]    outer radius [A]
    1    0       -18.898188      -514.2459       1.415765
    2    0        -0.878505       -23.9053       4.413171
    2    1        -0.331779        -9.0282       4.522403

  Assembling full basis from fixed parts.
  | Species H :   atomic orbital   1 s accepted.
  | Species H :    hydro orbital   2 s accepted.
  | Species H :    hydro orbital   2 p accepted.
  | Species C :   atomic orbital   1 s accepted.
  | Species C :    hydro orbital   2 s accepted.
  | Species C :   atomic orbital   2 s accepted.
  | Species C :   atomic orbital   2 p accepted.
  | Species C :    hydro orbital   2 p accepted.
  | Species C :    hydro orbital   3 d accepted.
  | Species N :   atomic orbital   1 s accepted.
  | Species N :    hydro orbital   3 s accepted.
  | Species N :   atomic orbital   2 s accepted.
  | Species N :   atomic orbital   2 p accepted.
  | Species N :    hydro orbital   2 p accepted.
  | Species N :    hydro orbital   3 d accepted.
  | Species O :   atomic orbital   1 s accepted.
  | Species O :    hydro orbital   3 s accepted.
  | Species O :   atomic orbital   2 s accepted.
  | Species O :   atomic orbital   2 p accepted.
  | Species O :    hydro orbital   2 p accepted.
  | Species O :    hydro orbital   3 d accepted.
 
  Basis size parameters after reduction:
  | Total number of radial functions:       21
  | Total number of basis functions :      119
 
  Per-task memory consumption for arrays in subroutine allocate_ext:
  |           5.250512MB.
  Testing on-site integration grid accuracy.
  |  Species  Function  <phi|h_atom|phi> (log., in eV)  <phi|h_atom|phi> (rad., in eV)
           1        1                 -6.4663192853                 -6.4651273558
           1        2                 13.7111246313                 13.7170609718
           1        3                 25.2673269279                 25.2674696378
           2        4               -273.1705927641               -273.1705631568
           2        5                -10.7109323383                -10.7107120029
           2        6                 17.4381822266                 17.4352413244
           2        7                 -5.2255326521                 -5.2270484734
           2        8                  8.6835629259                  8.6603288385
           2        9                 27.4952418996                 27.4953360207
           3       10               -384.4424306495               -384.4423701208
           3       11                 12.5842251816                 12.5842222903
           3       12                -15.7264628251                -15.7264433455
           3       13                 -7.0696854293                 -7.0701769954
           3       14                  8.8090390882                  8.7901077751
           3       15                 35.9586762123                 35.9588528632
           4       16               -514.2458688638               -514.2457643834
           4       17                 15.1795651126                 15.1795290741
           4       18                -21.5359799773                -21.5360846186
           4       19                 -9.0283069236                 -9.0284644067
           4       20                  8.3027758564                  8.2834874195
           4       21                 45.8339351984                 45.8338762259

  Preparing densities etc. for the partition functions (integrals / Hartree potential).

  Preparations completed.
  max(cpu_time)          :      0.145 s.
  Wall clock time (cpu1) :      0.146 s.
------------------------------------------------------------

------------------------------------------------------------
          Begin self-consistency loop: Initialization.

          Date     :  20200815, Time     :  002447.313
------------------------------------------------------------

  Initializing index lists of integration centers etc. from given atomic structure:
  | Number of centers in hartree potential         :        13
  | Number of centers in hartree multipole         :        13
  | Number of centers in electron density summation:        13
  | Number of centers in basis integrals           :        13
  | Number of centers in integrals                 :        13
  | Number of centers in hamiltonian               :        13
  Partitioning the integration grid into batches with parallel hashing+maxmin method.
  | Number of batches:      959
  | Maximal batch size:     139
  | Minimal batch size:      66
  | Average batch size:      72.624
  | Standard deviation of batch sizes:      17.139

  Integration load balanced across     1 MPI tasks.
  Work distribution over tasks is as follows:
  Task     0 has      69646 integration points.
  Initializing partition tables, free-atom densities, potentials, etc. across the integration grid (initialize_grid_storage).
  | initialize_grid_storage: Actual outermost partition radius vs. multipole_radius_free
  | (-- VB: in principle, multipole_radius_free should be larger, hence this output)
  | Species        1: Confinement radius =              4.999999999999999 AA, multipole_radius_free =              5.054417573612229 AA.
  | Species        1: outer_partition_radius set to              5.054417573612229 AA .
  | Species        2: Confinement radius =              4.999999999999999 AA, multipole_radius_free =              5.019602836301480 AA.
  | Species        2: outer_partition_radius set to              5.019602836301480 AA .
  | Species        3: Confinement radius =              4.999999999999999 AA, multipole_radius_free =              5.043624274424571 AA.
  | Species        3: outer_partition_radius set to              5.043624274424571 AA .
  | Species        4: Confinement radius =              4.999999999999999 AA, multipole_radius_free =              5.048384829883283 AA.
  | Species        4: outer_partition_radius set to              5.048384829883283 AA .
  | Original list of interatomic distances with          13 x         13 entries is created.
  | Net number of integration points:    69646
  | of which are non-zero points    :    59368
  Renormalizing the initial density to the exact electron count on the 3D integration grid.
  | Initial density: Formal number of electrons (from input files) :      48.0000000000
  | Integrated number of electrons on 3D grid     :      47.9998373523
  | Charge integration error                      :      -0.0001626477
  | Normalization factor for density and gradient :       1.0000033885
  Obtaining max. number of non-zero basis functions in each batch (get_n_compute_maxes).
  | Maximal number of non-zero basis functions:      119 in task     0
  Selecting the method for density update.
  Loop over occupied states selected for charge density update.
  Allocating        0.050 MB for KS_eigenvector
  Integrating Hamiltonian matrix: batch-based integration.
  Time summed over all CPUs for integration: real work        0.492 s, elapsed        0.492 s
  Integrating overlap matrix.
  Time summed over all CPUs for integration: real work        0.211 s, elapsed        0.211 s

  Updating Kohn-Sham eigenvalues and eigenvectors using ELSI and the ELPA eigensolver.
  Overlap matrix is nonsingular
  | Lowest eigenvalue of overlap  :  0.45E-02
  | Highest eigenvalue of overlap :  0.63E+01
  Finished singularity check of overlap matrix
  | Time :     0.002 s
  Finished Cholesky decomposition
  | Time :     0.000 s
  Finished transformation to standard eigenproblem
  | Time :     0.000 s
  Starting LAPACK eigensolver
  Finished solving standard eigenproblem
  | Time :     0.002 s
  Finished back-transformation of eigenvectors
  | Time :     0.000 s

  Obtaining occupation numbers and chemical potential using ELSI.
  | Chemical potential (Fermi level):    -9.29589534eV
  Writing Kohn-Sham eigenvalues.

  State    Occupation    Eigenvalue [Ha]    Eigenvalue [eV]
      1       2.00000         -19.007505         -517.22051
      2       2.00000         -18.977122         -516.39377
      3       2.00000         -14.247505         -387.69433
      4       2.00000         -10.166848         -276.65400
      5       2.00000         -10.141972         -275.97709
      6       2.00000         -10.131895         -275.70290
      7       2.00000          -1.181382          -32.14704
      8       2.00000          -1.101256          -29.96671
      9       2.00000          -0.993885          -27.04498
     10       2.00000          -0.858931          -23.37270
     11       2.00000          -0.756433          -20.58359
     12       2.00000          -0.680682          -18.52231
     13       2.00000          -0.637416          -17.34496
     14       2.00000          -0.607295          -16.52534
     15       2.00000          -0.585706          -15.93786
     16       2.00000          -0.557901          -15.18126
     17       2.00000          -0.553619          -15.06475
     18       2.00000          -0.526999          -14.34037
     19       2.00000          -0.522012          -14.20466
     20       2.00000          -0.501527          -13.64724
     21       2.00000          -0.466732          -12.70043
     22       2.00000          -0.428478          -11.65947
     23       2.00000          -0.418538          -11.38900
     24       2.00000          -0.387934          -10.55622
     25       0.00000          -0.149252           -4.06135
     26       0.00000          -0.063213           -1.72010
     27       0.00000          -0.028089           -0.76434
     28       0.00000          -0.009804           -0.26679
     29       0.00000           0.007109            0.19345
     30       0.00000           0.011707            0.31857
     31       0.00000           0.019529            0.53142
     32       0.00000           0.031153            0.84771
     33       0.00000           0.039850            1.08438
     34       0.00000           0.069342            1.88688
     35       0.00000           0.083954            2.28450
     36       0.00000           0.132315            3.60048
     37       0.00000           0.169614            4.61543
     38       0.00000           0.198637            5.40519
     39       0.00000           0.204083            5.55339
     40       0.00000           0.224147            6.09934
     41       0.00000           0.245004            6.66691
     42       0.00000           0.265948            7.23682
     43       0.00000           0.287771            7.83064
     44       0.00000           0.309693            8.42716
     45       0.00000           0.333523            9.07561
     46       0.00000           0.348300            9.47771
     47       0.00000           0.361894            9.84764
     48       0.00000           0.381026           10.36824
     49       0.00000           0.421917           11.48095
     50       0.00000           0.500134           13.60934
     51       0.00000           0.533778           14.52484
     52       0.00000           0.542297           14.75664
     53       0.00000           0.576377           15.68400

  Highest occupied state (VBM) at    -10.55622010 eV
  | Occupation number:      2.00000000

  Lowest unoccupied state (CBM) at    -4.06134840 eV
  | Occupation number:      0.00000000

  Overall HOMO-LUMO gap:      6.49487169 eV.
  Calculating total energy contributions from superposition of free atom densities.

  Total energy components:
  | Sum of eigenvalues            :        -188.87914374 Ha       -5139.66300437 eV
  | XC energy correction          :         -41.80082276 Ha       -1137.45826041 eV
  | XC potential correction       :          53.73676725 Ha        1462.25183537 eV
  | Free-atom electrostatic energy:        -146.82945932 Ha       -3995.43287362 eV
  | Hartree energy correction     :           0.00000000 Ha           0.00000000 eV
  | vdW energy correction         :           0.00000000 Ha           0.00000000 eV
  | Entropy correction            :           0.00000000 Ha           0.00000000 eV
  | ---------------------------
  | Total energy                  :        -323.77265857 Ha       -8810.30230302 eV
  | Total energy, T -> 0          :        -323.77265857 Ha       -8810.30230302 eV  <-- do not rely on this value for anything but (periodic) metals
  | Electronic free energy        :        -323.77265857 Ha       -8810.30230302 eV

  Derived energy quantities:
  | Kinetic energy                :         320.50887082 Ha        8721.49011943 eV
  | Electrostatic energy          :        -602.48070663 Ha      -16394.33416205 eV
  | Energy correction for multipole
  | error in Hartree potential    :           0.00000000 Ha           0.00000000 eV
  | Sum of eigenvalues per atom                           :        -395.35869264 eV
  | Total energy (T->0) per atom                          :        -677.71556177 eV  <-- do not rely on this value for anything but (periodic) metals
  | Electronic free energy per atom                       :        -677.71556177 eV
  Initialize hartree_potential_storage
  Max. number of atoms included in rho_multipole:           13

  End scf initialization - timings             :  max(cpu_time)    wall_clock(cpu1)
  | Time for scf. initialization               :        1.146 s           1.154 s
  | Boundary condition initialization          :        0.000 s           0.000 s
  | Integration                                :        0.704 s           0.704 s
  | Solution of K.-S. eqns.                    :        0.004 s           0.005 s
  | Grid partitioning                          :        0.111 s           0.111 s
  | Preloading free-atom quantities on grid    :        0.002 s           0.002 s
  | Free-atom superposition energy             :        0.084 s           0.091 s
  | Total energy evaluation                    :        0.000 s           0.000 s

  Partial memory accounting:
  | Current value for overall tracked memory usage on task 0  :           0.165 MB
  | Peak value for overall tracked memory usage on task 0     :           0.678 MB after allocating wave
  | Largest tracked array allocation on task 0 so far         :           0.132 MB  when allocating H_times_psi
  Note:  These values currently only include a subset of arrays which are explicitly tracked.
  The "true" memory usage will be greater.
------------------------------------------------------------

------------------------------------------------------------
          Begin self-consistency iteration #    1

  Date     :  20200815, Time     :  002448.467
------------------------------------------------------------
  Evaluating new KS density.
  Integration grid: deviation in total charge (<rho> - N_e) =  -7.105427E-15
  Pulay mixing of updated and previous charge densities.

  Evaluating partitioned Hartree potential by multipole expansion.
  | Analytical far-field extrapolation by fixed multipoles:
  | Hartree multipole sum: apparent total charge =  -0.269314E-03
  Summing up the Hartree potential.
  Time summed over all CPUs for potential: real work        0.281 s, elapsed        0.281 s
  | RMS charge density error from multipole expansion :   0.589647E-02

  Integrating Hamiltonian matrix: batch-based integration.
  Time summed over all CPUs for integration: real work        0.493 s, elapsed        0.493 s

  Updating Kohn-Sham eigenvalues and eigenvectors using ELSI and the ELPA eigensolver.
  Finished Cholesky decomposition
  | Time :     0.000 s
  Finished transformation to standard eigenproblem
  | Time :     0.000 s
  Starting LAPACK eigensolver
  Finished solving standard eigenproblem
  | Time :     0.002 s
  Finished back-transformation of eigenvectors
  | Time :     0.000 s

  Obtaining occupation numbers and chemical potential using ELSI.
  | Chemical potential (Fermi level):    -8.22928547eV
  Writing Kohn-Sham eigenvalues.

  State    Occupation    Eigenvalue [Ha]    Eigenvalue [eV]
      1       2.00000         -18.900424         -514.30671
      2       2.00000         -18.827785         -512.33009
      3       2.00000         -14.114293         -384.06947
      4       2.00000         -10.110420         -275.11854
      5       2.00000         -10.068915         -273.98912
      6       2.00000         -10.034697         -273.05799
      7       2.00000          -1.127576          -30.68291
      8       2.00000          -1.032167          -28.08670
      9       2.00000          -0.933235          -25.39462
     10       2.00000          -0.797407          -21.69856
     11       2.00000          -0.705859          -19.20740
     12       2.00000          -0.631369          -17.18042
     13       2.00000          -0.589526          -16.04182
     14       2.00000          -0.550310          -14.97470
     15       2.00000          -0.527464          -14.35302
     16       2.00000          -0.502167          -13.66466
     17       2.00000          -0.486950          -13.25059
     18       2.00000          -0.467890          -12.73193
     19       2.00000          -0.465848          -12.67636
     20       2.00000          -0.444843          -12.10479
     21       2.00000          -0.413804          -11.26018
     22       2.00000          -0.361628           -9.84039
     23       2.00000          -0.349643           -9.51427
     24       2.00000          -0.316477           -8.61178
     25       0.00000          -0.108350           -2.94835
     26       0.00000          -0.039979           -1.08787
     27       0.00000           0.012480            0.33960
     28       0.00000           0.014563            0.39628
     29       0.00000           0.036030            0.98042
     30       0.00000           0.044709            1.21660
     31       0.00000           0.054801            1.49121
     32       0.00000           0.062413            1.69836
     33       0.00000           0.077351            2.10484
     34       0.00000           0.105850            2.88032
     35       0.00000           0.124472            3.38706
     36       0.00000           0.163080            4.43762
     37       0.00000           0.197013            5.36099
     38       0.00000           0.226822            6.17214
     39       0.00000           0.233645            6.35779
     40       0.00000           0.256883            6.99015
     41       0.00000           0.277283            7.54525
     42       0.00000           0.297654            8.09959
     43       0.00000           0.319884            8.70447
     44       0.00000           0.350049            9.52532
     45       0.00000           0.369462           10.05357
     46       0.00000           0.387258           10.53782
     47       0.00000           0.400067           10.88637
     48       0.00000           0.421255           11.46293
     49       0.00000           0.460581           12.53306
     50       0.00000           0.533789           14.52514
     51       0.00000           0.565761           15.39513
     52       0.00000           0.570214           15.51631
     53       0.00000           0.612235           16.65977

  Highest occupied state (VBM) at     -8.61178342 eV
  | Occupation number:      2.00000000

  Lowest unoccupied state (CBM) at    -2.94834619 eV
  | Occupation number:      0.00000000

  Overall HOMO-LUMO gap:      5.66343723 eV.

  Total energy components:
  | Sum of eigenvalues            :        -185.52139398 Ha       -5048.29398462 eV
  | XC energy correction          :         -42.12573233 Ha       -1146.29949967 eV
  | XC potential correction       :          54.15931100 Ha        1473.74983594 eV
  | Free-atom electrostatic energy:        -146.82945932 Ha       -3995.43287362 eV
  | Hartree energy correction     :          -3.28069288 Ha         -89.27219529 eV
  | vdW energy correction         :           0.00000000 Ha           0.00000000 eV
  | Entropy correction            :           0.00000000 Ha           0.00000000 eV
  | ---------------------------
  | Total energy                  :        -323.59796751 Ha       -8805.54871726 eV
  | Total energy, T -> 0          :        -323.59796751 Ha       -8805.54871726 eV  <-- do not rely on this value for anything but (periodic) metals
  | Electronic free energy        :        -323.59796751 Ha       -8805.54871726 eV

  Derived energy quantities:
  | Kinetic energy                :         322.27712425 Ha        8769.60674359 eV
  | Electrostatic energy          :        -603.74935943 Ha      -16428.85596118 eV
  | Energy correction for multipole
  | error in Hartree potential    :           0.01153100 Ha           0.31377447 eV
  | Sum of eigenvalues per atom                           :        -388.33030651 eV
  | Total energy (T->0) per atom                          :        -677.34990133 eV  <-- do not rely on this value for anything but (periodic) metals
  | Electronic free energy per atom                       :        -677.34990133 eV

  Self-consistency convergence accuracy:
  | Change of charge density      :  0.5755E+00
  | Change of sum of eigenvalues  :  0.9137E+02 eV
  | Change of total energy        :  0.4754E+01 eV

  End self-consistency iteration #     1       :  max(cpu_time)    wall_clock(cpu1)
  | Time for this iteration                    :        1.185 s           1.186 s
  | Charge density update                      :        0.393 s           0.394 s
  | Density mixing                             :        0.005 s           0.005 s
  | Hartree multipole update                   :        0.009 s           0.009 s
  | Hartree multipole summation                :        0.282 s           0.282 s
  | Integration                                :        0.493 s           0.493 s
  | Solution of K.-S. eqns.                    :        0.002 s           0.002 s
  | Total energy evaluation                    :        0.000 s           0.000 s

  Partial memory accounting:
  | Current value for overall tracked memory usage on task 0  :           0.165 MB
  | Peak value for overall tracked memory usage on task 0     :           0.695 MB after allocating gradient_basis_wave
  | Largest tracked array allocation on task 0 so far         :           0.397 MB  when allocating gradient_basis_wave
  Note:  These values currently only include a subset of arrays which are explicitly tracked.
  The "true" memory usage will be greater.
------------------------------------------------------------

------------------------------------------------------------
          Begin self-consistency iteration #    2

  Date     :  20200815, Time     :  002449.656
------------------------------------------------------------
  Evaluating new KS density.
  Integration grid: deviation in total charge (<rho> - N_e) =   2.131628E-14
  Pulay mixing of updated and previous charge densities.

  Evaluating partitioned Hartree potential by multipole expansion.
  | Analytical far-field extrapolation by fixed multipoles:
  | Hartree multipole sum: apparent total charge =  -0.407323E-03
  Summing up the Hartree potential.
  Time summed over all CPUs for potential: real work        0.281 s, elapsed        0.281 s
  | RMS charge density error from multipole expansion :   0.140966E-01

  Integrating Hamiltonian matrix: batch-based integration.
  Time summed over all CPUs for integration: real work        0.494 s, elapsed        0.494 s

  Updating Kohn-Sham eigenvalues and eigenvectors using ELSI and the ELPA eigensolver.
  Finished Cholesky decomposition
  | Time :     0.000 s
  Finished transformation to standard eigenproblem
  | Time :     0.000 s
  Starting LAPACK eigensolver
  Finished solving standard eigenproblem
  | Time :     0.002 s
  Finished back-transformation of eigenvectors
  | Time :     0.000 s

  Obtaining occupation numbers and chemical potential using ELSI.
  | Chemical potential (Fermi level):    -2.80632785eV
  Highest occupied state (VBM) at     -6.65794629 eV
  | Occupation number:      2.00000000

  Lowest unoccupied state (CBM) at    -1.54620924 eV
  | Occupation number:      0.00000000

  Overall HOMO-LUMO gap:      5.11173705 eV.

  Checking to see if s.c.f. parameters should be adjusted.

  Total energy components:
  | Sum of eigenvalues            :        -181.94979095 Ha       -4951.10572124 eV
  | XC energy correction          :         -42.48423688 Ha       -1156.05490493 eV
  | XC potential correction       :          54.62400456 Ha        1486.39479092 eV
  | Free-atom electrostatic energy:        -146.82945932 Ha       -3995.43287362 eV
  | Hartree energy correction     :          -6.88215608 Ha        -187.27299541 eV
  | vdW energy correction         :           0.00000000 Ha           0.00000000 eV
  | Entropy correction            :           0.00000000 Ha           0.00000000 eV
  | ---------------------------
  | Total energy                  :        -323.52163868 Ha       -8803.47170429 eV
  | Total energy, T -> 0          :        -323.52163868 Ha       -8803.47170429 eV  <-- do not rely on this value for anything but (periodic) metals
  | Electronic free energy        :        -323.52163868 Ha       -8803.47170429 eV

  Derived energy quantities:
  | Kinetic energy                :         323.59764963 Ha        8805.54006727 eV
  | Electrostatic energy          :        -604.63505143 Ha      -16452.95686663 eV
  | Energy correction for multipole
  | error in Hartree potential    :           0.02538761 Ha           0.69083208 eV
  | Sum of eigenvalues per atom                           :        -380.85428625 eV
  | Total energy (T->0) per atom                          :        -677.19013110 eV  <-- do not rely on this value for anything but (periodic) metals
  | Electronic free energy per atom                       :        -677.19013110 eV

  Self-consistency convergence accuracy:
  | Change of charge density      :  0.3593E+00
  | Change of sum of eigenvalues  :  0.9719E+02 eV
  | Change of total energy        :  0.2077E+01 eV

  End self-consistency iteration #     2       :  max(cpu_time)    wall_clock(cpu1)
  | Time for this iteration                    :        1.179 s           1.180 s
  | Charge density update                      :        0.386 s           0.386 s
  | Density mixing                             :        0.007 s           0.006 s
  | Hartree multipole update                   :        0.009 s           0.009 s
  | Hartree multipole summation                :        0.282 s           0.282 s
  | Integration                                :        0.494 s           0.494 s
  | Solution of K.-S. eqns.                    :        0.002 s           0.002 s
  | Total energy evaluation                    :        0.000 s           0.001 s

  Partial memory accounting:
  | Current value for overall tracked memory usage on task 0  :           0.166 MB
  | Peak value for overall tracked memory usage on task 0     :           0.695 MB after allocating gradient_basis_wave
  | Largest tracked array allocation on task 0 so far         :           0.397 MB  when allocating gradient_basis_wave
  Note:  These values currently only include a subset of arrays which are explicitly tracked.
  The "true" memory usage will be greater.
------------------------------------------------------------

------------------------------------------------------------
          Begin self-consistency iteration #    3

  Date     :  20200815, Time     :  002450.839
------------------------------------------------------------
  Evaluating new KS density.
  Integration grid: deviation in total charge (<rho> - N_e) =   4.263256E-14
  Pulay mixing of updated and previous charge densities.

  Evaluating partitioned Hartree potential by multipole expansion.
  | Analytical far-field extrapolation by fixed multipoles:
  | Hartree multipole sum: apparent total charge =  -0.508448E-03
  Summing up the Hartree potential.
  Time summed over all CPUs for potential: real work        0.282 s, elapsed        0.282 s
  | RMS charge density error from multipole expansion :   0.223432E-01

  Integrating Hamiltonian matrix: batch-based integration.
  Time summed over all CPUs for integration: real work        0.494 s, elapsed        0.494 s

  Updating Kohn-Sham eigenvalues and eigenvectors using ELSI and the ELPA eigensolver.
  Finished Cholesky decomposition
  | Time :     0.000 s
  Finished transformation to standard eigenproblem
  | Time :     0.000 s
  Starting LAPACK eigensolver
  Finished solving standard eigenproblem
  | Time :     0.001 s
  Finished back-transformation of eigenvectors
  | Time :     0.000 s

  Obtaining occupation numbers and chemical potential using ELSI.
  | Chemical potential (Fermi level):    -2.17781435eV
  Highest occupied state (VBM) at     -6.00611754 eV
  | Occupation number:      2.00000000

  Lowest unoccupied state (CBM) at    -0.79738792 eV
  | Occupation number:      0.00000000

  Overall HOMO-LUMO gap:      5.20872962 eV.

  Total energy components:
  | Sum of eigenvalues            :        -180.59770725 Ha       -4914.31365180 eV
  | XC energy correction          :         -42.63800462 Ha       -1160.23913815 eV
  | XC potential correction       :          54.82014440 Ha        1491.73202768 eV
  | Free-atom electrostatic energy:        -146.82945932 Ha       -3995.43287362 eV
  | Hartree energy correction     :          -8.26452938 Ha        -224.88928671 eV
  | vdW energy correction         :           0.00000000 Ha           0.00000000 eV
  | Entropy correction            :           0.00000000 Ha           0.00000000 eV
  | ---------------------------
  | Total energy                  :        -323.50955618 Ha       -8803.14292260 eV
  | Total energy, T -> 0          :        -323.50955618 Ha       -8803.14292260 eV  <-- do not rely on this value for anything but (periodic) metals
  | Electronic free energy        :        -323.50955618 Ha       -8803.14292260 eV

  Derived energy quantities:
  | Kinetic energy                :         323.19972964 Ha        8794.71211347 eV
  | Electrostatic energy          :        -604.07128119 Ha      -16437.61589792 eV
  | Energy correction for multipole
  | error in Hartree potential    :           0.03573587 Ha           0.97242249 eV
  | Sum of eigenvalues per atom                           :        -378.02412706 eV
  | Total energy (T->0) per atom                          :        -677.16484020 eV  <-- do not rely on this value for anything but (periodic) metals
  | Electronic free energy per atom                       :        -677.16484020 eV

  Self-consistency convergence accuracy:
  | Change of charge density      :  0.1995E+00
  | Change of sum of eigenvalues  :  0.3679E+02 eV
  | Change of total energy        :  0.3288E+00 eV

  End self-consistency iteration #     3       :  max(cpu_time)    wall_clock(cpu1)
  | Time for this iteration                    :        1.181 s           1.182 s
  | Charge density update                      :        0.386 s           0.386 s
  | Density mixing                             :        0.008 s           0.008 s
  | Hartree multipole update                   :        0.009 s           0.009 s
  | Hartree multipole summation                :        0.282 s           0.282 s
  | Integration                                :        0.494 s           0.494 s
  | Solution of K.-S. eqns.                    :        0.002 s           0.002 s
  | Total energy evaluation                    :        0.000 s           0.000 s

  Partial memory accounting:
  | Current value for overall tracked memory usage on task 0  :           0.166 MB
  | Peak value for overall tracked memory usage on task 0     :           0.695 MB after allocating gradient_basis_wave
  | Largest tracked array allocation on task 0 so far         :           0.397 MB  when allocating gradient_basis_wave
  Note:  These values currently only include a subset of arrays which are explicitly tracked.
  The "true" memory usage will be greater.
------------------------------------------------------------

------------------------------------------------------------
          Begin self-consistency iteration #    4

  Date     :  20200815, Time     :  002452.024
------------------------------------------------------------
  Evaluating new KS density.
  Integration grid: deviation in total charge (<rho> - N_e) =   4.263256E-14
  Pulay mixing of updated and previous charge densities.

  Evaluating partitioned Hartree potential by multipole expansion.
  | Analytical far-field extrapolation by fixed multipoles:
  | Hartree multipole sum: apparent total charge =  -0.541654E-03
  Summing up the Hartree potential.
  Time summed over all CPUs for potential: real work        0.282 s, elapsed        0.282 s
  | RMS charge density error from multipole expansion :   0.258355E-01

  Integrating Hamiltonian matrix: batch-based integration.
  Time summed over all CPUs for integration: real work        0.494 s, elapsed        0.494 s

  Updating Kohn-Sham eigenvalues and eigenvectors using ELSI and the ELPA eigensolver.
  Finished Cholesky decomposition
  | Time :     0.000 s
  Finished transformation to standard eigenproblem
  | Time :     0.000 s
  Starting LAPACK eigensolver
  Finished solving standard eigenproblem
  | Time :     0.002 s
  Finished back-transformation of eigenvectors
  | Time :     0.000 s

  Obtaining occupation numbers and chemical potential using ELSI.
  | Chemical potential (Fermi level):    -2.07128082eV
  Highest occupied state (VBM) at     -5.72229471 eV
  | Occupation number:      2.00000000

  Lowest unoccupied state (CBM) at    -0.72648095 eV
  | Occupation number:      0.00000000

  Overall HOMO-LUMO gap:      4.99581376 eV.

  Total energy components:
  | Sum of eigenvalues            :        -180.51349257 Ha       -4912.02205378 eV
  | XC energy correction          :         -42.67102033 Ha       -1161.13754125 eV
  | XC potential correction       :          54.86141325 Ha        1492.85501002 eV
  | Free-atom electrostatic energy:        -146.82945932 Ha       -3995.43287362 eV
  | Hartree energy correction     :          -8.35604853 Ha        -227.37964935 eV
  | vdW energy correction         :           0.00000000 Ha           0.00000000 eV
  | Entropy correction            :           0.00000000 Ha           0.00000000 eV
  | ---------------------------
  | Total energy                  :        -323.50860751 Ha       -8803.11710797 eV
  | Total energy, T -> 0          :        -323.50860751 Ha       -8803.11710797 eV  <-- do not rely on this value for anything but (periodic) metals
  | Electronic free energy        :        -323.50860751 Ha       -8803.11710797 eV

  Derived energy quantities:
  | Kinetic energy                :         322.78356765 Ha        8783.38776968 eV
  | Electrostatic energy          :        -603.62115483 Ha      -16425.36733640 eV
  | Energy correction for multipole
  | error in Hartree potential    :           0.03949423 Ha           1.07469268 eV
  | Sum of eigenvalues per atom                           :        -377.84785029 eV
  | Total energy (T->0) per atom                          :        -677.16285446 eV  <-- do not rely on this value for anything but (periodic) metals
  | Electronic free energy per atom                       :        -677.16285446 eV

  Self-consistency convergence accuracy:
  | Change of charge density      :  0.6442E-01
  | Change of sum of eigenvalues  :  0.2292E+01 eV
  | Change of total energy        :  0.2581E-01 eV

  End self-consistency iteration #     4       :  max(cpu_time)    wall_clock(cpu1)
  | Time for this iteration                    :        1.182 s           1.183 s
  | Charge density update                      :        0.386 s           0.386 s
  | Density mixing                             :        0.009 s           0.009 s
  | Hartree multipole update                   :        0.009 s           0.009 s
  | Hartree multipole summation                :        0.282 s           0.282 s
  | Integration                                :        0.494 s           0.494 s
  | Solution of K.-S. eqns.                    :        0.002 s           0.002 s
  | Total energy evaluation                    :        0.000 s           0.001 s

  Partial memory accounting:
  | Current value for overall tracked memory usage on task 0  :           0.166 MB
  | Peak value for overall tracked memory usage on task 0     :           0.696 MB after allocating gradient_basis_wave
  | Largest tracked array allocation on task 0 so far         :           0.397 MB  when allocating gradient_basis_wave
  Note:  These values currently only include a subset of arrays which are explicitly tracked.
  The "true" memory usage will be greater.
------------------------------------------------------------

------------------------------------------------------------
          Begin self-consistency iteration #    5

  Date     :  20200815, Time     :  002453.210
------------------------------------------------------------
  Evaluating new KS density.
  Integration grid: deviation in total charge (<rho> - N_e) =   7.105427E-15
  Pulay mixing of updated and previous charge densities.

  Evaluating partitioned Hartree potential by multipole expansion.
  | Analytical far-field extrapolation by fixed multipoles:
  | Hartree multipole sum: apparent total charge =  -0.536852E-03
  Summing up the Hartree potential.
  Time summed over all CPUs for potential: real work        0.281 s, elapsed        0.281 s
  | RMS charge density error from multipole expansion :   0.255685E-01

  Integrating Hamiltonian matrix: batch-based integration.
  Time summed over all CPUs for integration: real work        0.494 s, elapsed        0.494 s

  Updating Kohn-Sham eigenvalues and eigenvectors using ELSI and the ELPA eigensolver.
  Finished Cholesky decomposition
  | Time :     0.000 s
  Finished transformation to standard eigenproblem
  | Time :     0.000 s
  Starting LAPACK eigensolver
  Finished solving standard eigenproblem
  | Time :     0.002 s
  Finished back-transformation of eigenvectors
  | Time :     0.000 s

  Obtaining occupation numbers and chemical potential using ELSI.
  | Chemical potential (Fermi level):    -2.11718422eV
  Highest occupied state (VBM) at     -5.84440630 eV
  | Occupation number:      2.00000000

  Lowest unoccupied state (CBM) at    -0.78732699 eV
  | Occupation number:      0.00000000

  Overall HOMO-LUMO gap:      5.05707931 eV.

  Total energy components:
  | Sum of eigenvalues            :        -180.64532871 Ha       -4915.60949772 eV
  | XC energy correction          :         -42.65359154 Ha       -1160.66327972 eV
  | XC potential correction       :          54.83884082 Ha        1492.24078313 eV
  | Free-atom electrostatic energy:        -146.82945932 Ha       -3995.43287362 eV
  | Hartree energy correction     :          -8.21877309 Ha        -223.64419467 eV
  | vdW energy correction         :           0.00000000 Ha           0.00000000 eV
  | Entropy correction            :           0.00000000 Ha           0.00000000 eV
  | ---------------------------
  | Total energy                  :        -323.50831185 Ha       -8803.10906261 eV
  | Total energy, T -> 0          :        -323.50831185 Ha       -8803.10906261 eV  <-- do not rely on this value for anything but (periodic) metals
  | Electronic free energy        :        -323.50831185 Ha       -8803.10906261 eV

  Derived energy quantities:
  | Kinetic energy                :         322.71748365 Ha        8781.58953240 eV
  | Electrostatic energy          :        -603.57220395 Ha      -16424.03531528 eV
  | Energy correction for multipole
  | error in Hartree potential    :           0.03893422 Ha           1.05945391 eV
  | Sum of eigenvalues per atom                           :        -378.12380752 eV
  | Total energy (T->0) per atom                          :        -677.16223559 eV  <-- do not rely on this value for anything but (periodic) metals
  | Electronic free energy per atom                       :        -677.16223559 eV

  Self-consistency convergence accuracy:
  | Change of charge density      :  0.2223E-01
  | Change of sum of eigenvalues  : -0.3587E+01 eV
  | Change of total energy        :  0.8045E-02 eV

  End self-consistency iteration #     5       :  max(cpu_time)    wall_clock(cpu1)
  | Time for this iteration                    :        1.183 s           1.184 s
  | Charge density update                      :        0.386 s           0.386 s
  | Density mixing                             :        0.011 s           0.011 s
  | Hartree multipole update                   :        0.008 s           0.008 s
  | Hartree multipole summation                :        0.282 s           0.282 s
  | Integration                                :        0.494 s           0.494 s
  | Solution of K.-S. eqns.                    :        0.002 s           0.002 s
  | Total energy evaluation                    :        0.000 s           0.001 s

  Partial memory accounting:
  | Current value for overall tracked memory usage on task 0  :           0.166 MB
  | Peak value for overall tracked memory usage on task 0     :           0.696 MB after allocating gradient_basis_wave
  | Largest tracked array allocation on task 0 so far         :           0.397 MB  when allocating gradient_basis_wave
  Note:  These values currently only include a subset of arrays which are explicitly tracked.
  The "true" memory usage will be greater.
------------------------------------------------------------

------------------------------------------------------------
          Begin self-consistency iteration #    6

  Date     :  20200815, Time     :  002454.397
------------------------------------------------------------
  Evaluating new KS density.
  Integration grid: deviation in total charge (<rho> - N_e) =   2.842171E-14
  Pulay mixing of updated and previous charge densities.

  Evaluating partitioned Hartree potential by multipole expansion.
  | Analytical far-field extrapolation by fixed multipoles:
  | Hartree multipole sum: apparent total charge =  -0.538314E-03
  Summing up the Hartree potential.
  Time summed over all CPUs for potential: real work        0.281 s, elapsed        0.281 s
  | RMS charge density error from multipole expansion :   0.258394E-01

  Integrating Hamiltonian matrix: batch-based integration.
  Time summed over all CPUs for integration: real work        0.494 s, elapsed        0.494 s

  Updating Kohn-Sham eigenvalues and eigenvectors using ELSI and the ELPA eigensolver.
  Finished Cholesky decomposition
  | Time :     0.000 s
  Finished transformation to standard eigenproblem
  | Time :     0.000 s
  Starting LAPACK eigensolver
  Finished solving standard eigenproblem
  | Time :     0.002 s
  Finished back-transformation of eigenvectors
  | Time :     0.000 s

  Obtaining occupation numbers and chemical potential using ELSI.
  | Chemical potential (Fermi level):    -2.13214477eV
  Highest occupied state (VBM) at     -5.87809472 eV
  | Occupation number:      2.00000000

  Lowest unoccupied state (CBM) at    -0.82620912 eV
  | Occupation number:      0.00000000

  Overall HOMO-LUMO gap:      5.05188559 eV.

  Total energy components:
  | Sum of eigenvalues            :        -180.70658680 Ha       -4917.27641515 eV
  | XC energy correction          :         -42.64534490 Ha       -1160.43887733 eV
  | XC potential correction       :          54.82813335 Ha        1491.94941788 eV
  | Free-atom electrostatic energy:        -146.82945932 Ha       -3995.43287362 eV
  | Hartree energy correction     :          -8.15497599 Ha        -221.90818716 eV
  | vdW energy correction         :           0.00000000 Ha           0.00000000 eV
  | Entropy correction            :           0.00000000 Ha           0.00000000 eV
  | ---------------------------
  | Total energy                  :        -323.50823367 Ha       -8803.10693537 eV
  | Total energy, T -> 0          :        -323.50823367 Ha       -8803.10693537 eV  <-- do not rely on this value for anything but (periodic) metals
  | Electronic free energy        :        -323.50823367 Ha       -8803.10693537 eV

  Derived energy quantities:
  | Kinetic energy                :         322.61968211 Ha        8778.92821706 eV
  | Electrostatic energy          :        -603.48257087 Ha      -16421.59627510 eV
  | Energy correction for multipole
  | error in Hartree potential    :           0.03893804 Ha           1.05955789 eV
  | Sum of eigenvalues per atom                           :        -378.25203193 eV
  | Total energy (T->0) per atom                          :        -677.16207195 eV  <-- do not rely on this value for anything but (periodic) metals
  | Electronic free energy per atom                       :        -677.16207195 eV

  Self-consistency convergence accuracy:
  | Change of charge density      :  0.1093E-01
  | Change of sum of eigenvalues  : -0.1667E+01 eV
  | Change of total energy        :  0.2127E-02 eV

  End self-consistency iteration #     6       :  max(cpu_time)    wall_clock(cpu1)
  | Time for this iteration                    :        1.185 s           1.185 s
  | Charge density update                      :        0.386 s           0.386 s
  | Density mixing                             :        0.012 s           0.011 s
  | Hartree multipole update                   :        0.009 s           0.009 s
  | Hartree multipole summation                :        0.282 s           0.282 s
  | Integration                                :        0.494 s           0.495 s
  | Solution of K.-S. eqns.                    :        0.002 s           0.002 s
  | Total energy evaluation                    :        0.000 s           0.000 s

  Partial memory accounting:
  | Current value for overall tracked memory usage on task 0  :           0.166 MB
  | Peak value for overall tracked memory usage on task 0     :           0.696 MB after allocating gradient_basis_wave
  | Largest tracked array allocation on task 0 so far         :           0.397 MB  when allocating gradient_basis_wave
  Note:  These values currently only include a subset of arrays which are explicitly tracked.
  The "true" memory usage will be greater.
------------------------------------------------------------

------------------------------------------------------------
          Begin self-consistency iteration #    7

  Date     :  20200815, Time     :  002455.585
------------------------------------------------------------
  Evaluating new KS density.
  Integration grid: deviation in total charge (<rho> - N_e) =   4.263256E-14
  Pulay mixing of updated and previous charge densities.

  Evaluating partitioned Hartree potential by multipole expansion.
  | Analytical far-field extrapolation by fixed multipoles:
  | Hartree multipole sum: apparent total charge =  -0.539990E-03
  Summing up the Hartree potential.
  Time summed over all CPUs for potential: real work        0.282 s, elapsed        0.282 s
  | RMS charge density error from multipole expansion :   0.259980E-01

  Integrating Hamiltonian matrix: batch-based integration.
  Time summed over all CPUs for integration: real work        0.498 s, elapsed        0.498 s

  Updating Kohn-Sham eigenvalues and eigenvectors using ELSI and the ELPA eigensolver.
  Finished Cholesky decomposition
  | Time :     0.000 s
  Finished transformation to standard eigenproblem
  | Time :     0.000 s
  Starting LAPACK eigensolver
  Finished solving standard eigenproblem
  | Time :     0.002 s
  Finished back-transformation of eigenvectors
  | Time :     0.000 s

[...]
  |   Hirshfeld dipole moment :      0.06418520
  |   Hirshfeld second moments:     -0.00006054      -0.02458966      -0.01419588
  |                                 -0.02458966      -0.03003063       0.00459533
  |                                 -0.01419588       0.00459533      -0.02560836
  ----------------------------------------------------------------------
  | Atom    12: O
  |   Hirshfeld charge        :     -0.15360495
  |   Free atom volume        :     23.61338643
  |   Hirshfeld volume        :     21.25526666
  |   Hirshfeld dipole vector :      0.02140680       0.03573246      -0.01223358
  |   Hirshfeld dipole moment :      0.04341336
  |   Hirshfeld second moments:      0.04634688      -0.01075877       0.00319651
  |                                 -0.01075877       0.02574059       0.01691320
  |                                  0.00319651       0.01691320       0.07645494
  ----------------------------------------------------------------------
  | Atom    13: H
  |   Hirshfeld charge        :      0.12124746
  |   Free atom volume        :      9.95071624
  |   Hirshfeld volume        :      7.22563871
  |   Hirshfeld dipole vector :      0.00337489      -0.01249903      -0.06691141
  |   Hirshfeld dipole moment :      0.06815242
  |   Hirshfeld second moments:      0.10223625      -0.01307244       0.01162760
  |                                 -0.01307244       0.06963644       0.03320857
  |                                  0.01162760       0.03320857       0.06850071
  ----------------------------------------------------------------------


  Total energy components:
  | Sum of eigenvalues            :        -180.69396854 Ha       -4916.93305490 eV
  | XC energy correction          :         -42.64372437 Ha       -1160.39478032 eV
  | XC potential correction       :          54.82610985 Ha        1491.89435588 eV
  | Free-atom electrostatic energy:        -146.82945932 Ha       -3995.43287362 eV
  | Hartree energy correction     :          -8.16717284 Ha        -222.24008052 eV
  | vdW energy correction         :          -0.00346969 Ha          -0.09441507 eV
  | Entropy correction            :           0.00000000 Ha           0.00000000 eV
  | ---------------------------
  | Total energy                  :        -323.51168492 Ha       -8803.20084855 eV
  | Total energy, T -> 0          :        -323.51168492 Ha       -8803.20084855 eV  <-- do not rely on this value for anything but (periodic) metals
  | Electronic free energy        :        -323.51168492 Ha       -8803.20084855 eV

  Derived energy quantities:
  | Kinetic energy                :         322.58308567 Ha        8777.93237739 eV
  | Electrostatic energy          :        -603.44757653 Ha      -16420.64403056 eV
  | Energy correction for multipole
  | error in Hartree potential    :           0.03898903 Ha           1.06094548 eV
  | Sum of eigenvalues per atom                           :        -378.22561961 eV
  | Total energy (T->0) per atom                          :        -677.16929604 eV  <-- do not rely on this value for anything but (periodic) metals
  | Electronic free energy per atom                       :        -677.16929604 eV

  atomic forces [eV/Ang]:
  -----------------------
  atom #    1
   Hellmann-Feynman              :  0.661841E+00  0.358903E+00  0.167749E+01
   Ionic forces                  :  0.000000E+00  0.000000E+00  0.000000E+00
   Multipole                     : -0.295365E-01  0.392269E+00 -0.275279E+00
   Pulay + GGA                   : -0.936457E+00  0.309468E-01 -0.155530E+01
   Van der Waals                 :  0.208145E-02  0.790238E-03 -0.109183E-02
   ----------------------------------------------------------------
   Total forces(   1)            : -0.302071E+00  0.782909E+00 -0.154185E+00
  atom #    2
   Hellmann-Feynman              :  0.219132E+00 -0.890962E-02 -0.169600E+00
   Ionic forces                  :  0.000000E+00  0.000000E+00  0.000000E+00
   Multipole                     :  0.183757E+00  0.324052E-01  0.129298E-01
   Pulay + GGA                   : -0.139050E+00 -0.491613E-02  0.607602E-01
   Van der Waals                 :  0.444515E-02 -0.380157E-02 -0.643709E-02
   ----------------------------------------------------------------
   Total forces(   2)            :  0.268283E+00  0.147779E-01 -0.102347E+00
  atom #    3
   Hellmann-Feynman              : -0.101680E+01 -0.108028E+02 -0.152982E+01
   Ionic forces                  :  0.000000E+00  0.000000E+00  0.000000E+00
   Multipole                     : -0.119625E+00  0.410538E-01 -0.860588E+00
   Pulay + GGA                   :  0.143162E+01  0.990196E+01  0.302314E+01
   Van der Waals                 :  0.356266E-02 -0.517417E-02 -0.898177E-02
   ----------------------------------------------------------------
   Total forces(   3)            :  0.298757E+00 -0.864973E+00  0.623747E+00
  atom #    4
   Hellmann-Feynman              : -0.454530E-01  0.275562E+00 -0.146451E+00
   Ionic forces                  :  0.000000E+00  0.000000E+00  0.000000E+00
   Multipole                     : -0.853757E-01  0.412713E-01 -0.653611E-01
   Pulay + GGA                   :  0.176930E+00 -0.162263E+00  0.198961E-02
   Van der Waals                 : -0.153870E-02  0.132977E-02 -0.892669E-02
   ----------------------------------------------------------------
   Total forces(   4)            :  0.445625E-01  0.155900E+00 -0.218749E+00
  atom #    5
   Hellmann-Feynman              : -0.586999E-01  0.231205E+00 -0.208257E+00
   Ionic forces                  :  0.000000E+00  0.000000E+00  0.000000E+00
   Multipole                     :  0.335735E-01  0.223332E-01 -0.114713E+00
   Pulay + GGA                   : -0.132621E+00 -0.180007E+00  0.105274E+00
   Van der Waals                 : -0.220529E-02 -0.351122E-02  0.409492E-04
   ----------------------------------------------------------------
   Total forces(   5)            : -0.159952E+00  0.700199E-01 -0.217654E+00
  atom #    6
   Hellmann-Feynman              :  0.334409E+00 -0.577101E+00  0.427758E+00
   Ionic forces                  :  0.000000E+00  0.000000E+00  0.000000E+00
   Multipole                     : -0.100207E+00  0.606717E+00  0.227140E+00
   Pulay + GGA                   :  0.952219E-01 -0.437511E+00 -0.373064E+00
   Van der Waals                 : -0.373256E-02  0.652547E-02  0.396449E-02
   ----------------------------------------------------------------
   Total forces(   6)            :  0.325692E+00 -0.401369E+00  0.285799E+00
  atom #    7
   Hellmann-Feynman              : -0.247139E+00 -0.754984E-01 -0.535588E-01
   Ionic forces                  :  0.000000E+00  0.000000E+00  0.000000E+00
   Multipole                     : -0.121808E+00  0.498750E-01  0.330747E-01
   Pulay + GGA                   :  0.114444E+00  0.151242E-01  0.539053E-01
   Van der Waals                 : -0.174440E-02  0.320758E-02  0.729460E-02
   ----------------------------------------------------------------
   Total forces(   7)            : -0.256248E+00 -0.729157E-02  0.407158E-01
  atom #    8
   Hellmann-Feynman              :  0.177018E-01  0.148608E-01  0.201333E+00
   Ionic forces                  :  0.000000E+00  0.000000E+00  0.000000E+00
   Multipole                     :  0.171521E-01  0.635198E-01  0.125862E+00
   Pulay + GGA                   : -0.520916E-01 -0.536787E-01 -0.112334E+00
   Van der Waals                 : -0.300709E-02  0.113430E-01  0.599938E-03
   ----------------------------------------------------------------
   Total forces(   8)            : -0.202448E-01  0.360450E-01  0.215461E+00
  atom #    9
   Hellmann-Feynman              :  0.114676E+00  0.607599E-01 -0.175326E+00
   Ionic forces                  :  0.000000E+00  0.000000E+00  0.000000E+00
   Multipole                     :  0.168191E-01  0.126874E+00 -0.876537E-02
   Pulay + GGA                   : -0.389341E-01 -0.717078E-01  0.582597E-01
   Van der Waals                 : -0.100092E-02  0.510898E-02  0.515741E-02
   ----------------------------------------------------------------
   Total forces(   9)            :  0.915599E-01  0.121035E+00 -0.120674E+00
  atom #   10
   Hellmann-Feynman              :  0.218592E+01  0.316843E+01  0.152882E+01
   Ionic forces                  :  0.000000E+00  0.000000E+00  0.000000E+00
   Multipole                     :  0.435867E-02 -0.957143E-01  0.246639E+00
   Pulay + GGA                   : -0.146660E+01 -0.241082E+01 -0.647885E-01
   Van der Waals                 :  0.520064E-02 -0.135148E-01 -0.115709E-03
   ----------------------------------------------------------------
   Total forces(  10)            :  0.728885E+00  0.648378E+00  0.171055E+01
  atom #   11
   Hellmann-Feynman              :  0.415299E+01 -0.231710E+01  0.143096E+02
   Ionic forces                  :  0.000000E+00  0.000000E+00  0.000000E+00
   Multipole                     :  0.250358E+00 -0.656876E+00  0.874208E+00
   Pulay + GGA                   : -0.372354E+01  0.379385E+01 -0.139494E+02
   Van der Waals                 : -0.171886E-02 -0.117908E-01  0.819316E-02
   ----------------------------------------------------------------
   Total forces(  11)            :  0.678093E+00  0.808082E+00  0.124258E+01
  atom #   12
   Hellmann-Feynman              : -0.796011E+01 -0.115723E+02  0.186332E+01
   Ionic forces                  :  0.000000E+00  0.000000E+00  0.000000E+00
   Multipole                     : -0.802815E+00 -0.149023E+01 -0.163134E-01
   Pulay + GGA                   :  0.775566E+01  0.116943E+02 -0.348967E+01
   Van der Waals                 :  0.932331E-03  0.840614E-02  0.245808E-02
   ----------------------------------------------------------------
   Total forces(  12)            : -0.100633E+01 -0.135983E+01 -0.164021E+01
  atom #   13
   Hellmann-Feynman              : -0.652903E+00  0.511337E-01 -0.195753E+01
   Ionic forces                  :  0.000000E+00  0.000000E+00  0.000000E+00
   Multipole                     :  0.266128E-01  0.594027E-01 -0.867121E-01
   Pulay + GGA                   : -0.627518E-01 -0.112557E+00  0.373685E+00
   Van der Waals                 : -0.127443E-02  0.108134E-02 -0.215554E-02
   ----------------------------------------------------------------
   Total forces(  13)            : -0.690317E+00 -0.939284E-03 -0.167272E+01

  Timings for VdW correction (Tkatchenko-Scheffler 2009 or later):
  | CPU time:        0.090 s, Wall clock time:        0.092 s.
  Removing unitary transformations (pure translations, rotations) from forces on atoms.
  Atomic forces before filtering:
  | Net force on center of mass :   0.667203E-03  0.274728E-02 -0.768195E-02 eV/A
  | Net torque on center of mass:   0.988655E-02 -0.102056E-02 -0.436078E-03 eV
  Atomic forces after filtering:
  | Net force on center of mass :   0.267609E-15 -0.794465E-16 -0.356812E-15 eV/A
  | Net torque on center of mass:   0.570139E-15  0.188817E-15 -0.113290E-14 eV

  Energy and forces in a compact form:
  | Total energy uncorrected      :         -0.880320084855138E+04 eV
  | Total energy corrected        :         -0.880320084855138E+04 eV  <-- do not rely on this value for anything but (periodic) metals
  | Electronic free energy        :         -0.880320084855138E+04 eV
  Total atomic forces (unitary forces cleaned) [eV/Ang]:
  |   1         -0.302122963027099E+00          0.782692101537118E+00         -0.153604447133236E+00
  |   2          0.268231037108652E+00          0.145694864892790E-01         -0.101802144140208E+00
  |   3          0.298658229278456E+00         -0.865551209460089E+00          0.624343562946142E+00
  |   4          0.444590417556686E-01          0.155304909159157E+00         -0.218243376195650E+00
  |   5         -0.160073332209460E+00          0.693015735464801E-01         -0.217204355840088E+00
  |   6          0.325653103619684E+00         -0.401406079678257E+00          0.286077133271335E+00
  |   7         -0.256286388241013E+00         -0.733348584676258E-02          0.410222197193041E-01
  |   8         -0.202502215126052E-01          0.362714220468709E-01          0.215724170143591E+00
  |   9          0.914972855999712E-01          0.120873523741285E+00         -0.120635234778857E+00
  |  10          0.728867568167539E+00          0.648346130167536E+00          0.171147059667260E+01
  |  11          0.678114945573721E+00          0.808339710300252E+00          0.124355709254538E+01
  |  12         -0.100636667367490E+01         -0.136003618029343E+01         -0.163905228745280E+01
  |  13         -0.690381632438612E+00         -0.137190170943994E-02         -0.167165292975751E+01

  ------------------------------------ 
  Start decomposition of the XC Energy 
  ------------------------------------ 
  X and C from original XC functional choice 
  Hartree-Fock Energy :          0.000000000 Ha              0.000000000 eV
  X Energy            :        -41.040987296 Ha          -1116.782085572 eV
  C Energy            :         -1.602737073 Ha            -43.612694749 eV
  Total XC Energy     :        -42.643724369 Ha          -1160.394780321 eV
  ------------------------------------ 
  LDA X and C from self-consistent density 
  X Energy LDA        :        -37.262887483 Ha          -1013.974758872 eV
  C Energy LDA        :         -3.139215182 Ha            -85.422391356 eV
  ------------------------------------ 
  End decomposition of the XC Energy 
  ------------------------------------ 

------------------------------------------------------------

------------------------------------------------------------------------------
  Final output of selected total energy values:

  The following output summarizes some interesting total energy values
  at the end of a run (AFTER all relaxation, molecular dynamics, etc.).

  | Total energy of the DFT / Hartree-Fock s.c.f. calculation      :          -8803.200848551 eV
  | Final zero-broadening corrected energy (caution - metals only) :          -8803.200848551 eV
  | For reference only, the value of 1 Hartree used in FHI-aims is :             27.211384500 eV

  Before relying on these values, please be sure to understand exactly which
  total energy value is referred to by a given number. Different objects may
  all carry the same name 'total energy'. Definitions:

  Total energy of the DFT / Hartree-Fock s.c.f. calculation:
  | Note that this energy does not include ANY quantities calculated after the
  | s.c.f. cycle, in particular not ANY RPA, MP2, etc. many-body perturbation terms.

  Final zero-broadening corrected energy:
  | For metallic systems only, a broadening of the occupation numbers at the Fermi
  | level can be extrapolated back to zero broadening by an electron-gas inspired
  | formula. For all systems that are not real metals, this value can be
  | meaningless and should be avoided.

------------------------------------------------------------------------------
  Methods described in the following list of references were used in this FHI-aims run.
  If you publish the results, please make sure to cite these reference if they apply.
  FHI-aims is an academic code, and for our developers (often, Ph.D. students
  and postdocs), scientific credit in the community is essential.
  Thank you for helping us!

  For any use of FHI-aims, please cite:

    Volker Blum, Ralf Gehrke, Felix Hanke, Paula Havu, Ville Havu,
    Xinguo Ren, Karsten Reuter, and Matthias Scheffler
    'Ab initio molecular simulations with numeric atom-centered orbitals'
    Computer Physics Communications 180, 2175-2196 (2009)
    http://dx.doi.org/10.1016/j.cpc.2009.06.022


  The scalable eigensolver library ELPA was used in your run.
  ELPA is essential especially for large systems on hundreds or thousands of CPUs.
  For ELPA, please cite:

    Andreas Marek, Volker Blum, Rainer Johanni, Ville Havu, Bruno Lang,
    Thomas Auckenthaler, Alexander Heinecke, Hans-Joachim Bungartz, and Hermann Lederer,
    'The ELPA Library - Scalable Parallel Eigenvalue Solutions
    for Electronic Structure Theory and Computational Science'
    The Journal of Physics: Condensed Matter 26, 213201 (2014).
    http://dx.doi.org/10.1088/0953-8984/26/21/213201


  The ELSI infrastructure was used in your run to solve the Kohn-Sham electronic structure.
  Please check out http://elsi-interchange.org to learn more.
  If scalability is important for your project, please acknowledge ELSI by citing:

    V. W-z. Yu, F. Corsetti, A. Garcia, W. P. Huhn, M. Jacquelin, W. Jia,
    B. Lange, L. Lin, J. Lu, W. Mi, A. Seifitokaldani, A. Vazquez-Mayagoitia,
    C. Yang, H. Yang, and V. Blum
    'ELSI: A unified software interface for Kohn-Sham electronic structure solvers'
    Computer Physics Communications 222, 267-285 (2018).
    http://dx.doi.org/10.1016/j.cpc.2017.09.007


  For the real-space grid partitioning and parallelization used in this calculation, please cite:

    Ville Havu, Volker Blum, Paula Havu, and Matthias Scheffler,
    'Efficient O(N) integration for all-electron electronic structure calculation'
    'using numerically tabulated basis functions'
    Journal of Computational Physics 228, 8367-8379 (2009).
    http://dx.doi.org/10.1016/j.jcp.2009.08.008

  Of course, there are many other important community references, e.g., those cited in the
  above references. Our list is limited to references that describe implementations in the
  FHI-aims code. The reason is purely practical (length of this list) - please credit others as well.

------------------------------------------------------------
          Leaving FHI-aims.
          Date     :  20200815, Time     :  002509.903

          Computational steps:
          | Number of self-consistency cycles          :           16
          | Number of SCF (re)initializations          :            1

          Detailed time accounting                     :  max(cpu_time)    wall_clock(cpu1)
          | Total time                                 :       22.649 s          22.749 s
          | Preparation time                           :        0.145 s           0.146 s
          | Boundary condition initalization           :        0.000 s           0.000 s
          | Grid partitioning                          :        0.111 s           0.111 s
          | Preloading free-atom quantities on grid    :        0.002 s           0.002 s
          | Free-atom superposition energy             :        0.084 s           0.091 s
          | Total time for integrations                :        8.623 s           8.628 s
          | Total time for solution of K.-S. equations :        0.036 s           0.037 s
          | Total time for density & force components  :        7.150 s           7.154 s
          | Total time for mixing                      :        0.212 s           0.213 s
          | Total time for Hartree multipole update    :        0.140 s           0.148 s
          | Total time for Hartree multipole sum       :        5.746 s           5.754 s
          | Total time for total energy evaluation     :        0.003 s           0.005 s
          | Total time for vdW correction              :        0.090 s           0.092 s

          Partial memory accounting:
          | Residual value for overall tracked memory usage across tasks :           0.000 MB (should be 0.000 MB)
          | Peak values for overall tracked memory usage (after allocating hessian_basis_wave):
          |   Minimum:        1.622 MB (on task 1)
          |   Maximum:        1.622 MB (on task 1)
          |   Average:        1.622 MB
          | Largest tracked array allocation (hessian_basis_wave):
          |   Minimum:        0.794 MB (on task 1)
          |   Maximum:        0.794 MB (on task 1)
          |   Average:        0.794 MB
          Note:  These values currently only include a subset of arrays which are explicitly tracked.
          The "true" memory usage will be greater.

          Have a nice day.
------------------------------------------------------------
