  MPI-parallelism will be employed.
------------------------------------------------------------
          Invoking FHI-aims ...
          Version 171221_1
          Compiled on 2019/09/09 at 14:39:39 on host puhti-login2.bullx.

          When using FHI-aims, please cite the following reference:

          Volker Blum, Ralf Gehrke, Felix Hanke, Paula Havu,
          Ville Havu, Xinguo Ren, Karsten Reuter, and Matthias Scheffler,
          'Ab Initio Molecular Simulations with Numeric Atom-Centered Orbitals',
          Computer Physics Communications 180, 2175-2196 (2009)

          For any questions about FHI-aims, please visit the aimsclub website
          with its forums and wiki. Contributions to both the forums and the
          wiki are warmly encouraged - they are for you, and everyone is welcome there.

------------------------------------------------------------



  Date     :  20200902, Time     :  105034.231
  Time zero on CPU 1             :   0.116780000000000E-01  s.
  Internal wall clock time zero  :           368275834.231  s.

  FHI-aims created a unique identifier for this run for later identification
  aims_uuid : 6B7286D6-58B8-4EC2-AB6C-6AF57B75E73E

  Using        1 parallel tasks.
  Task        0 on host r18c48.bullx reporting.

  Performing system and environment tests:
  | Environment variable OMP_NUM_THREADS correctly set to 1.
  | Stacksize not measured: no C compiler
  | Checking for scalapack...
  | Testing pdtran()...
  | All pdtran() tests passed.

  Obtaining array dimensions for all initial allocations:
  
  -----------------------------------------------------------------------
  Parsing control.in (first pass over file, find array dimensions only).
  The contents of control.in will be repeated verbatim below
  unless switched off by setting 'verbatim_writeout .false.' .
  in the first line of control.in .
  -----------------------------------------------------------------------
  
  #########################################################################################
  #
  #  Volker Blum, FHI 2009 : Test run input file control.in for simple H2O
  #
  #########################################################################################
  #
  #  Physical model
  #
    xc                 pbe
    vdw_correction_hirshfeld
    spin               none
    relativistic       none
    charge             0.
  #
  #  SCF convergence
  #
    occupation_type    gaussian 0.01
    mixer              pulay
      n_max_pulay        10
      charge_mix_param   0.2
    sc_accuracy_rho    1E-5
    sc_accuracy_eev    1E-3
    sc_accuracy_etot   1E-6
    sc_accuracy_forces 1E-4
    sc_iter_limit      100
  #
  #  Relaxation
  #
  #  relax_geometry   bfgs 1.e-3
  #
  ################################################################################
  #
  #  FHI-aims code project
  #  VB, Fritz-Haber Institut, 2009
  #
  #  Suggested "light" defaults for H atom (to be pasted into control.in file)
  #  Be sure to double-check any results obtained with these settings for post-processing,
  #  e.g., with the "tight" defaults and larger basis sets.
  #
  ################################################################################
    species        H
  #     global species definitions
      nucleus             1
      mass                1.00794
  #
      l_hartree           4
  #
      cut_pot             3.5  1.5  1.0
      basis_dep_cutoff    1e-4
  #
      radial_base         24 5.0
      radial_multiplier   1
      angular_grids       specified
        division   0.2421   50
        division   0.3822  110
        division   0.4799  194
        division   0.5341  302
  #      division   0.5626  434
  #      division   0.5922  590
  #      division   0.6542  770
  #      division   0.6868 1202
  #      outer_grid  770
        outer_grid  302
  ################################################################################
  #
  #  Definition of "minimal" basis
  #
  ################################################################################
  #     valence basis states
      valence      1  s   1.
  #     ion occupancy
      ion_occ      1  s   0.5
  ################################################################################
  #
  #  Suggested additional basis functions. For production calculations,
  #  uncomment them one after another (the most important basis functions are
  #  listed first).
  #
  #  Basis constructed for dimers: 0.5 A, 0.7 A, 1.0 A, 1.5 A, 2.5 A
  #
  ################################################################################
  #  "First tier" - improvements: -1014.90 meV to -62.69 meV
       hydro 2 s 2.1
       hydro 2 p 3.5
  #  "Second tier" - improvements: -12.89 meV to -1.83 meV
  #     hydro 1 s 0.85
  #     hydro 2 p 3.7
  #     hydro 2 s 1.2
  #     hydro 3 d 7
  #  "Third tier" - improvements: -0.25 meV to -0.12 meV
  #     hydro 4 f 11.2
  #     hydro 3 p 4.8
  #     hydro 4 d 9
  #     hydro 3 s 3.2
  ################################################################################
  #
  #  FHI-aims code project
  #  VB, Fritz-Haber Institut, 2009
  #
  #  Suggested "light" defaults for C atom (to be pasted into control.in file)
  #  Be sure to double-check any results obtained with these settings for post-processing,
  #  e.g., with the "tight" defaults and larger basis sets.
  #
  ################################################################################
    species        C
  #     global species definitions
      nucleus             6
      mass                12.0107
  #
      l_hartree           4
  #
      cut_pot             3.5  1.5  1.0
      basis_dep_cutoff    1e-4
  #
      radial_base         34 5.0
      radial_multiplier   1
      angular_grids specified
        division   0.3326   50
        division   0.5710  110
        division   0.7727  194
        division   0.8772  302
  #      division   0.9334  434
  #      division   0.9625  590
  #      division   0.9924  770
  #      division   1.0230  974
  #      division   1.4589 1202
  #     outer_grid  974
       outer_grid 302
  ################################################################################
  #
  #  Definition of "minimal" basis
  #
  ################################################################################
  #     valence basis states
      valence      2  s   2.
      valence      2  p   2.
  #     ion occupancy
      ion_occ      2  s   1.
      ion_occ      2  p   1.
  ################################################################################
  #
  #  Suggested additional basis functions. For production calculations,
  #  uncomment them one after another (the most important basis functions are
  #  listed first).
  #
  #  Constructed for dimers: 1.0 A, 1.25 A, 1.5 A, 2.0 A, 3.0 A
  #
  ################################################################################
  #  "First tier" - improvements: -1214.57 meV to -155.61 meV
       hydro 2 p 1.7
       hydro 3 d 6
       hydro 2 s 4.9
  #  "Second tier" - improvements: -67.75 meV to -5.23 meV
  #     hydro 4 f 9.8
  #     hydro 3 p 5.2
  #     hydro 3 s 4.3
  #     hydro 5 g 14.4
  #     hydro 3 d 6.2
  #  "Third tier" - improvements: -2.43 meV to -0.60 meV
  #     hydro 2 p 5.6
  #     hydro 2 s 1.4
  #     hydro 3 d 4.9
  #     hydro 4 f 11.2
  #  "Fourth tier" - improvements: -0.39 meV to -0.18 meV
  #     hydro 2 p 2.1
  #     hydro 5 g 16.4
  #     hydro 4 d 13.2
  #     hydro 3 s 13.6
  #     hydro 4 f 17.6
  #  Further basis functions - improvements: -0.08 meV and below
  #     hydro 3 s 2
  #     hydro 3 p 6
  #     hydro 4 d 20
  ################################################################################
  #
  #  FHI-aims code project
  #  VB, Fritz-Haber Institut, 2009
  #
  #  Suggested "light" defaults for N atom (to be pasted into control.in file)
  #  Be sure to double-check any results obtained with these settings for post-processing,
  #  e.g., with the "tight" defaults and larger basis sets.
  #
  ################################################################################
    species        N
  #     global species definitions
      nucleus             7
      mass                14.0067
  #
      l_hartree           4
  #
      cut_pot             3.5  1.5  1.0
      basis_dep_cutoff    1e-4
  #
      radial_base         35 5.0
      radial_multiplier   1
      angular_grids       specified
        division   0.2599   50
        division   0.4601  110
        division   0.5885  194
        division   0.6503  302
  #      division   0.6939  434
  #      division   0.7396  590
  #      division   0.7632  770
  #      division   0.8122  974
  #      division   1.1604 1202
  #      outer_grid  974
        outer_grid  302
  ################################################################################
  #
  #  Definition of "minimal" basis
  #
  ################################################################################
  #     valence basis states
      valence      2  s   2.
      valence      2  p   3.
  #     ion occupancy
      ion_occ      2  s   1.
      ion_occ      2  p   2.
  ################################################################################
  #
  #  Suggested additional basis functions. For production calculations,
  #  uncomment them one after another (the most important basis functions are
  #  listed first).
  #
  #  Constructed for dimers: 1.0 A, 1.1 A, 1.5 A, 2.0 A, 3.0 A
  #
  ################################################################################
  #  "First tier" - improvements: -1193.42 meV to -220.60 meV
       hydro 2 p 1.8
       hydro 3 d 6.8
       hydro 3 s 5.8
  #  "Second tier" - improvements: -80.21 meV to -6.86 meV
  #     hydro 4 f 10.8
  #     hydro 3 p 5.8
  #     hydro 1 s 0.8
  #     hydro 5 g 16
  #     hydro 3 d 4.9
  #  "Third tier" - improvements: -4.29 meV to -0.53 meV
  #     hydro 3 s 16
  #     ionic 2 p auto
  #     hydro 3 d 6.6
  #     hydro 4 f 11.6
  #  "Fourth tier" - improvements: -0.75 meV to -0.25 meV
  #     hydro 2 p 4.5
  #     hydro 2 s 2.4
  #     hydro 5 g 14.4
  #     hydro 4 d 14.4
  #     hydro 4 f 16.8
  # Further basis functions - -0.21 meV and below
  #     hydro 3 p 14.8
  #     hydro 3 s 4.4
  #     hydro 3 d 19.6
  #     hydro 5 g 12.8
  ################################################################################
  #
  #  FHI-aims code project
  #  VB, Fritz-Haber Institut, 2009
  #
  #  Suggested "light" defaults for O atom (to be pasted into control.in file)
  #  Be sure to double-check any results obtained with these settings for post-processing,
  #  e.g., with the "tight" defaults and larger basis sets.
  #
  ################################################################################
    species        O
  #     global species definitions
      nucleus             8
      mass                15.9994
  #
      l_hartree           4
  #
      cut_pot             3.5  1.5  1.0
      basis_dep_cutoff    1e-4
  #
      radial_base         36 5.0
      radial_multiplier   1
       angular_grids specified
        division   0.2659   50
        division   0.4451  110
        division   0.6052  194
        division   0.7543  302
  #      division   0.8014  434
  #      division   0.8507  590
  #      division   0.8762  770
  #      division   0.9023  974
  #      division   1.2339 1202
  #      outer_grid 974
        outer_grid 302
  ################################################################################
  #
  #  Definition of "minimal" basis
  #
  ################################################################################
  #     valence basis states
      valence      2  s   2.
      valence      2  p   4.
  #     ion occupancy
      ion_occ      2  s   1.
      ion_occ      2  p   3.
  ################################################################################
  #
  #  Suggested additional basis functions. For production calculations,
  #  uncomment them one after another (the most important basis functions are
  #  listed first).
  #
  #  Constructed for dimers: 1.0 A, 1.208 A, 1.5 A, 2.0 A, 3.0 A
  #
  ################################################################################
  #  "First tier" - improvements: -699.05 meV to -159.38 meV
       hydro 2 p 1.8
       hydro 3 d 7.6
       hydro 3 s 6.4
  #  "Second tier" - improvements: -49.91 meV to -5.39 meV
  #     hydro 4 f 11.6
  #     hydro 3 p 6.2
  #     hydro 3 d 5.6
  #     hydro 5 g 17.6
  #     hydro 1 s 0.75
  #  "Third tier" - improvements: -2.83 meV to -0.50 meV
  #     ionic 2 p auto
  #     hydro 4 f 10.8
  #     hydro 4 d 4.7
  #     hydro 2 s 6.8
  #  "Fourth tier" - improvements: -0.40 meV to -0.12 meV
  #     hydro 3 p 5
  #     hydro 3 s 3.3
  #     hydro 5 g 15.6
  #     hydro 4 f 17.6
  #     hydro 4 d 14
  # Further basis functions - -0.08 meV and below
  #     hydro 3 s 2.1
  #     hydro 4 d 11.6
  #     hydro 3 p 16
  #     hydro 2 s 17.2
  
  -----------------------------------------------------------------------
  Completed first pass over input file control.in .
  -----------------------------------------------------------------------
  
  
  -----------------------------------------------------------------------
  Parsing geometry.in (first pass over file, find array dimensions only).
  The contents of geometry.in will be repeated verbatim below
  unless switched off by setting 'verbatim_writeout .false.' .
  in the first line of geometry.in .
  -----------------------------------------------------------------------
  
  atom  0.00000 0.00000 0.00000 C
  atom  1.09300 0.00000 0.00000 H
  atom  -0.47961 0.00000 -1.41207 N
  atom  0.27710 0.32599 -2.01452 H
  atom  -0.74787 -0.94847 -1.66615 H
  atom  -0.49584 1.26211 0.72868 C
  atom  -1.58789 1.28919 0.74431 H
  atom  -0.13407 1.27425 1.75947 H
  atom  -0.13407 2.16087 0.22380 H
  atom  -0.39425 -1.28861 0.74398 C
  atom  -0.10189 -1.56493 1.88303 O
  atom  -1.10210 -2.13717 0.06896 O
  atom  -1.55375 -1.50883 -0.51940 H
  
  -----------------------------------------------------------------------
  Completed first pass over input file geometry.in .
  -----------------------------------------------------------------------
  

  Basic array size parameters:
  | Number of species                 :        4
  | Number of atoms                   :       13
  | Max. basis fn. angular momentum   :        2
  | Max. atomic/ionic basis occupied n:        2
  | Max. number of basis fn. types    :        2
  | Max. radial fns per species/type  :        3
  | Max. logarithmic grid size        :     1301
  | Max. radial integration grid size :       36
  | Max. angular integration grid size:      302
  | Max. angular grid division number :        8
  | Radial grid for Hartree potential :     1301
  | Number of spin channels           :        1

------------------------------------------------------------
          Reading file control.in.
------------------------------------------------------------
  XC: Using PBE gradient-corrected functionals.
  Spin treatment: No spin polarisation.
  Non-relativistic treatment of kinetic energy.
  Charge =   0.000000E+00: Neutral system requested explicitly.
  Occupation type: Gaussian broadening, width =   0.100000E-01 eV.
  Using pulay charge density mixing.
  Pulay mixing - number of memorized iterations:   10
  Charge density mixing - mixing parameter:     0.2000
  Convergence accuracy of self-consistent charge density:  0.1000E-04
  Convergence accuracy of sum of eigenvalues:  0.1000E-02
  Convergence accuracy of total energy:  0.1000E-05
  Convergence accuracy of forces:  0.1000E-03
  Maximum number of s.-c. iterations  :   100
 
  Reading configuration options for species H                   .
  | Found nuclear charge :   1.0000
  | Found atomic mass :    1.00794000000000      amu
  | Found l_max for Hartree potential  :   4
  | Found cutoff potl. onset [A], width [A], scale factor :    3.50000    1.50000    1.00000
  | Threshold for basis-dependent cutoff potential is   0.100000E-03
  | Found data for basic radial integration grid :    24 points, outermost radius =    5.000 A
  | Found multiplier for basic radial grid :   1
  | Found angular grid specification: user-specified.
  | Specified grid contains     5 separate shells.
  | Check grid settings after all constraints further below.
  | Found free-atom valence shell :  1 s   1.000
  | No ionic wave fns used. Skipping ion_occ.
  | Found hydrogenic basis function :  2 s   2.100
  | Found hydrogenic basis function :  2 p   3.500
  Species H                   : Missing cutoff potential type.
  Defaulting to exp(1/x)/(1-x)^2 type cutoff potential.
  Species H : No 'logarithmic' tag. Using default grid for free atom:
  | Default logarithmic grid data [bohr] : 0.1000E-03 0.1000E+03 0.1012E+01
  Species H : On-site basis accuracy parameter (for Gram-Schmidt orthonormalisation) not specified.
  Using default value basis_acc =  0.1000000E-03.
  Species H                   : Using default innermost maximum threshold i_radial=  2 for radial functions.
  Species H                   : Default cutoff onset for free atom density etc. : 0.35000000E+01 AA.
  Species H                   : Basic radial grid will be enhanced according to radial_multiplier =   1, to contain    24 grid points.
 
  Reading configuration options for species C                   .
  | Found nuclear charge :   6.0000
  | Found atomic mass :    12.0107000000000      amu
  | Found l_max for Hartree potential  :   4
  | Found cutoff potl. onset [A], width [A], scale factor :    3.50000    1.50000    1.00000
  | Threshold for basis-dependent cutoff potential is   0.100000E-03
  | Found data for basic radial integration grid :    34 points, outermost radius =    5.000 A
  | Found multiplier for basic radial grid :   1
  | Found angular grid specification: user-specified.
  | Specified grid contains     5 separate shells.
  | Check grid settings after all constraints further below.
  | Found free-atom valence shell :  2 s   2.000
  | Found free-atom valence shell :  2 p   2.000
  | No ionic wave fns used. Skipping ion_occ.
  | No ionic wave fns used. Skipping ion_occ.
  | Found hydrogenic basis function :  2 p   1.700
  | Found hydrogenic basis function :  3 d   6.000
  | Found hydrogenic basis function :  2 s   4.900
  Species C                   : Missing cutoff potential type.
  Defaulting to exp(1/x)/(1-x)^2 type cutoff potential.
  Species C : No 'logarithmic' tag. Using default grid for free atom:
  | Default logarithmic grid data [bohr] : 0.1000E-03 0.1000E+03 0.1012E+01
  Species C : On-site basis accuracy parameter (for Gram-Schmidt orthonormalisation) not specified.
  Using default value basis_acc =  0.1000000E-03.
  Species C                   : Using default innermost maximum threshold i_radial=  2 for radial functions.
  Species C                   : Default cutoff onset for free atom density etc. : 0.35000000E+01 AA.
  Species C                   : Basic radial grid will be enhanced according to radial_multiplier =   1, to contain    34 grid points.
 
  Reading configuration options for species N                   .
  | Found nuclear charge :   7.0000
  | Found atomic mass :    14.0067000000000      amu
  | Found l_max for Hartree potential  :   4
  | Found cutoff potl. onset [A], width [A], scale factor :    3.50000    1.50000    1.00000
  | Threshold for basis-dependent cutoff potential is   0.100000E-03
  | Found data for basic radial integration grid :    35 points, outermost radius =    5.000 A
  | Found multiplier for basic radial grid :   1
  | Found angular grid specification: user-specified.
  | Specified grid contains     5 separate shells.
  | Check grid settings after all constraints further below.
  | Found free-atom valence shell :  2 s   2.000
  | Found free-atom valence shell :  2 p   3.000
  | No ionic wave fns used. Skipping ion_occ.
  | No ionic wave fns used. Skipping ion_occ.
  | Found hydrogenic basis function :  2 p   1.800
  | Found hydrogenic basis function :  3 d   6.800
  | Found hydrogenic basis function :  3 s   5.800
  Species N                   : Missing cutoff potential type.
  Defaulting to exp(1/x)/(1-x)^2 type cutoff potential.
  Species N : No 'logarithmic' tag. Using default grid for free atom:
  | Default logarithmic grid data [bohr] : 0.1000E-03 0.1000E+03 0.1012E+01
  Species N : On-site basis accuracy parameter (for Gram-Schmidt orthonormalisation) not specified.
  Using default value basis_acc =  0.1000000E-03.
  Species N                   : Using default innermost maximum threshold i_radial=  2 for radial functions.
  Species N                   : Default cutoff onset for free atom density etc. : 0.35000000E+01 AA.
  Species N                   : Basic radial grid will be enhanced according to radial_multiplier =   1, to contain    35 grid points.
 
  Reading configuration options for species O                   .
  | Found nuclear charge :   8.0000
  | Found atomic mass :    15.9994000000000      amu
  | Found l_max for Hartree potential  :   4
  | Found cutoff potl. onset [A], width [A], scale factor :    3.50000    1.50000    1.00000
  | Threshold for basis-dependent cutoff potential is   0.100000E-03
  | Found data for basic radial integration grid :    36 points, outermost radius =    5.000 A
  | Found multiplier for basic radial grid :   1
  | Found angular grid specification: user-specified.
  | Specified grid contains     5 separate shells.
  | Check grid settings after all constraints further below.
  | Found free-atom valence shell :  2 s   2.000
  | Found free-atom valence shell :  2 p   4.000
  | No ionic wave fns used. Skipping ion_occ.
  | No ionic wave fns used. Skipping ion_occ.
  | Found hydrogenic basis function :  2 p   1.800
  | Found hydrogenic basis function :  3 d   7.600
  | Found hydrogenic basis function :  3 s   6.400
  Species O                   : Missing cutoff potential type.
  Defaulting to exp(1/x)/(1-x)^2 type cutoff potential.
  Species O : No 'logarithmic' tag. Using default grid for free atom:
  | Default logarithmic grid data [bohr] : 0.1000E-03 0.1000E+03 0.1012E+01
  Species O : On-site basis accuracy parameter (for Gram-Schmidt orthonormalisation) not specified.
  Using default value basis_acc =  0.1000000E-03.
  Species O                   : Using default innermost maximum threshold i_radial=  2 for radial functions.
  Species O                   : Default cutoff onset for free atom density etc. : 0.35000000E+01 AA.
  Species O                   : Basic radial grid will be enhanced according to radial_multiplier =   1, to contain    36 grid points.
 
  Finished reading input file 'control.in'. Consistency checks are next.
 
  MPI_IN_PLACE appears to work with this MPI implementation.
  | Keeping use_mpi_in_place .true. (see manual).
  Target number of points in a grid batch is not set. Defaulting to  100
  Method for grid partitioning is not set. Defaulting to parallel hash+maxmin partitioning.
  Batch size limit is not set. Defaulting to    200
  By default, will store active basis functions for each batch.
  If in need of memory, prune_basis_once .false. can be used to disable this option.
  communication_type for Hartree potential was not specified.
  Defaulting to calc_hartree .
  Pulay mixer: Number of initial linear mixing iterations not set.
  Defaulting to    0 iterations.
  Work space size for distributed Hartree potential not set.
  Defaulting to   0.200000E+03 MB.
  Algorithm-dependent basis array size parameters:
  | n_max_pulay                         :       10
  Presetting      1001 iterations before the initial mixing cycle
  is restarted anyway using the sc_init_iter criterion / keyword.
  Presetting a factor      1.000 between actual scf density residual
  and density convergence criterion sc_accuracy_rho below which sc_init_iter
  takes no effect.
  Geometry relaxation not requested: no relaxation will be performed.
  Handling of forces: Unphysical translation and rotation will be removed from forces.
  No accuracy limit for integral partition fn. given. Defaulting to  0.1000E-14.
  No threshold value for u(r) in integrations given. Defaulting to  0.1000E-05.
  No accuracy for occupation numbers given. Defaulting to  0.1000E-12.
  No threshold value for occupation numbers given. Defaulting to  0.0000E+00.
  No accuracy for fermi level given. Defaulting to  0.1000E-19.
  Maximum # of iterations to find E_F not set. Defaulting to  200.
  Preferred method for the eigenvalue solver ('KS_method') not specified in 'control.in'.
  Defaulting to serial version, 'lapack_fast'.
  Will not use alltoall communication since running on < 1024 CPUs.
  Threshold for basis singularities not set.
  Default threshold for basis singularities:  0.1000E-04
  partition_type (choice of integration weights) for integrals was not specified.
  | Using a version of the partition function of Stratmann and coworkers ('stratmann_smoother').
  | At each grid point, the set of atoms used to build the partition table is smoothly restricted to
  | only those atoms whose free-atom density would be non-zero at that grid point.
  Partitioning for Hartree potential was not defined. Using partition_type for integrals.
  | Adjusted default value of keyword multip_moments_threshold to:       0.10000000E-11
  | This value may affect high angular momentum components of the Hartree potential in periodic systems.
  No q(lm)/r^(l+1) cutoff set for long-range Hartree potential.
  | Using default value of  0.100000E-09 .
  | Verify using the multipole_threshold keyword.
  Defaulting to new monopole extrapolation.
  Density update method: automatic selection selected.
------------------------------------------------------------


------------------------------------------------------------
          Reading geometry description geometry.in.
------------------------------------------------------------
  Input structure read successfully.
  The structure contains       13 atoms,  and a total of         48.000 electrons.

  Input geometry:
  | No unit cell requested.
  | Atomic structure:
  |       Atom                x [A]            y [A]            z [A]
  |    1: Species C             0.00000000        0.00000000        0.00000000
  |    2: Species H             1.09300000        0.00000000        0.00000000
  |    3: Species N            -0.47961000        0.00000000       -1.41207000
  |    4: Species H             0.27710000        0.32599000       -2.01452000
  |    5: Species H            -0.74787000       -0.94847000       -1.66615000
  |    6: Species C            -0.49584000        1.26211000        0.72868000
  |    7: Species H            -1.58789000        1.28919000        0.74431000
  |    8: Species H            -0.13407000        1.27425000        1.75947000
  |    9: Species H            -0.13407000        2.16087000        0.22380000
  |   10: Species C            -0.39425000       -1.28861000        0.74398000
  |   11: Species O            -0.10189000       -1.56493000        1.88303000
  |   12: Species O            -1.10210000       -2.13717000        0.06896000
  |   13: Species H            -1.55375000       -1.50883000       -0.51940000
  |

  | The smallest distance between any two atoms is         0.97209381 AA.
  |
  | The first atom of this pair is atom number                     12 .
  | The second atom of this pair is atom number                    13 .

  Number of empty states per atom not set in control.in - providing a guess from actual geometry.
  | Total number of empty states used during s.c.f. cycle:       29
  If you use a very high smearing, use empty_states (per atom!) in control.in to increase this value.

  Structure-dependent array size parameters: 
  | Maximum number of distinct radial functions  :       21
  | Maximum number of basis functions            :      119
  | Number of Kohn-Sham states (occupied + empty):       53
------------------------------------------------------------

------------------------------------------------------------
          Preparing all fixed parts of the calculation.
------------------------------------------------------------
  Determining machine precision:
    2.225073858507201E-308
  Setting up grids for atomic and cluster calculations.

  Creating wave function, potential, and density for free atoms.

  Species: H

  List of occupied orbitals and eigenvalues:
    n    l              occ      energy [Ha]    energy [eV]
    1    0           1.0000        -0.237589        -6.4651


  Species: C

  List of occupied orbitals and eigenvalues:
    n    l              occ      energy [Ha]    energy [eV]
    1    0           2.0000       -10.038835      -273.1706
    2    0           2.0000        -0.502696       -13.6791
    2    1           2.0000        -0.191971        -5.2238


  Species: N

  List of occupied orbitals and eigenvalues:
    n    l              occ      energy [Ha]    energy [eV]
    1    0           2.0000       -14.128000      -384.4424
    2    0           2.0000        -0.681077       -18.5330
    2    1           3.0000        -0.259788        -7.0692


  Species: O

  List of occupied orbitals and eigenvalues:
    n    l              occ      energy [Ha]    energy [eV]
    1    0           2.0000       -18.898188      -514.2459
    2    0           2.0000        -0.878505       -23.9053
    2    1           4.0000        -0.331779        -9.0282

  Creating fixed part of basis set: Ionic, confined, hydrogenic.
 
  H                    hydrogenic:
 
  List of hydrogenic basis orbitals: 
    n    l      effective z      eigenvalue [eV]  inner max. [A]     outer max. [A]     outer radius [A]   
    2    0         2.100000       -14.9728           0.193243           1.317208           4.583499
    2    1         3.500000       -41.6669           0.602369           0.602369           3.723403
 
 
  C                    hydrogenic:
 
  List of hydrogenic basis orbitals: 
    n    l      effective z      eigenvalue [eV]  inner max. [A]     outer max. [A]     outer radius [A]   
    2    1         1.700000        -9.7616           1.230570           1.230570           4.607917
    3    2         6.000000       -54.4224           0.792453           0.792453           3.883070
    2    0         4.900000       -81.6679           0.082559           0.562749           3.078220
 
 
  N                    hydrogenic:
 
  List of hydrogenic basis orbitals: 
    n    l      effective z      eigenvalue [eV]  inner max. [A]     outer max. [A]     outer radius [A]   
    2    1         1.800000       -10.9749           1.177451           1.177451           4.573712
    3    2         6.800000       -69.9026           0.704619           0.704619           3.538137
    3    0         5.800000       -50.8545           0.067388           1.191934           4.250239
 
 
  O                    hydrogenic:
 
  List of hydrogenic basis orbitals: 
    n    l      effective z      eigenvalue [eV]  inner max. [A]     outer max. [A]     outer radius [A]   
    2    1         1.800000       -10.9749           1.164242           1.164242           4.578029
    3    2         7.600000       -87.3180           0.624125           0.624125           3.251020
    3    0         6.400000       -61.9207           0.061167           1.081902           4.001998
 

  Adding cutoff potential to free-atom effective potential.
  Creating atomic-like basis functions for current effective potential.

  Species H                   :

  List of atomic basis orbitals and eigenvalues:
    n    l      energy [Ha]    energy [eV]    outer radius [A]
    1    0        -0.237589        -6.4651       4.527807


  Species C                   :

  List of atomic basis orbitals and eigenvalues:
    n    l      energy [Ha]    energy [eV]    outer radius [A]
    1    0       -10.038835      -273.1706       1.934409
    2    0        -0.502696       -13.6791       4.496620
    2    1        -0.191971        -5.2238       4.551928


  Species N                   :

  List of atomic basis orbitals and eigenvalues:
    n    l      energy [Ha]    energy [eV]    outer radius [A]
    1    0       -14.128000      -384.4424       1.637919
    2    0        -0.681077       -18.5330       4.463241
    2    1        -0.259788        -7.0692       4.518138


  Species O                   :

  List of atomic basis orbitals and eigenvalues:
    n    l      energy [Ha]    energy [eV]    outer radius [A]
    1    0       -18.898188      -514.2459       1.415765
    2    0        -0.878505       -23.9053       4.413171
    2    1        -0.331779        -9.0282       4.522403

  Assembling full basis from fixed parts.
  | Species H :   atomic orbital   1 s accepted.
  | Species H :    hydro orbital   2 s accepted.
  | Species H :    hydro orbital   2 p accepted.
  | Species C :   atomic orbital   1 s accepted.
  | Species C :    hydro orbital   2 s accepted.
  | Species C :   atomic orbital   2 s accepted.
  | Species C :   atomic orbital   2 p accepted.
  | Species C :    hydro orbital   2 p accepted.
  | Species C :    hydro orbital   3 d accepted.
  | Species N :   atomic orbital   1 s accepted.
  | Species N :    hydro orbital   3 s accepted.
  | Species N :   atomic orbital   2 s accepted.
  | Species N :   atomic orbital   2 p accepted.
  | Species N :    hydro orbital   2 p accepted.
  | Species N :    hydro orbital   3 d accepted.
  | Species O :   atomic orbital   1 s accepted.
  | Species O :    hydro orbital   3 s accepted.
  | Species O :   atomic orbital   2 s accepted.
  | Species O :   atomic orbital   2 p accepted.
  | Species O :    hydro orbital   2 p accepted.
  | Species O :    hydro orbital   3 d accepted.
 
  Basis size parameters after reduction:
  | Total number of radial functions:       21
  | Total number of basis functions :      119
 
  Per-task memory consumption for arrays in subroutine allocate_ext:
  |           5.250512MB.
  Testing on-site integration grid accuracy.
  |  Species  Function  <phi|h_atom|phi> (log., in eV)  <phi|h_atom|phi> (rad., in eV)
           1        1                 -6.4663192853                 -6.4651273558
           1        2                 13.7111246313                 13.7170609718
           1        3                 25.2673269279                 25.2674696378
           2        4               -273.1705927641               -273.1705631568
           2        5                -10.7109323383                -10.7107120029
           2        6                 17.4381822266                 17.4352413244
           2        7                 -5.2255326521                 -5.2270484734
           2        8                  8.6835629259                  8.6603288385
           2        9                 27.4952418996                 27.4953360207
           3       10               -384.4424306495               -384.4423701208
           3       11                 12.5842251816                 12.5842222903
           3       12                -15.7264628251                -15.7264433455
           3       13                 -7.0696854293                 -7.0701769954
           3       14                  8.8090390882                  8.7901077751
           3       15                 35.9586762123                 35.9588528632
           4       16               -514.2458688638               -514.2457643834
           4       17                 15.1795651126                 15.1795290741
           4       18                -21.5359799773                -21.5360846186
           4       19                 -9.0283069236                 -9.0284644067
           4       20                  8.3027758564                  8.2834874195
           4       21                 45.8339351984                 45.8338762259

  Preparing densities etc. for the partition functions (integrals / Hartree potential).

  Preparations completed.
  max(cpu_time)          :      0.149 s.
  Wall clock time (cpu1) :      0.150 s.
------------------------------------------------------------

------------------------------------------------------------
          Begin self-consistency loop: Initialization.

          Date     :  20200902, Time     :  105034.400
------------------------------------------------------------

  Initializing index lists of integration centers etc. from given atomic structure:
  | Number of centers in hartree potential         :        13
  | Number of centers in hartree multipole         :        13
  | Number of centers in electron density summation:        13
  | Number of centers in basis integrals           :        13
  | Number of centers in integrals                 :        13
  | Number of centers in hamiltonian               :        13
  Partitioning the integration grid into batches with parallel hashing+maxmin method.
  | Number of batches:      963
  | Maximal batch size:     138
  | Minimal batch size:      66
  | Average batch size:      72.322
  | Standard deviation of batch sizes:      16.596

  Integration load balanced across     1 MPI tasks.
  Work distribution over tasks is as follows:
  Task     0 has      69646 integration points.
  Initializing partition tables, free-atom densities, potentials, etc. across the integration grid (initialize_grid_storage).
  | initialize_grid_storage: Actual outermost partition radius vs. multipole_radius_free
  | (-- VB: in principle, multipole_radius_free should be larger, hence this output)
  | Species        1: Confinement radius =              4.999999999999999 AA, multipole_radius_free =              5.054417573612229 AA.
  | Species        1: outer_partition_radius set to              5.054417573612229 AA .
  | Species        2: Confinement radius =              4.999999999999999 AA, multipole_radius_free =              5.019602836301480 AA.
  | Species        2: outer_partition_radius set to              5.019602836301480 AA .
  | Species        3: Confinement radius =              4.999999999999999 AA, multipole_radius_free =              5.043624274424571 AA.
  | Species        3: outer_partition_radius set to              5.043624274424571 AA .
  | Species        4: Confinement radius =              4.999999999999999 AA, multipole_radius_free =              5.048384829883283 AA.
  | Species        4: outer_partition_radius set to              5.048384829883283 AA .
  | Original list of interatomic distances with          13 x         13 entries is created.
  | Net number of integration points:    69646
  | of which are non-zero points    :    59451
  Renormalizing the initial density to the exact electron count on the 3D integration grid.
  | Initial density: Formal number of electrons (from input files) :      48.0000000000
  | Integrated number of electrons on 3D grid     :      47.9998480255
  | Charge integration error                      :      -0.0001519745
  | Normalization factor for density and gradient :       1.0000031661
  Obtaining max. number of non-zero basis functions in each batch (get_n_compute_maxes).
  | Maximal number of non-zero basis functions:      119 in task     0
  Selecting the method for density update.
  Loop over occupied states selected for charge density update.
  Allocating        0.050 MB for KS_eigenvector
  Integrating Hamiltonian matrix: batch-based integration.
  Time summed over all CPUs for integration: real work        0.498 s, elapsed        0.498 s
  Integrating overlap matrix.
  Time summed over all CPUs for integration: real work        0.213 s, elapsed        0.213 s

  Updating Kohn-Sham eigenvalues and eigenvectors using ELSI and the ELPA eigensolver.
  Overlap matrix is nonsingular
  | Lowest eigenvalue of overlap  :  0.47E-02
  | Highest eigenvalue of overlap :  0.63E+01
  Finished singularity check of overlap matrix
  | Time :     0.002 s
  Finished Cholesky decomposition
  | Time :     0.000 s
  Finished transformation to standard eigenproblem
  | Time :     0.000 s
  Starting LAPACK eigensolver
  Finished solving standard eigenproblem
  | Time :     0.002 s
  Finished back-transformation of eigenvectors
  | Time :     0.000 s

  Obtaining occupation numbers and chemical potential using ELSI.
  | Chemical potential (Fermi level):    -9.67192289eV
  Writing Kohn-Sham eigenvalues.

  State    Occupation    Eigenvalue [Ha]    Eigenvalue [eV]
      1       2.00000         -19.008333         -517.24306
      2       2.00000         -18.977130         -516.39399
      3       2.00000         -14.246922         -387.67847
      4       2.00000         -10.166602         -276.64732
      5       2.00000         -10.141850         -275.97378
      6       2.00000         -10.132132         -275.70935
      7       2.00000          -1.183252          -32.19793
      8       2.00000          -1.102238          -29.99341
      9       2.00000          -0.992763          -27.01445
     10       2.00000          -0.862375          -23.46643
     11       2.00000          -0.751171          -20.44041
     12       2.00000          -0.683165          -18.58985
     13       2.00000          -0.650482          -17.70052
     14       2.00000          -0.606614          -16.50682
     15       2.00000          -0.576510          -15.68765
     16       2.00000          -0.560955          -15.26435
     17       2.00000          -0.547210          -14.89034
     18       2.00000          -0.540215          -14.70001
     19       2.00000          -0.516812          -14.06317
     20       2.00000          -0.496221          -13.50285
     21       2.00000          -0.475182          -12.93037
     22       2.00000          -0.430639          -11.71829
     23       2.00000          -0.403022          -10.96679
     24       2.00000          -0.390735          -10.63244
     25       0.00000          -0.151221           -4.11492
     26       0.00000          -0.072616           -1.97598
     27       0.00000          -0.029822           -0.81149
     28       0.00000          -0.019445           -0.52913
     29       0.00000           0.001589            0.04323
     30       0.00000           0.017088            0.46499
     31       0.00000           0.020732            0.56416
     32       0.00000           0.031407            0.85463
     33       0.00000           0.046841            1.27462
     34       0.00000           0.065070            1.77065
     35       0.00000           0.090072            2.45099
     36       0.00000           0.131145            3.56863
     37       0.00000           0.162885            4.43232
     38       0.00000           0.204075            5.55317
     39       0.00000           0.213504            5.80975
     40       0.00000           0.231314            6.29436
     41       0.00000           0.239387            6.51404
     42       0.00000           0.260376            7.08519
     43       0.00000           0.291151            7.92262
     44       0.00000           0.304549            8.28720
     45       0.00000           0.346275            9.42261
     46       0.00000           0.364352            9.91453
     47       0.00000           0.382894           10.41908
     48       0.00000           0.400339           10.89379
     49       0.00000           0.422016           11.48363
     50       0.00000           0.463138           12.60263
     51       0.00000           0.510318           13.88645
     52       0.00000           0.536354           14.59492
     53       0.00000           0.561919           15.29059

  Highest occupied state (VBM) at    -10.63243549 eV
  | Occupation number:      2.00000000

  Lowest unoccupied state (CBM) at    -4.11492342 eV
  | Occupation number:      0.00000000

  Overall HOMO-LUMO gap:      6.51751207 eV.
  Calculating total energy contributions from superposition of free atom densities.

  Total energy components:
  | Sum of eigenvalues            :        -188.88506335 Ha       -5139.82408503 eV
  | XC energy correction          :         -41.80950641 Ha       -1137.69455462 eV
  | XC potential correction       :          53.74854629 Ha        1462.57235935 eV
  | Free-atom electrostatic energy:        -146.80714366 Ha       -3994.82563337 eV
  | Hartree energy correction     :           0.00000000 Ha           0.00000000 eV
  | vdW energy correction         :           0.00000000 Ha           0.00000000 eV
  | Entropy correction            :           0.00000000 Ha           0.00000000 eV
  | ---------------------------
  | Total energy                  :        -323.75316712 Ha       -8809.77191367 eV
  | Total energy, T -> 0          :        -323.75316712 Ha       -8809.77191367 eV  <-- do not rely on this value for anything but (periodic) metals
  | Electronic free energy        :        -323.75316712 Ha       -8809.77191367 eV

  Derived energy quantities:
  | Kinetic energy                :         320.54498603 Ha        8722.47286434 eV
  | Electrostatic energy          :        -602.48864674 Ha      -16394.55022340 eV
  | Energy correction for multipole
  | error in Hartree potential    :           0.00000000 Ha           0.00000000 eV
  | Sum of eigenvalues per atom                           :        -395.37108346 eV
  | Total energy (T->0) per atom                          :        -677.67476259 eV  <-- do not rely on this value for anything but (periodic) metals
  | Electronic free energy per atom                       :        -677.67476259 eV
  Initialize hartree_potential_storage
  Max. number of atoms included in rho_multipole:           13

  End scf initialization - timings             :  max(cpu_time)    wall_clock(cpu1)
  | Time for scf. initialization               :        1.156 s           1.157 s
  | Boundary condition initialization          :        0.000 s           0.000 s
  | Integration                                :        0.710 s           0.710 s
  | Solution of K.-S. eqns.                    :        0.004 s           0.005 s
  | Grid partitioning                          :        0.112 s           0.113 s
  | Preloading free-atom quantities on grid    :        0.002 s           0.003 s
  | Free-atom superposition energy             :        0.084 s           0.084 s
  | Total energy evaluation                    :        0.000 s           0.000 s

  Partial memory accounting:
  | Current value for overall tracked memory usage on task 0  :           0.165 MB
  | Peak value for overall tracked memory usage on task 0     :           0.676 MB after allocating wave
  | Largest tracked array allocation on task 0 so far         :           0.131 MB  when allocating H_times_psi
  Note:  These values currently only include a subset of arrays which are explicitly tracked.
  The "true" memory usage will be greater.
------------------------------------------------------------

------------------------------------------------------------
          Begin self-consistency iteration #    1

  Date     :  20200902, Time     :  105035.557
------------------------------------------------------------
  Evaluating new KS density.
  Integration grid: deviation in total charge (<rho> - N_e) =   1.421085E-14
  Pulay mixing of updated and previous charge densities.

  Evaluating partitioned Hartree potential by multipole expansion.
  | Analytical far-field extrapolation by fixed multipoles:
  | Hartree multipole sum: apparent total charge =  -0.257953E-03
  Summing up the Hartree potential.
  Time summed over all CPUs for potential: real work        0.285 s, elapsed        0.285 s
  | RMS charge density error from multipole expansion :   0.587426E-02

  Integrating Hamiltonian matrix: batch-based integration.
  Time summed over all CPUs for integration: real work        0.500 s, elapsed        0.500 s

  Updating Kohn-Sham eigenvalues and eigenvectors using ELSI and the ELPA eigensolver.
  Finished Cholesky decomposition
  | Time :     0.000 s
  Finished transformation to standard eigenproblem
  | Time :     0.000 s
  Starting LAPACK eigensolver
  Finished solving standard eigenproblem
  | Time :     0.002 s
  Finished back-transformation of eigenvectors
  | Time :     0.000 s

  Obtaining occupation numbers and chemical potential using ELSI.
  | Chemical potential (Fermi level):    -4.62254957eV
  Writing Kohn-Sham eigenvalues.

  State    Occupation    Eigenvalue [Ha]    Eigenvalue [eV]
      1       2.00000         -18.911996         -514.62160
      2       2.00000         -18.831939         -512.44312
      3       2.00000         -14.107733         -383.89094
      4       2.00000         -10.116768         -275.29125
      5       2.00000         -10.067719         -273.95658
      6       2.00000         -10.030215         -272.93605
      7       2.00000          -1.137536          -30.95394
      8       2.00000          -1.038043          -28.24658
      9       2.00000          -0.930577          -25.32228
     10       2.00000          -0.798809          -21.73669
     11       2.00000          -0.700160          -19.05233
     12       2.00000          -0.642650          -17.48739
     13       2.00000          -0.600990          -16.35377
     14       2.00000          -0.548874          -14.93561
     15       2.00000          -0.525133          -14.28959
     16       2.00000          -0.499513          -13.59244
     17       2.00000          -0.489042          -13.30750
     18       2.00000          -0.481877          -13.11254
     19       2.00000          -0.454019          -12.35448
     20       2.00000          -0.440956          -11.99901
     21       2.00000          -0.420348          -11.43824
     22       2.00000          -0.370594          -10.08436
     23       2.00000          -0.333985           -9.08819
     24       2.00000          -0.320148           -8.71166
     25       0.00000          -0.114566           -3.11750
     26       0.00000          -0.052489           -1.42830
     27       0.00000           0.005559            0.15126
     28       0.00000           0.011153            0.30350
     29       0.00000           0.037928            1.03207
     30       0.00000           0.050259            1.36763
     31       0.00000           0.053639            1.45960
     32       0.00000           0.072648            1.97684
     33       0.00000           0.078906            2.14715
     34       0.00000           0.102084            2.77785
     35       0.00000           0.122889            3.34399
     36       0.00000           0.160005            4.35396
     37       0.00000           0.187031            5.08938
     38       0.00000           0.235122            6.39798
     39       0.00000           0.242899            6.60961
     40       0.00000           0.265253            7.21791
     41       0.00000           0.266838            7.26102
     42       0.00000           0.293068            7.97478
     43       0.00000           0.329063            8.95426
     44       0.00000           0.342705            9.32549
     45       0.00000           0.383474           10.43486
     46       0.00000           0.401459           10.92424
     47       0.00000           0.416198           11.32532
     48       0.00000           0.438332           11.92763
     49       0.00000           0.456803           12.43025
     50       0.00000           0.497518           13.53816
     51       0.00000           0.543351           14.78532
     52       0.00000           0.564472           15.36008
     53       0.00000           0.591999           16.10912

  Highest occupied state (VBM) at     -8.71166243 eV
  | Occupation number:      2.00000000

  Lowest unoccupied state (CBM) at    -3.11749777 eV
  | Occupation number:      0.00000000

  Overall HOMO-LUMO gap:      5.59416466 eV.

  Total energy components:
  | Sum of eigenvalues            :        -185.59924182 Ha       -5050.41233210 eV
  | XC energy correction          :         -42.13169277 Ha       -1146.46169167 eV
  | XC potential correction       :          54.16746350 Ha        1473.97167667 eV
  | Free-atom electrostatic energy:        -146.80714366 Ha       -3994.82563337 eV
  | Hartree energy correction     :          -3.20430224 Ha         -87.19350030 eV
  | vdW energy correction         :           0.00000000 Ha           0.00000000 eV
  | Entropy correction            :           0.00000000 Ha           0.00000000 eV
  | ---------------------------
  | Total energy                  :        -323.57491699 Ha       -8804.92148077 eV
  | Total energy, T -> 0          :        -323.57491699 Ha       -8804.92148077 eV  <-- do not rely on this value for anything but (periodic) metals
  | Electronic free energy        :        -323.57491699 Ha       -8804.92148077 eV

  Derived energy quantities:
  | Kinetic energy                :         322.30569192 Ha        8770.38410944 eV
  | Electrostatic energy          :        -603.74891614 Ha      -16428.84389853 eV
  | Energy correction for multipole
  | error in Hartree potential    :           0.01193482 Ha           0.32476287 eV
  | Sum of eigenvalues per atom                           :        -388.49325632 eV
  | Total energy (T->0) per atom                          :        -677.30165237 eV  <-- do not rely on this value for anything but (periodic) metals
  | Electronic free energy per atom                       :        -677.30165237 eV

  Self-consistency convergence accuracy:
  | Change of charge density      :  0.5790E+00
  | Change of sum of eigenvalues  :  0.8941E+02 eV
  | Change of total energy        :  0.4850E+01 eV

  End self-consistency iteration #     1       :  max(cpu_time)    wall_clock(cpu1)
  | Time for this iteration                    :        1.198 s           1.199 s
  | Charge density update                      :        0.395 s           0.396 s
  | Density mixing                             :        0.005 s           0.005 s
  | Hartree multipole update                   :        0.009 s           0.009 s
  | Hartree multipole summation                :        0.286 s           0.286 s
  | Integration                                :        0.500 s           0.500 s
  | Solution of K.-S. eqns.                    :        0.002 s           0.002 s
  | Total energy evaluation                    :        0.000 s           0.000 s

  Partial memory accounting:
  | Current value for overall tracked memory usage on task 0  :           0.165 MB
  | Peak value for overall tracked memory usage on task 0     :           0.691 MB after allocating gradient_basis_wave
  | Largest tracked array allocation on task 0 so far         :           0.394 MB  when allocating gradient_basis_wave
  Note:  These values currently only include a subset of arrays which are explicitly tracked.
  The "true" memory usage will be greater.
------------------------------------------------------------

------------------------------------------------------------
          Begin self-consistency iteration #    2

  Date     :  20200902, Time     :  105036.759
------------------------------------------------------------
  Evaluating new KS density.
  Integration grid: deviation in total charge (<rho> - N_e) =  -5.684342E-14
  Pulay mixing of updated and previous charge densities.

  Evaluating partitioned Hartree potential by multipole expansion.
  | Analytical far-field extrapolation by fixed multipoles:
  | Hartree multipole sum: apparent total charge =  -0.392308E-03
  Summing up the Hartree potential.
  Time summed over all CPUs for potential: real work        0.285 s, elapsed        0.285 s
  | RMS charge density error from multipole expansion :   0.139309E-01

  Integrating Hamiltonian matrix: batch-based integration.
  Time summed over all CPUs for integration: real work        0.499 s, elapsed        0.499 s

  Updating Kohn-Sham eigenvalues and eigenvectors using ELSI and the ELPA eigensolver.
  Finished Cholesky decomposition
  | Time :     0.000 s
  Finished transformation to standard eigenproblem
  | Time :     0.000 s
  Starting LAPACK eigensolver
  Finished solving standard eigenproblem
  | Time :     0.002 s
  Finished back-transformation of eigenvectors
  | Time :     0.000 s

  Obtaining occupation numbers and chemical potential using ELSI.
  | Chemical potential (Fermi level):    -3.58228194eV
  Highest occupied state (VBM) at     -6.84444759 eV
  | Occupation number:      2.00000000

  Lowest unoccupied state (CBM) at    -1.85518262 eV
  | Occupation number:      0.00000000

  Overall HOMO-LUMO gap:      4.98926498 eV.

  Checking to see if s.c.f. parameters should be adjusted.

  Total energy components:
  | Sum of eigenvalues            :        -182.15803172 Ha       -4956.77224101 eV
  | XC energy correction          :         -42.48248959 Ha       -1156.00735874 eV
  | XC potential correction       :          54.62196352 Ha        1486.33925137 eV
  | Free-atom electrostatic energy:        -146.80714366 Ha       -3994.82563337 eV
  | Hartree energy correction     :          -6.67290880 Ha        -181.57908705 eV
  | vdW energy correction         :           0.00000000 Ha           0.00000000 eV
  | Entropy correction            :           0.00000000 Ha           0.00000000 eV
  | ---------------------------
  | Total energy                  :        -323.49861025 Ha       -8802.84506878 eV
  | Total energy, T -> 0          :        -323.49861025 Ha       -8802.84506878 eV  <-- do not rely on this value for anything but (periodic) metals
  | Electronic free energy        :        -323.49861025 Ha       -8802.84506878 eV

  Derived energy quantities:
  | Kinetic energy                :         323.59779113 Ha        8805.54391775 eV
  | Electrostatic energy          :        -604.61391179 Ha      -16452.38162780 eV
  | Energy correction for multipole
  | error in Hartree potential    :           0.02613825 Ha           0.71125784 eV
  | Sum of eigenvalues per atom                           :        -381.29017239 eV
  | Total energy (T->0) per atom                          :        -677.14192837 eV  <-- do not rely on this value for anything but (periodic) metals
  | Electronic free energy per atom                       :        -677.14192837 eV

  Self-consistency convergence accuracy:
  | Change of charge density      :  0.3623E+00
  | Change of sum of eigenvalues  :  0.9364E+02 eV
  | Change of total energy        :  0.2076E+01 eV

  End self-consistency iteration #     2       :  max(cpu_time)    wall_clock(cpu1)
  | Time for this iteration                    :        1.191 s           1.191 s
  | Charge density update                      :        0.388 s           0.388 s
  | Density mixing                             :        0.007 s           0.007 s
  | Hartree multipole update                   :        0.009 s           0.009 s
  | Hartree multipole summation                :        0.286 s           0.286 s
  | Integration                                :        0.499 s           0.499 s
  | Solution of K.-S. eqns.                    :        0.002 s           0.002 s
  | Total energy evaluation                    :        0.000 s           0.000 s

  Partial memory accounting:
  | Current value for overall tracked memory usage on task 0  :           0.166 MB
  | Peak value for overall tracked memory usage on task 0     :           0.691 MB after allocating gradient_basis_wave
  | Largest tracked array allocation on task 0 so far         :           0.394 MB  when allocating gradient_basis_wave
  Note:  These values currently only include a subset of arrays which are explicitly tracked.
  The "true" memory usage will be greater.
------------------------------------------------------------

------------------------------------------------------------
          Begin self-consistency iteration #    3

  Date     :  20200902, Time     :  105037.953
------------------------------------------------------------
  Evaluating new KS density.
  Integration grid: deviation in total charge (<rho> - N_e) =   3.552714E-14
  Pulay mixing of updated and previous charge densities.

  Evaluating partitioned Hartree potential by multipole expansion.
  | Analytical far-field extrapolation by fixed multipoles:
  | Hartree multipole sum: apparent total charge =  -0.488180E-03
  Summing up the Hartree potential.
  Time summed over all CPUs for potential: real work        0.285 s, elapsed        0.285 s
  | RMS charge density error from multipole expansion :   0.220225E-01

  Integrating Hamiltonian matrix: batch-based integration.
  Time summed over all CPUs for integration: real work        0.499 s, elapsed        0.499 s

  Updating Kohn-Sham eigenvalues and eigenvectors using ELSI and the ELPA eigensolver.
  Finished Cholesky decomposition
  | Time :     0.000 s
  Finished transformation to standard eigenproblem
  | Time :     0.000 s
  Starting LAPACK eigensolver
  Finished solving standard eigenproblem
  | Time :     0.002 s
  Finished back-transformation of eigenvectors
  | Time :     0.000 s

  Obtaining occupation numbers and chemical potential using ELSI.
  | Chemical potential (Fermi level):    -3.01214103eV
  Highest occupied state (VBM) at     -6.22629979 eV
  | Occupation number:      2.00000000

  Lowest unoccupied state (CBM) at    -1.15594306 eV
  | Occupation number:      0.00000000

  Overall HOMO-LUMO gap:      5.07035673 eV.

  Total energy components:
  | Sum of eigenvalues            :        -180.84108030 Ha       -4920.93616946 eV
  | XC energy correction          :         -42.63649923 Ha       -1160.19817419 eV
  | XC potential correction       :          54.81821353 Ha        1491.67948598 eV
  | Free-atom electrostatic energy:        -146.80714366 Ha       -3994.82563337 eV
  | Hartree energy correction     :          -8.01977530 Ha        -218.22918926 eV
  | vdW energy correction         :           0.00000000 Ha           0.00000000 eV
  | Entropy correction            :           0.00000000 Ha           0.00000000 eV
  | ---------------------------
  | Total energy                  :        -323.48628495 Ha       -8802.50968029 eV
  | Total energy, T -> 0          :        -323.48628495 Ha       -8802.50968029 eV  <-- do not rely on this value for anything but (periodic) metals
  | Electronic free energy        :        -323.48628495 Ha       -8802.50968029 eV

  Derived energy quantities:
  | Kinetic energy                :         323.23363837 Ha        8795.63481690 eV
  | Electrostatic energy          :        -604.08342409 Ha      -16437.94632300 eV
  | Energy correction for multipole
  | error in Hartree potential    :           0.03689363 Ha           1.00392670 eV
  | Sum of eigenvalues per atom                           :        -378.53355150 eV
  | Total energy (T->0) per atom                          :        -677.11612925 eV  <-- do not rely on this value for anything but (periodic) metals
  | Electronic free energy per atom                       :        -677.11612925 eV

  Self-consistency convergence accuracy:
  | Change of charge density      :  0.2035E+00
  | Change of sum of eigenvalues  :  0.3584E+02 eV
  | Change of total energy        :  0.3354E+00 eV

  End self-consistency iteration #     3       :  max(cpu_time)    wall_clock(cpu1)
  | Time for this iteration                    :        1.193 s           1.193 s
  | Charge density update                      :        0.388 s           0.388 s
  | Density mixing                             :        0.008 s           0.008 s
  | Hartree multipole update                   :        0.009 s           0.008 s
  | Hartree multipole summation                :        0.286 s           0.286 s
  | Integration                                :        0.499 s           0.499 s
  | Solution of K.-S. eqns.                    :        0.002 s           0.003 s
  | Total energy evaluation                    :        0.000 s           0.000 s

  Partial memory accounting:
  | Current value for overall tracked memory usage on task 0  :           0.166 MB
  | Peak value for overall tracked memory usage on task 0     :           0.692 MB after allocating gradient_basis_wave
  | Largest tracked array allocation on task 0 so far         :           0.394 MB  when allocating gradient_basis_wave
  Note:  These values currently only include a subset of arrays which are explicitly tracked.
  The "true" memory usage will be greater.
------------------------------------------------------------

------------------------------------------------------------
          Begin self-consistency iteration #    4

  Date     :  20200902, Time     :  105039.149
------------------------------------------------------------
  Evaluating new KS density.
  Integration grid: deviation in total charge (<rho> - N_e) =   1.421085E-14
  Pulay mixing of updated and previous charge densities.

  Evaluating partitioned Hartree potential by multipole expansion.
  | Analytical far-field extrapolation by fixed multipoles:
  | Hartree multipole sum: apparent total charge =  -0.520074E-03
  Summing up the Hartree potential.
  Time summed over all CPUs for potential: real work        0.285 s, elapsed        0.285 s
  | RMS charge density error from multipole expansion :   0.255935E-01

  Integrating Hamiltonian matrix: batch-based integration.
  Time summed over all CPUs for integration: real work        0.499 s, elapsed        0.499 s

  Updating Kohn-Sham eigenvalues and eigenvectors using ELSI and the ELPA eigensolver.
  Finished Cholesky decomposition
  | Time :     0.000 s
  Finished transformation to standard eigenproblem
  | Time :     0.000 s
  Starting LAPACK eigensolver
  Finished solving standard eigenproblem
  | Time :     0.002 s
  Finished back-transformation of eigenvectors
  | Time :     0.000 s

  Obtaining occupation numbers and chemical potential using ELSI.
  | Chemical potential (Fermi level):    -2.91988690eV
  Highest occupied state (VBM) at     -6.00590590 eV
  | Occupation number:      2.00000000

  Lowest unoccupied state (CBM) at    -1.07636982 eV
  | Occupation number:      0.00000000

  Overall HOMO-LUMO gap:      4.92953608 eV.

  Total energy components:
  | Sum of eigenvalues            :        -180.73953864 Ha       -4918.17308033 eV
  | XC energy correction          :         -42.67303850 Ha       -1161.19245838 eV
  | XC potential correction       :          54.86391129 Ha        1492.92298516 eV
  | Free-atom electrostatic energy:        -146.80714366 Ha       -3994.82563337 eV
  | Hartree energy correction     :          -8.12950150 Ha        -221.21499104 eV
  | vdW energy correction         :           0.00000000 Ha           0.00000000 eV
  | Entropy correction            :           0.00000000 Ha           0.00000000 eV
  | ---------------------------
  | Total energy                  :        -323.48531101 Ha       -8802.48317795 eV
  | Total energy, T -> 0          :        -323.48531101 Ha       -8802.48317795 eV  <-- do not rely on this value for anything but (periodic) metals
  | Electronic free energy        :        -323.48531101 Ha       -8802.48317795 eV

  Derived energy quantities:
  | Kinetic energy                :         322.82856641 Ha        8784.61224820 eV
  | Electrostatic energy          :        -603.64083892 Ha      -16425.90296778 eV
  | Energy correction for multipole
  | error in Hartree potential    :           0.04107027 Ha           1.11757884 eV
  | Sum of eigenvalues per atom                           :        -378.32100618 eV
  | Total energy (T->0) per atom                          :        -677.11409061 eV  <-- do not rely on this value for anything but (periodic) metals
  | Electronic free energy per atom                       :        -677.11409061 eV

  Self-consistency convergence accuracy:
  | Change of charge density      :  0.6758E-01
  | Change of sum of eigenvalues  :  0.2763E+01 eV
  | Change of total energy        :  0.2650E-01 eV

  End self-consistency iteration #     4       :  max(cpu_time)    wall_clock(cpu1)
  | Time for this iteration                    :        1.194 s           1.194 s
  | Charge density update                      :        0.388 s           0.388 s
  | Density mixing                             :        0.010 s           0.010 s
  | Hartree multipole update                   :        0.009 s           0.009 s
  | Hartree multipole summation                :        0.286 s           0.286 s
  | Integration                                :        0.499 s           0.498 s
  | Solution of K.-S. eqns.                    :        0.002 s           0.003 s
  | Total energy evaluation                    :        0.000 s           0.000 s

  Partial memory accounting:
  | Current value for overall tracked memory usage on task 0  :           0.166 MB
  | Peak value for overall tracked memory usage on task 0     :           0.692 MB after allocating gradient_basis_wave
  | Largest tracked array allocation on task 0 so far         :           0.394 MB  when allocating gradient_basis_wave
  Note:  These values currently only include a subset of arrays which are explicitly tracked.
  The "true" memory usage will be greater.
------------------------------------------------------------

------------------------------------------------------------
          Begin self-consistency iteration #    5

  Date     :  20200902, Time     :  105040.346
------------------------------------------------------------
  Evaluating new KS density.
  Integration grid: deviation in total charge (<rho> - N_e) =   3.552714E-14
  Pulay mixing of updated and previous charge densities.

  Evaluating partitioned Hartree potential by multipole expansion.
  | Analytical far-field extrapolation by fixed multipoles:
  | Hartree multipole sum: apparent total charge =  -0.514969E-03
  Summing up the Hartree potential.
  Time summed over all CPUs for potential: real work        0.285 s, elapsed        0.285 s
  | RMS charge density error from multipole expansion :   0.253376E-01

  Integrating Hamiltonian matrix: batch-based integration.
  Time summed over all CPUs for integration: real work        0.499 s, elapsed        0.499 s

  Updating Kohn-Sham eigenvalues and eigenvectors using ELSI and the ELPA eigensolver.
  Finished Cholesky decomposition
  | Time :     0.000 s
  Finished transformation to standard eigenproblem
  | Time :     0.000 s
  Starting LAPACK eigensolver
  Finished solving standard eigenproblem
  | Time :     0.002 s
  Finished back-transformation of eigenvectors
  | Time :     0.000 s

  Obtaining occupation numbers and chemical potential using ELSI.
  | Chemical potential (Fermi level):    -2.95855263eV
  Highest occupied state (VBM) at     -6.11157839 eV
  | Occupation number:      2.00000000

  Lowest unoccupied state (CBM) at    -1.14209105 eV
  | Occupation number:      0.00000000

  Overall HOMO-LUMO gap:      4.96948734 eV.

  Total energy components:
  | Sum of eigenvalues            :        -180.88239213 Ha       -4922.06032165 eV
  | XC energy correction          :         -42.65403489 Ha       -1160.67534379 eV
  | XC potential correction       :          54.83928737 Ha        1492.25293424 eV
  | Free-atom electrostatic energy:        -146.80714366 Ha       -3994.82563337 eV
  | Hartree energy correction     :          -7.98070814 Ha        -217.16611765 eV
  | vdW energy correction         :           0.00000000 Ha           0.00000000 eV
  | Entropy correction            :           0.00000000 Ha           0.00000000 eV
  | ---------------------------
  | Total energy                  :        -323.48499145 Ha       -8802.47448221 eV
  | Total energy, T -> 0          :        -323.48499145 Ha       -8802.47448221 eV  <-- do not rely on this value for anything but (periodic) metals
  | Electronic free energy        :        -323.48499145 Ha       -8802.47448221 eV

  Derived energy quantities:
  | Kinetic energy                :         322.75057197 Ha        8782.48991143 eV
  | Electrostatic energy          :        -603.58152853 Ha      -16424.28904986 eV
  | Energy correction for multipole
  | error in Hartree potential    :           0.04048199 Ha           1.10157108 eV
  | Sum of eigenvalues per atom                           :        -378.62002474 eV
  | Total energy (T->0) per atom                          :        -677.11342171 eV  <-- do not rely on this value for anything but (periodic) metals
  | Electronic free energy per atom                       :        -677.11342171 eV

  Self-consistency convergence accuracy:
  | Change of charge density      :  0.2330E-01
  | Change of sum of eigenvalues  : -0.3887E+01 eV
  | Change of total energy        :  0.8696E-02 eV

  End self-consistency iteration #     5       :  max(cpu_time)    wall_clock(cpu1)
  | Time for this iteration                    :        1.195 s           1.195 s
  | Charge density update                      :        0.388 s           0.388 s
  | Density mixing                             :        0.011 s           0.011 s
  | Hartree multipole update                   :        0.009 s           0.009 s
  | Hartree multipole summation                :        0.286 s           0.286 s
  | Integration                                :        0.499 s           0.499 s
  | Solution of K.-S. eqns.                    :        0.002 s           0.002 s
  | Total energy evaluation                    :        0.000 s           0.000 s

  Partial memory accounting:
  | Current value for overall tracked memory usage on task 0  :           0.166 MB
  | Peak value for overall tracked memory usage on task 0     :           0.692 MB after allocating gradient_basis_wave
  | Largest tracked array allocation on task 0 so far         :           0.394 MB  when allocating gradient_basis_wave
  Note:  These values currently only include a subset of arrays which are explicitly tracked.
  The "true" memory usage will be greater.
------------------------------------------------------------

------------------------------------------------------------
          Begin self-consistency iteration #    6

  Date     :  20200902, Time     :  105041.545
------------------------------------------------------------
  Evaluating new KS density.
  Integration grid: deviation in total charge (<rho> - N_e) =   0.000000E+00
  Pulay mixing of updated and previous charge densities.

  Evaluating partitioned Hartree potential by multipole expansion.
  | Analytical far-field extrapolation by fixed multipoles:
  | Hartree multipole sum: apparent total charge =  -0.516516E-03
  Summing up the Hartree potential.
  Time summed over all CPUs for potential: real work        0.286 s, elapsed        0.286 s
  | RMS charge density error from multipole expansion :   0.256663E-01

  Integrating Hamiltonian matrix: batch-based integration.
  Time summed over all CPUs for integration: real work        0.499 s, elapsed        0.499 s

  Updating Kohn-Sham eigenvalues and eigenvectors using ELSI and the ELPA eigensolver.
  Finished Cholesky decomposition
  | Time :     0.000 s
  Finished transformation to standard eigenproblem
  | Time :     0.000 s
  Starting LAPACK eigensolver
  Finished solving standard eigenproblem
  | Time :     0.002 s
  Finished back-transformation of eigenvectors
  | Time :     0.000 s

  Obtaining occupation numbers and chemical potential using ELSI.
  | Chemical potential (Fermi level):    -2.96958955eV
  Highest occupied state (VBM) at     -6.11926635 eV
  | Occupation number:      2.00000000

  Lowest unoccupied state (CBM) at    -1.17968903 eV
  | Occupation number:      0.00000000

  Overall HOMO-LUMO gap:      4.93957732 eV.

  Total energy components:
  | Sum of eigenvalues            :        -180.93474333 Ha       -4923.48487010 eV
  | XC energy correction          :         -42.64709339 Ha       -1160.48645616 eV
  | XC potential correction       :          54.83025434 Ha        1492.00713301 eV
  | Free-atom electrostatic energy:        -146.80714366 Ha       -3994.82563337 eV
  | Hartree energy correction     :          -7.92619054 Ha        -215.68261834 eV
  | vdW energy correction         :           0.00000000 Ha           0.00000000 eV
  | Entropy correction            :           0.00000000 Ha           0.00000000 eV
  | ---------------------------
  | Total energy                  :        -323.48491658 Ha       -8802.47244496 eV
  | Total energy, T -> 0          :        -323.48491658 Ha       -8802.47244496 eV  <-- do not rely on this value for anything but (periodic) metals
  | Electronic free energy        :        -323.48491658 Ha       -8802.47244496 eV

  Derived energy quantities:
  | Kinetic energy                :         322.65201503 Ha        8779.80804066 eV
  | Electrostatic energy          :        -603.48983821 Ha      -16421.79402946 eV
  | Energy correction for multipole
  | error in Hartree potential    :           0.04060978 Ha           1.10504846 eV
  | Sum of eigenvalues per atom                           :        -378.72960539 eV
  | Total energy (T->0) per atom                          :        -677.11326500 eV  <-- do not rely on this value for anything but (periodic) metals
  | Electronic free energy per atom                       :        -677.11326500 eV

  Self-consistency convergence accuracy:
  | Change of charge density      :  0.1116E-01
  | Change of sum of eigenvalues  : -0.1425E+01 eV
  | Change of total energy        :  0.2037E-02 eV

  End self-consistency iteration #     6       :  max(cpu_time)    wall_clock(cpu1)
  | Time for this iteration                    :        1.196 s           1.197 s
  | Charge density update                      :        0.388 s           0.388 s
  | Density mixing                             :        0.012 s           0.012 s
  | Hartree multipole update                   :        0.009 s           0.009 s
  | Hartree multipole summation                :        0.286 s           0.286 s
  | Integration                                :        0.499 s           0.499 s
  | Solution of K.-S. eqns.                    :        0.002 s           0.002 s
  | Total energy evaluation                    :        0.000 s           0.000 s

  Partial memory accounting:
  | Current value for overall tracked memory usage on task 0  :           0.166 MB
  | Peak value for overall tracked memory usage on task 0     :           0.692 MB after allocating gradient_basis_wave
  | Largest tracked array allocation on task 0 so far         :           0.394 MB  when allocating gradient_basis_wave
  Note:  These values currently only include a subset of arrays which are explicitly tracked.
  The "true" memory usage will be greater.
------------------------------------------------------------

------------------------------------------------------------
          Begin self-consistency iteration #    7

  Date     :  20200902, Time     :  105042.745
------------------------------------------------------------
  Evaluating new KS density.
  Integration grid: deviation in total charge (<rho> - N_e) =   2.131628E-14
  Pulay mixing of updated and previous charge densities.

  Evaluating partitioned Hartree potential by multipole expansion.
  | Analytical far-field extrapolation by fixed multipoles:
  | Hartree multipole sum: apparent total charge =  -0.517697E-03
  Summing up the Hartree potential.
  Time summed over all CPUs for potential: real work        0.286 s, elapsed        0.286 s
  | RMS charge density error from multipole expansion :   0.258092E-01

  Integrating Hamiltonian matrix: batch-based integration.
  Time summed over all CPUs for integration: real work        0.500 s, elapsed        0.500 s

  Updating Kohn-Sham eigenvalues and eigenvectors using ELSI and the ELPA eigensolver.
  Finished Cholesky decomposition
  | Time :     0.000 s
  Finished transformation to standard eigenproblem
  | Time :     0.000 s
  Starting LAPACK eigensolver
  Finished solving standard eigenproblem
  | Time :     0.002 s
  Finished back-transformation of eigenvectors
  | Time :     0.000 s

[...]
  |   Hirshfeld dipole moment :      0.05907550
  |   Hirshfeld second moments:      0.00202985      -0.02730106      -0.01695129
  |                                 -0.02730106      -0.02123399       0.00919955
  |                                 -0.01695129       0.00919955      -0.01601920
  ----------------------------------------------------------------------
  | Atom    12: O
  |   Hirshfeld charge        :     -0.13564541
  |   Free atom volume        :     23.61338643
  |   Hirshfeld volume        :     20.94287883
  |   Hirshfeld dipole vector :      0.01069782       0.04022034      -0.00712450
  |   Hirshfeld dipole moment :      0.04222414
  |   Hirshfeld second moments:      0.07832613      -0.01828747       0.02109460
  |                                 -0.01828747       0.03478675       0.00313976
  |                                  0.02109460       0.00313976       0.06474608
  ----------------------------------------------------------------------
  | Atom    13: H
  |   Hirshfeld charge        :      0.15340790
  |   Free atom volume        :      9.95071624
  |   Hirshfeld volume        :      6.75816431
  |   Hirshfeld dipole vector :     -0.07226084       0.03774444      -0.05071609
  |   Hirshfeld dipole moment :      0.09601247
  |   Hirshfeld second moments:      0.11330953      -0.00735756       0.00523804
  |                                 -0.00735756       0.07824392       0.02764721
  |                                  0.00523804       0.02764721       0.09949753
  ----------------------------------------------------------------------


  Total energy components:
  | Sum of eigenvalues            :        -180.92502285 Ha       -4923.22036234 eV
  | XC energy correction          :         -42.64519221 Ha       -1160.43472232 eV
  | XC potential correction       :          54.82786167 Ha        1491.94202529 eV
  | Free-atom electrostatic energy:        -146.80714366 Ha       -3994.82563337 eV
  | Hartree energy correction     :          -7.93540080 Ha        -215.93324230 eV
  | vdW energy correction         :          -0.00331384 Ha          -0.09017408 eV
  | Entropy correction            :           0.00000000 Ha           0.00000000 eV
  | ---------------------------
  | Total energy                  :        -323.48821168 Ha       -8802.56210912 eV
  | Total energy, T -> 0          :        -323.48821168 Ha       -8802.56210912 eV  <-- do not rely on this value for anything but (periodic) metals
  | Electronic free energy        :        -323.48821168 Ha       -8802.56210912 eV

  Derived energy quantities:
  | Kinetic energy                :         322.61658111 Ha        8778.84383475 eV
  | Electrostatic energy          :        -603.45628674 Ha      -16420.88104746 eV
  | Energy correction for multipole
  | error in Hartree potential    :           0.04067400 Ha           1.10679576 eV
  | Sum of eigenvalues per atom                           :        -378.70925864 eV
  | Total energy (T->0) per atom                          :        -677.12016224 eV  <-- do not rely on this value for anything but (periodic) metals
  | Electronic free energy per atom                       :        -677.12016224 eV

  atomic forces [eV/Ang]:
  -----------------------
  atom #    1
   Hellmann-Feynman              :  0.656472E+00  0.295797E+00  0.142846E+01
   Ionic forces                  :  0.000000E+00  0.000000E+00  0.000000E+00
   Multipole                     :  0.146216E+00  0.157951E+00 -0.219623E+00
   Pulay + GGA                   : -0.957428E+00 -0.913010E-01 -0.145273E+01
   Van der Waals                 :  0.218500E-02  0.129720E-02 -0.110912E-02
   ----------------------------------------------------------------
   Total forces(   1)            : -0.152555E+00  0.363745E+00 -0.244999E+00
  atom #    2
   Hellmann-Feynman              :  0.330559E+00 -0.597501E-01  0.216231E+00
   Ionic forces                  :  0.000000E+00  0.000000E+00  0.000000E+00
   Multipole                     :  0.168136E+00  0.923233E-02 -0.140116E-01
   Pulay + GGA                   : -0.139117E+00  0.587745E-02  0.327264E-01
   Van der Waals                 :  0.621103E-02 -0.419144E-02 -0.366850E-02
   ----------------------------------------------------------------
   Total forces(   2)            :  0.365789E+00 -0.488318E-01  0.231277E+00
  atom #    3
   Hellmann-Feynman              : -0.921690E+01  0.649686E+01  0.622820E+00
   Ionic forces                  :  0.000000E+00  0.000000E+00  0.000000E+00
   Multipole                     : -0.169683E+00  0.215329E+00 -0.824134E+00
   Pulay + GGA                   :  0.919622E+01 -0.642414E+01  0.869299E+00
   Van der Waals                 :  0.376121E-02 -0.502000E-02 -0.858686E-02
   ----------------------------------------------------------------
   Total forces(   3)            : -0.186603E+00  0.283033E+00  0.659397E+00
  atom #    4
   Hellmann-Feynman              : -0.386587E-01 -0.191275E+00 -0.238772E+00
   Ionic forces                  :  0.000000E+00  0.000000E+00  0.000000E+00
   Multipole                     :  0.313975E-01 -0.583198E-02 -0.108767E+00
   Pulay + GGA                   : -0.202979E+00 -0.745273E-03  0.133536E+00
   Van der Waals                 : -0.471654E-02 -0.380268E-02  0.509269E-02
   ----------------------------------------------------------------
   Total forces(   4)            : -0.214957E+00 -0.201655E+00 -0.208911E+00
  atom #    5
   Hellmann-Feynman              :  0.570016E+00 -0.104175E+00 -0.685980E+00
   Ionic forces                  :  0.000000E+00  0.000000E+00  0.000000E+00
   Multipole                     :  0.107658E-01 -0.908044E-01 -0.958774E-01
   Pulay + GGA                   :  0.990406E-01  0.239792E+00 -0.387805E-01
   Van der Waals                 : -0.260305E-02  0.336900E-02  0.144671E-02
   ----------------------------------------------------------------
   Total forces(   5)            :  0.677219E+00  0.481817E-01 -0.819191E+00
  atom #    6
   Hellmann-Feynman              :  0.229552E-01 -0.540568E+00  0.463429E+00
   Ionic forces                  :  0.000000E+00  0.000000E+00  0.000000E+00
   Multipole                     : -0.155914E+00  0.641702E+00  0.245361E+00
   Pulay + GGA                   :  0.277087E+00 -0.451908E+00 -0.602469E+00
   Van der Waals                 : -0.475616E-02  0.448329E-02 -0.307159E-02
   ----------------------------------------------------------------
   Total forces(   6)            :  0.139372E+00 -0.346291E+00  0.103250E+00
  atom #    7
   Hellmann-Feynman              : -0.203338E+00 -0.477696E-01 -0.632824E-01
   Ionic forces                  :  0.000000E+00  0.000000E+00  0.000000E+00
   Multipole                     : -0.119392E+00  0.510740E-01  0.271951E-01
   Pulay + GGA                   :  0.119046E+00  0.159015E-01 -0.155469E-01
   Van der Waals                 : -0.114911E-02 -0.945126E-03  0.183820E-02
   ----------------------------------------------------------------
   Total forces(   7)            : -0.204834E+00  0.182607E-01 -0.497960E-01
  atom #    8
   Hellmann-Feynman              :  0.109105E+00 -0.524131E-01  0.137836E+00
   Ionic forces                  :  0.000000E+00  0.000000E+00  0.000000E+00
   Multipole                     :  0.131009E-01  0.660028E-01  0.127673E+00
   Pulay + GGA                   : -0.435365E-01 -0.385097E-01 -0.882532E-01
   Van der Waals                 : -0.277447E-02  0.111966E-01  0.127809E-02
   ----------------------------------------------------------------
   Total forces(   8)            :  0.758947E-01 -0.137233E-01  0.178534E+00
  atom #    9
   Hellmann-Feynman              :  0.908007E-01  0.422501E-01 -0.177933E+00
   Ionic forces                  :  0.000000E+00  0.000000E+00  0.000000E+00
   Multipole                     :  0.145217E-01  0.129758E+00 -0.115660E-01
   Pulay + GGA                   : -0.587421E-01 -0.776505E-01  0.522641E-01
   Van der Waals                 : -0.188032E-02  0.206739E-02  0.258680E-02
   ----------------------------------------------------------------
   Total forces(   9)            :  0.447000E-01  0.964246E-01 -0.134648E+00
  atom #   10
   Hellmann-Feynman              :  0.278697E+01  0.434517E+01  0.227572E+01
   Ionic forces                  :  0.000000E+00  0.000000E+00  0.000000E+00
   Multipole                     :  0.973813E-01 -0.576556E-01  0.187947E+00
   Pulay + GGA                   : -0.132341E+01 -0.294129E+01 -0.343966E+00
   Van der Waals                 :  0.366918E-02 -0.109027E-01 -0.173117E-02
   ----------------------------------------------------------------
   Total forces(  10)            :  0.156461E+01  0.133532E+01  0.211797E+01
  atom #   11
   Hellmann-Feynman              :  0.402446E+01 -0.240251E+01  0.140814E+02
   Ionic forces                  :  0.000000E+00  0.000000E+00  0.000000E+00
   Multipole                     :  0.181383E-01 -0.469840E+00  0.910341E+00
   Pulay + GGA                   : -0.313842E+01  0.337001E+01 -0.142002E+02
   Van der Waals                 : -0.400803E-03 -0.124197E-01  0.595846E-02
   ----------------------------------------------------------------
   Total forces(  11)            :  0.903779E+00  0.485237E+00  0.797494E+00
  atom #   12
   Hellmann-Feynman              : -0.317908E+01 -0.143719E+02 -0.439314E+00
   Ionic forces                  :  0.000000E+00  0.000000E+00  0.000000E+00
   Multipole                     : -0.957853E+00 -0.148714E+01  0.968000E-01
   Pulay + GGA                   :  0.206864E+01  0.144956E+02 -0.146283E+01
   Van der Waals                 :  0.119485E-02  0.681778E-02  0.366627E-02
   ----------------------------------------------------------------
   Total forces(  12)            : -0.206710E+01 -0.135653E+01 -0.180167E+01
  atom #   13
   Hellmann-Feynman              : -0.100600E+01 -0.516200E+00 -0.112058E+01
   Ionic forces                  :  0.000000E+00  0.000000E+00  0.000000E+00
   Multipole                     : -0.895567E-01  0.107307E+00 -0.368836E-01
   Pulay + GGA                   :  0.146601E+00 -0.261448E+00  0.325244E+00
   Van der Waals                 :  0.125918E-02  0.805037E-02 -0.369998E-02
   ----------------------------------------------------------------
   Total forces(  13)            : -0.947701E+00 -0.662291E+00 -0.835919E+00

  Timings for VdW correction (Tkatchenko-Scheffler 2009 or later):
  | CPU time:        0.090 s, Wall clock time:        0.090 s.
  Removing unitary transformations (pure translations, rotations) from forces on atoms.
  Atomic forces before filtering:
  | Net force on center of mass :  -0.237888E-02  0.877513E-03 -0.721129E-02 eV/A
  | Net torque on center of mass:   0.281373E-02 -0.198276E-02 -0.105297E-01 eV
  Atomic forces after filtering:
  | Net force on center of mass :  -0.356812E-15  0.267609E-15  0.000000E+00 eV/A
  | Net torque on center of mass:  -0.849676E-15 -0.188817E-15 -0.188817E-15 eV

  Energy and forces in a compact form:
  | Total energy uncorrected      :         -0.880256210911719E+04 eV
  | Total energy corrected        :         -0.880256210911719E+04 eV  <-- do not rely on this value for anything but (periodic) metals
  | Electronic free energy        :         -0.880256210911719E+04 eV
  Total atomic forces (unitary forces cleaned) [eV/Ang]:
  |   1         -0.152410482914249E+00          0.363834300792761E+00         -0.244497232643989E+00
  |   2          0.365933598147293E+00         -0.483188315261834E-01          0.231654851996140E+00
  |   3         -0.186619056610819E+00          0.282845357687698E+00          0.659954133737308E+00
  |   4         -0.215167511679339E+00         -0.201588149457545E+00         -0.208461064266475E+00
  |   5          0.677541913799842E+00          0.478736990180433E-01         -0.818542324208980E+00
  |   6          0.139110618274214E+00         -0.346346639093080E+00          0.103726681535045E+00
  |   7         -0.205104429919343E+00          0.177833460307392E-01         -0.491968252564634E-01
  |   8          0.757454604391467E-01         -0.135718013820090E-01          0.178968756471703E+00
  |   9          0.440327975587445E-01          0.964767289616464E-01         -0.134270165142342E+00
  |  10          0.156534206520262E+01          0.133530374565673E+01          0.211860352701339E+01
  |  11          0.904743619220175E+00          0.485408941230051E+00          0.798109290127977E+00
  |  12         -0.206611749152992E+01         -0.135686349830572E+01         -0.180090655363577E+01
  |  13         -0.947031099988368E+00         -0.662837199613137E+00         -0.835143075727539E+00

  ------------------------------------ 
  Start decomposition of the XC Energy 
  ------------------------------------ 
  X and C from original XC functional choice 
  Hartree-Fock Energy :          0.000000000 Ha              0.000000000 eV
  X Energy            :        -41.042479078 Ha          -1116.822679015 eV
  C Energy            :         -1.602713133 Ha            -43.612043309 eV
  Total XC Energy     :        -42.645192211 Ha          -1160.434722324 eV
  ------------------------------------ 
  LDA X and C from self-consistent density 
  X Energy LDA        :        -37.264051513 Ha          -1014.006433740 eV
  C Energy LDA        :         -3.139299942 Ha            -85.424697775 eV
  ------------------------------------ 
  End decomposition of the XC Energy 
  ------------------------------------ 

------------------------------------------------------------

------------------------------------------------------------------------------
  Final output of selected total energy values:

  The following output summarizes some interesting total energy values
  at the end of a run (AFTER all relaxation, molecular dynamics, etc.).

  | Total energy of the DFT / Hartree-Fock s.c.f. calculation      :          -8802.562109117 eV
  | Final zero-broadening corrected energy (caution - metals only) :          -8802.562109117 eV
  | For reference only, the value of 1 Hartree used in FHI-aims is :             27.211384500 eV

  Before relying on these values, please be sure to understand exactly which
  total energy value is referred to by a given number. Different objects may
  all carry the same name 'total energy'. Definitions:

  Total energy of the DFT / Hartree-Fock s.c.f. calculation:
  | Note that this energy does not include ANY quantities calculated after the
  | s.c.f. cycle, in particular not ANY RPA, MP2, etc. many-body perturbation terms.

  Final zero-broadening corrected energy:
  | For metallic systems only, a broadening of the occupation numbers at the Fermi
  | level can be extrapolated back to zero broadening by an electron-gas inspired
  | formula. For all systems that are not real metals, this value can be
  | meaningless and should be avoided.

------------------------------------------------------------------------------
  Methods described in the following list of references were used in this FHI-aims run.
  If you publish the results, please make sure to cite these reference if they apply.
  FHI-aims is an academic code, and for our developers (often, Ph.D. students
  and postdocs), scientific credit in the community is essential.
  Thank you for helping us!

  For any use of FHI-aims, please cite:

    Volker Blum, Ralf Gehrke, Felix Hanke, Paula Havu, Ville Havu,
    Xinguo Ren, Karsten Reuter, and Matthias Scheffler
    'Ab initio molecular simulations with numeric atom-centered orbitals'
    Computer Physics Communications 180, 2175-2196 (2009)
    http://dx.doi.org/10.1016/j.cpc.2009.06.022


  The scalable eigensolver library ELPA was used in your run.
  ELPA is essential especially for large systems on hundreds or thousands of CPUs.
  For ELPA, please cite:

    Andreas Marek, Volker Blum, Rainer Johanni, Ville Havu, Bruno Lang,
    Thomas Auckenthaler, Alexander Heinecke, Hans-Joachim Bungartz, and Hermann Lederer,
    'The ELPA Library - Scalable Parallel Eigenvalue Solutions
    for Electronic Structure Theory and Computational Science'
    The Journal of Physics: Condensed Matter 26, 213201 (2014).
    http://dx.doi.org/10.1088/0953-8984/26/21/213201


  The ELSI infrastructure was used in your run to solve the Kohn-Sham electronic structure.
  Please check out http://elsi-interchange.org to learn more.
  If scalability is important for your project, please acknowledge ELSI by citing:

    V. W-z. Yu, F. Corsetti, A. Garcia, W. P. Huhn, M. Jacquelin, W. Jia,
    B. Lange, L. Lin, J. Lu, W. Mi, A. Seifitokaldani, A. Vazquez-Mayagoitia,
    C. Yang, H. Yang, and V. Blum
    'ELSI: A unified software interface for Kohn-Sham electronic structure solvers'
    Computer Physics Communications 222, 267-285 (2018).
    http://dx.doi.org/10.1016/j.cpc.2017.09.007


  For the real-space grid partitioning and parallelization used in this calculation, please cite:

    Ville Havu, Volker Blum, Paula Havu, and Matthias Scheffler,
    'Efficient O(N) integration for all-electron electronic structure calculation'
    'using numerically tabulated basis functions'
    Journal of Computational Physics 228, 8367-8379 (2009).
    http://dx.doi.org/10.1016/j.jcp.2009.08.008

  Of course, there are many other important community references, e.g., those cited in the
  above references. Our list is limited to references that describe implementations in the
  FHI-aims code. The reason is purely practical (length of this list) - please credit others as well.

------------------------------------------------------------
          Leaving FHI-aims.
          Date     :  20200902, Time     :  105057.169

          Computational steps:
          | Number of self-consistency cycles          :           16
          | Number of SCF (re)initializations          :            1

          Detailed time accounting                     :  max(cpu_time)    wall_clock(cpu1)
          | Total time                                 :       22.858 s          22.938 s
          | Preparation time                           :        0.149 s           0.150 s
          | Boundary condition initalization           :        0.000 s           0.000 s
          | Grid partitioning                          :        0.112 s           0.113 s
          | Preloading free-atom quantities on grid    :        0.002 s           0.003 s
          | Free-atom superposition energy             :        0.084 s           0.084 s
          | Total time for integrations                :        8.702 s           8.705 s
          | Total time for solution of K.-S. equations :        0.038 s           0.042 s
          | Total time for density & force components  :        7.171 s           7.177 s
          | Total time for mixing                      :        0.217 s           0.218 s
          | Total time for Hartree multipole update    :        0.142 s           0.143 s
          | Total time for Hartree multipole sum       :        5.840 s           5.849 s
          | Total time for total energy evaluation     :        0.003 s           0.002 s
          | Total time for vdW correction              :        0.090 s           0.090 s

          Partial memory accounting:
          | Residual value for overall tracked memory usage across tasks :           0.000 MB (should be 0.000 MB)
          | Peak values for overall tracked memory usage (after allocating hessian_basis_wave):
          |   Minimum:        1.612 MB (on task 1)
          |   Maximum:        1.612 MB (on task 1)
          |   Average:        1.612 MB
          | Largest tracked array allocation (hessian_basis_wave):
          |   Minimum:        0.788 MB (on task 1)
          |   Maximum:        0.788 MB (on task 1)
          |   Average:        0.788 MB
          Note:  These values currently only include a subset of arrays which are explicitly tracked.
          The "true" memory usage will be greater.

          Have a nice day.
------------------------------------------------------------
