  MPI-parallelism will be employed.
------------------------------------------------------------
          Invoking FHI-aims ...
          Version 171221_1
          Compiled on 2019/09/09 at 14:39:39 on host puhti-login2.bullx.

          When using FHI-aims, please cite the following reference:

          Volker Blum, Ralf Gehrke, Felix Hanke, Paula Havu,
          Ville Havu, Xinguo Ren, Karsten Reuter, and Matthias Scheffler,
          'Ab Initio Molecular Simulations with Numeric Atom-Centered Orbitals',
          Computer Physics Communications 180, 2175-2196 (2009)

          For any questions about FHI-aims, please visit the aimsclub website
          with its forums and wiki. Contributions to both the forums and the
          wiki are warmly encouraged - they are for you, and everyone is welcome there.

------------------------------------------------------------



  Date     :  20200815, Time     :  002714.515
  Time zero on CPU 1             :   0.114540000000000E-01  s.
  Internal wall clock time zero  :           366683234.515  s.

  FHI-aims created a unique identifier for this run for later identification
  aims_uuid : B400BFE1-29B1-4AFE-A5C1-9B0EAEBAB648

  Using        1 parallel tasks.
  Task        0 on host r16c29.bullx reporting.

  Performing system and environment tests:
  | Environment variable OMP_NUM_THREADS correctly set to 1.
  | Stacksize not measured: no C compiler
  | Checking for scalapack...
  | Testing pdtran()...
  | All pdtran() tests passed.

  Obtaining array dimensions for all initial allocations:
  
  -----------------------------------------------------------------------
  Parsing control.in (first pass over file, find array dimensions only).
  The contents of control.in will be repeated verbatim below
  unless switched off by setting 'verbatim_writeout .false.' .
  in the first line of control.in .
  -----------------------------------------------------------------------
  
  #########################################################################################
  #
  #  Volker Blum, FHI 2009 : Test run input file control.in for simple H2O
  #
  #########################################################################################
  #
  #  Physical model
  #
    xc                 pbe
    vdw_correction_hirshfeld
    spin               none
    relativistic       none
    charge             0.
  #
  #  SCF convergence
  #
    occupation_type    gaussian 0.01
    mixer              pulay
      n_max_pulay        10
      charge_mix_param   0.2
    sc_accuracy_rho    1E-5
    sc_accuracy_eev    1E-3
    sc_accuracy_etot   1E-6
    sc_accuracy_forces 1E-4
    sc_iter_limit      100
  #
  #  Relaxation
  #
  #  relax_geometry   bfgs 1.e-3
  #
  ################################################################################
  #
  #  FHI-aims code project
  #  VB, Fritz-Haber Institut, 2009
  #
  #  Suggested "light" defaults for H atom (to be pasted into control.in file)
  #  Be sure to double-check any results obtained with these settings for post-processing,
  #  e.g., with the "tight" defaults and larger basis sets.
  #
  ################################################################################
    species        H
  #     global species definitions
      nucleus             1
      mass                1.00794
  #
      l_hartree           4
  #
      cut_pot             3.5  1.5  1.0
      basis_dep_cutoff    1e-4
  #
      radial_base         24 5.0
      radial_multiplier   1
      angular_grids       specified
        division   0.2421   50
        division   0.3822  110
        division   0.4799  194
        division   0.5341  302
  #      division   0.5626  434
  #      division   0.5922  590
  #      division   0.6542  770
  #      division   0.6868 1202
  #      outer_grid  770
        outer_grid  302
  ################################################################################
  #
  #  Definition of "minimal" basis
  #
  ################################################################################
  #     valence basis states
      valence      1  s   1.
  #     ion occupancy
      ion_occ      1  s   0.5
  ################################################################################
  #
  #  Suggested additional basis functions. For production calculations,
  #  uncomment them one after another (the most important basis functions are
  #  listed first).
  #
  #  Basis constructed for dimers: 0.5 A, 0.7 A, 1.0 A, 1.5 A, 2.5 A
  #
  ################################################################################
  #  "First tier" - improvements: -1014.90 meV to -62.69 meV
       hydro 2 s 2.1
       hydro 2 p 3.5
  #  "Second tier" - improvements: -12.89 meV to -1.83 meV
  #     hydro 1 s 0.85
  #     hydro 2 p 3.7
  #     hydro 2 s 1.2
  #     hydro 3 d 7
  #  "Third tier" - improvements: -0.25 meV to -0.12 meV
  #     hydro 4 f 11.2
  #     hydro 3 p 4.8
  #     hydro 4 d 9
  #     hydro 3 s 3.2
  ################################################################################
  #
  #  FHI-aims code project
  #  VB, Fritz-Haber Institut, 2009
  #
  #  Suggested "light" defaults for C atom (to be pasted into control.in file)
  #  Be sure to double-check any results obtained with these settings for post-processing,
  #  e.g., with the "tight" defaults and larger basis sets.
  #
  ################################################################################
    species        C
  #     global species definitions
      nucleus             6
      mass                12.0107
  #
      l_hartree           4
  #
      cut_pot             3.5  1.5  1.0
      basis_dep_cutoff    1e-4
  #
      radial_base         34 5.0
      radial_multiplier   1
      angular_grids specified
        division   0.3326   50
        division   0.5710  110
        division   0.7727  194
        division   0.8772  302
  #      division   0.9334  434
  #      division   0.9625  590
  #      division   0.9924  770
  #      division   1.0230  974
  #      division   1.4589 1202
  #     outer_grid  974
       outer_grid 302
  ################################################################################
  #
  #  Definition of "minimal" basis
  #
  ################################################################################
  #     valence basis states
      valence      2  s   2.
      valence      2  p   2.
  #     ion occupancy
      ion_occ      2  s   1.
      ion_occ      2  p   1.
  ################################################################################
  #
  #  Suggested additional basis functions. For production calculations,
  #  uncomment them one after another (the most important basis functions are
  #  listed first).
  #
  #  Constructed for dimers: 1.0 A, 1.25 A, 1.5 A, 2.0 A, 3.0 A
  #
  ################################################################################
  #  "First tier" - improvements: -1214.57 meV to -155.61 meV
       hydro 2 p 1.7
       hydro 3 d 6
       hydro 2 s 4.9
  #  "Second tier" - improvements: -67.75 meV to -5.23 meV
  #     hydro 4 f 9.8
  #     hydro 3 p 5.2
  #     hydro 3 s 4.3
  #     hydro 5 g 14.4
  #     hydro 3 d 6.2
  #  "Third tier" - improvements: -2.43 meV to -0.60 meV
  #     hydro 2 p 5.6
  #     hydro 2 s 1.4
  #     hydro 3 d 4.9
  #     hydro 4 f 11.2
  #  "Fourth tier" - improvements: -0.39 meV to -0.18 meV
  #     hydro 2 p 2.1
  #     hydro 5 g 16.4
  #     hydro 4 d 13.2
  #     hydro 3 s 13.6
  #     hydro 4 f 17.6
  #  Further basis functions - improvements: -0.08 meV and below
  #     hydro 3 s 2
  #     hydro 3 p 6
  #     hydro 4 d 20
  ################################################################################
  #
  #  FHI-aims code project
  #  VB, Fritz-Haber Institut, 2009
  #
  #  Suggested "light" defaults for N atom (to be pasted into control.in file)
  #  Be sure to double-check any results obtained with these settings for post-processing,
  #  e.g., with the "tight" defaults and larger basis sets.
  #
  ################################################################################
    species        N
  #     global species definitions
      nucleus             7
      mass                14.0067
  #
      l_hartree           4
  #
      cut_pot             3.5  1.5  1.0
      basis_dep_cutoff    1e-4
  #
      radial_base         35 5.0
      radial_multiplier   1
      angular_grids       specified
        division   0.2599   50
        division   0.4601  110
        division   0.5885  194
        division   0.6503  302
  #      division   0.6939  434
  #      division   0.7396  590
  #      division   0.7632  770
  #      division   0.8122  974
  #      division   1.1604 1202
  #      outer_grid  974
        outer_grid  302
  ################################################################################
  #
  #  Definition of "minimal" basis
  #
  ################################################################################
  #     valence basis states
      valence      2  s   2.
      valence      2  p   3.
  #     ion occupancy
      ion_occ      2  s   1.
      ion_occ      2  p   2.
  ################################################################################
  #
  #  Suggested additional basis functions. For production calculations,
  #  uncomment them one after another (the most important basis functions are
  #  listed first).
  #
  #  Constructed for dimers: 1.0 A, 1.1 A, 1.5 A, 2.0 A, 3.0 A
  #
  ################################################################################
  #  "First tier" - improvements: -1193.42 meV to -220.60 meV
       hydro 2 p 1.8
       hydro 3 d 6.8
       hydro 3 s 5.8
  #  "Second tier" - improvements: -80.21 meV to -6.86 meV
  #     hydro 4 f 10.8
  #     hydro 3 p 5.8
  #     hydro 1 s 0.8
  #     hydro 5 g 16
  #     hydro 3 d 4.9
  #  "Third tier" - improvements: -4.29 meV to -0.53 meV
  #     hydro 3 s 16
  #     ionic 2 p auto
  #     hydro 3 d 6.6
  #     hydro 4 f 11.6
  #  "Fourth tier" - improvements: -0.75 meV to -0.25 meV
  #     hydro 2 p 4.5
  #     hydro 2 s 2.4
  #     hydro 5 g 14.4
  #     hydro 4 d 14.4
  #     hydro 4 f 16.8
  # Further basis functions - -0.21 meV and below
  #     hydro 3 p 14.8
  #     hydro 3 s 4.4
  #     hydro 3 d 19.6
  #     hydro 5 g 12.8
  ################################################################################
  #
  #  FHI-aims code project
  #  VB, Fritz-Haber Institut, 2009
  #
  #  Suggested "light" defaults for O atom (to be pasted into control.in file)
  #  Be sure to double-check any results obtained with these settings for post-processing,
  #  e.g., with the "tight" defaults and larger basis sets.
  #
  ################################################################################
    species        O
  #     global species definitions
      nucleus             8
      mass                15.9994
  #
      l_hartree           4
  #
      cut_pot             3.5  1.5  1.0
      basis_dep_cutoff    1e-4
  #
      radial_base         36 5.0
      radial_multiplier   1
       angular_grids specified
        division   0.2659   50
        division   0.4451  110
        division   0.6052  194
        division   0.7543  302
  #      division   0.8014  434
  #      division   0.8507  590
  #      division   0.8762  770
  #      division   0.9023  974
  #      division   1.2339 1202
  #      outer_grid 974
        outer_grid 302
  ################################################################################
  #
  #  Definition of "minimal" basis
  #
  ################################################################################
  #     valence basis states
      valence      2  s   2.
      valence      2  p   4.
  #     ion occupancy
      ion_occ      2  s   1.
      ion_occ      2  p   3.
  ################################################################################
  #
  #  Suggested additional basis functions. For production calculations,
  #  uncomment them one after another (the most important basis functions are
  #  listed first).
  #
  #  Constructed for dimers: 1.0 A, 1.208 A, 1.5 A, 2.0 A, 3.0 A
  #
  ################################################################################
  #  "First tier" - improvements: -699.05 meV to -159.38 meV
       hydro 2 p 1.8
       hydro 3 d 7.6
       hydro 3 s 6.4
  #  "Second tier" - improvements: -49.91 meV to -5.39 meV
  #     hydro 4 f 11.6
  #     hydro 3 p 6.2
  #     hydro 3 d 5.6
  #     hydro 5 g 17.6
  #     hydro 1 s 0.75
  #  "Third tier" - improvements: -2.83 meV to -0.50 meV
  #     ionic 2 p auto
  #     hydro 4 f 10.8
  #     hydro 4 d 4.7
  #     hydro 2 s 6.8
  #  "Fourth tier" - improvements: -0.40 meV to -0.12 meV
  #     hydro 3 p 5
  #     hydro 3 s 3.3
  #     hydro 5 g 15.6
  #     hydro 4 f 17.6
  #     hydro 4 d 14
  # Further basis functions - -0.08 meV and below
  #     hydro 3 s 2.1
  #     hydro 4 d 11.6
  #     hydro 3 p 16
  #     hydro 2 s 17.2
  
  -----------------------------------------------------------------------
  Completed first pass over input file control.in .
  -----------------------------------------------------------------------
  
  
  -----------------------------------------------------------------------
  Parsing geometry.in (first pass over file, find array dimensions only).
  The contents of geometry.in will be repeated verbatim below
  unless switched off by setting 'verbatim_writeout .false.' .
  in the first line of geometry.in .
  -----------------------------------------------------------------------
  
  atom  0.00000 0.00000 0.00000 C
  atom  1.09300 0.00000 0.00000 H
  atom  -0.47961 0.00000 -1.41207 N
  atom  -0.97507 0.87462 -1.58922 H
  atom  0.32489 -0.08013 -2.03052 H
  atom  -0.49584 1.26211 0.72868 C
  atom  -1.58789 1.28919 0.74431 H
  atom  -0.13407 1.27425 1.75947 H
  atom  -0.13407 2.16087 0.22380 H
  atom  -0.39425 -1.28861 0.74398 C
  atom  -0.10189 -1.56493 1.88303 O
  atom  -1.10210 -2.13717 0.06896 O
  atom  -1.13271 -2.85177 0.72729 H
  
  -----------------------------------------------------------------------
  Completed first pass over input file geometry.in .
  -----------------------------------------------------------------------
  

  Basic array size parameters:
  | Number of species                 :        4
  | Number of atoms                   :       13
  | Max. basis fn. angular momentum   :        2
  | Max. atomic/ionic basis occupied n:        2
  | Max. number of basis fn. types    :        2
  | Max. radial fns per species/type  :        3
  | Max. logarithmic grid size        :     1301
  | Max. radial integration grid size :       36
  | Max. angular integration grid size:      302
  | Max. angular grid division number :        8
  | Radial grid for Hartree potential :     1301
  | Number of spin channels           :        1

------------------------------------------------------------
          Reading file control.in.
------------------------------------------------------------
  XC: Using PBE gradient-corrected functionals.
  Spin treatment: No spin polarisation.
  Non-relativistic treatment of kinetic energy.
  Charge =   0.000000E+00: Neutral system requested explicitly.
  Occupation type: Gaussian broadening, width =   0.100000E-01 eV.
  Using pulay charge density mixing.
  Pulay mixing - number of memorized iterations:   10
  Charge density mixing - mixing parameter:     0.2000
  Convergence accuracy of self-consistent charge density:  0.1000E-04
  Convergence accuracy of sum of eigenvalues:  0.1000E-02
  Convergence accuracy of total energy:  0.1000E-05
  Convergence accuracy of forces:  0.1000E-03
  Maximum number of s.-c. iterations  :   100
 
  Reading configuration options for species H                   .
  | Found nuclear charge :   1.0000
  | Found atomic mass :    1.00794000000000      amu
  | Found l_max for Hartree potential  :   4
  | Found cutoff potl. onset [A], width [A], scale factor :    3.50000    1.50000    1.00000
  | Threshold for basis-dependent cutoff potential is   0.100000E-03
  | Found data for basic radial integration grid :    24 points, outermost radius =    5.000 A
  | Found multiplier for basic radial grid :   1
  | Found angular grid specification: user-specified.
  | Specified grid contains     5 separate shells.
  | Check grid settings after all constraints further below.
  | Found free-atom valence shell :  1 s   1.000
  | No ionic wave fns used. Skipping ion_occ.
  | Found hydrogenic basis function :  2 s   2.100
  | Found hydrogenic basis function :  2 p   3.500
  Species H                   : Missing cutoff potential type.
  Defaulting to exp(1/x)/(1-x)^2 type cutoff potential.
  Species H : No 'logarithmic' tag. Using default grid for free atom:
  | Default logarithmic grid data [bohr] : 0.1000E-03 0.1000E+03 0.1012E+01
  Species H : On-site basis accuracy parameter (for Gram-Schmidt orthonormalisation) not specified.
  Using default value basis_acc =  0.1000000E-03.
  Species H                   : Using default innermost maximum threshold i_radial=  2 for radial functions.
  Species H                   : Default cutoff onset for free atom density etc. : 0.35000000E+01 AA.
  Species H                   : Basic radial grid will be enhanced according to radial_multiplier =   1, to contain    24 grid points.
 
  Reading configuration options for species C                   .
  | Found nuclear charge :   6.0000
  | Found atomic mass :    12.0107000000000      amu
  | Found l_max for Hartree potential  :   4
  | Found cutoff potl. onset [A], width [A], scale factor :    3.50000    1.50000    1.00000
  | Threshold for basis-dependent cutoff potential is   0.100000E-03
  | Found data for basic radial integration grid :    34 points, outermost radius =    5.000 A
  | Found multiplier for basic radial grid :   1
  | Found angular grid specification: user-specified.
  | Specified grid contains     5 separate shells.
  | Check grid settings after all constraints further below.
  | Found free-atom valence shell :  2 s   2.000
  | Found free-atom valence shell :  2 p   2.000
  | No ionic wave fns used. Skipping ion_occ.
  | No ionic wave fns used. Skipping ion_occ.
  | Found hydrogenic basis function :  2 p   1.700
  | Found hydrogenic basis function :  3 d   6.000
  | Found hydrogenic basis function :  2 s   4.900
  Species C                   : Missing cutoff potential type.
  Defaulting to exp(1/x)/(1-x)^2 type cutoff potential.
  Species C : No 'logarithmic' tag. Using default grid for free atom:
  | Default logarithmic grid data [bohr] : 0.1000E-03 0.1000E+03 0.1012E+01
  Species C : On-site basis accuracy parameter (for Gram-Schmidt orthonormalisation) not specified.
  Using default value basis_acc =  0.1000000E-03.
  Species C                   : Using default innermost maximum threshold i_radial=  2 for radial functions.
  Species C                   : Default cutoff onset for free atom density etc. : 0.35000000E+01 AA.
  Species C                   : Basic radial grid will be enhanced according to radial_multiplier =   1, to contain    34 grid points.
 
  Reading configuration options for species N                   .
  | Found nuclear charge :   7.0000
  | Found atomic mass :    14.0067000000000      amu
  | Found l_max for Hartree potential  :   4
  | Found cutoff potl. onset [A], width [A], scale factor :    3.50000    1.50000    1.00000
  | Threshold for basis-dependent cutoff potential is   0.100000E-03
  | Found data for basic radial integration grid :    35 points, outermost radius =    5.000 A
  | Found multiplier for basic radial grid :   1
  | Found angular grid specification: user-specified.
  | Specified grid contains     5 separate shells.
  | Check grid settings after all constraints further below.
  | Found free-atom valence shell :  2 s   2.000
  | Found free-atom valence shell :  2 p   3.000
  | No ionic wave fns used. Skipping ion_occ.
  | No ionic wave fns used. Skipping ion_occ.
  | Found hydrogenic basis function :  2 p   1.800
  | Found hydrogenic basis function :  3 d   6.800
  | Found hydrogenic basis function :  3 s   5.800
  Species N                   : Missing cutoff potential type.
  Defaulting to exp(1/x)/(1-x)^2 type cutoff potential.
  Species N : No 'logarithmic' tag. Using default grid for free atom:
  | Default logarithmic grid data [bohr] : 0.1000E-03 0.1000E+03 0.1012E+01
  Species N : On-site basis accuracy parameter (for Gram-Schmidt orthonormalisation) not specified.
  Using default value basis_acc =  0.1000000E-03.
  Species N                   : Using default innermost maximum threshold i_radial=  2 for radial functions.
  Species N                   : Default cutoff onset for free atom density etc. : 0.35000000E+01 AA.
  Species N                   : Basic radial grid will be enhanced according to radial_multiplier =   1, to contain    35 grid points.
 
  Reading configuration options for species O                   .
  | Found nuclear charge :   8.0000
  | Found atomic mass :    15.9994000000000      amu
  | Found l_max for Hartree potential  :   4
  | Found cutoff potl. onset [A], width [A], scale factor :    3.50000    1.50000    1.00000
  | Threshold for basis-dependent cutoff potential is   0.100000E-03
  | Found data for basic radial integration grid :    36 points, outermost radius =    5.000 A
  | Found multiplier for basic radial grid :   1
  | Found angular grid specification: user-specified.
  | Specified grid contains     5 separate shells.
  | Check grid settings after all constraints further below.
  | Found free-atom valence shell :  2 s   2.000
  | Found free-atom valence shell :  2 p   4.000
  | No ionic wave fns used. Skipping ion_occ.
  | No ionic wave fns used. Skipping ion_occ.
  | Found hydrogenic basis function :  2 p   1.800
  | Found hydrogenic basis function :  3 d   7.600
  | Found hydrogenic basis function :  3 s   6.400
  Species O                   : Missing cutoff potential type.
  Defaulting to exp(1/x)/(1-x)^2 type cutoff potential.
  Species O : No 'logarithmic' tag. Using default grid for free atom:
  | Default logarithmic grid data [bohr] : 0.1000E-03 0.1000E+03 0.1012E+01
  Species O : On-site basis accuracy parameter (for Gram-Schmidt orthonormalisation) not specified.
  Using default value basis_acc =  0.1000000E-03.
  Species O                   : Using default innermost maximum threshold i_radial=  2 for radial functions.
  Species O                   : Default cutoff onset for free atom density etc. : 0.35000000E+01 AA.
  Species O                   : Basic radial grid will be enhanced according to radial_multiplier =   1, to contain    36 grid points.
 
  Finished reading input file 'control.in'. Consistency checks are next.
 
  MPI_IN_PLACE appears to work with this MPI implementation.
  | Keeping use_mpi_in_place .true. (see manual).
  Target number of points in a grid batch is not set. Defaulting to  100
  Method for grid partitioning is not set. Defaulting to parallel hash+maxmin partitioning.
  Batch size limit is not set. Defaulting to    200
  By default, will store active basis functions for each batch.
  If in need of memory, prune_basis_once .false. can be used to disable this option.
  communication_type for Hartree potential was not specified.
  Defaulting to calc_hartree .
  Pulay mixer: Number of initial linear mixing iterations not set.
  Defaulting to    0 iterations.
  Work space size for distributed Hartree potential not set.
  Defaulting to   0.200000E+03 MB.
  Algorithm-dependent basis array size parameters:
  | n_max_pulay                         :       10
  Presetting      1001 iterations before the initial mixing cycle
  is restarted anyway using the sc_init_iter criterion / keyword.
  Presetting a factor      1.000 between actual scf density residual
  and density convergence criterion sc_accuracy_rho below which sc_init_iter
  takes no effect.
  Geometry relaxation not requested: no relaxation will be performed.
  Handling of forces: Unphysical translation and rotation will be removed from forces.
  No accuracy limit for integral partition fn. given. Defaulting to  0.1000E-14.
  No threshold value for u(r) in integrations given. Defaulting to  0.1000E-05.
  No accuracy for occupation numbers given. Defaulting to  0.1000E-12.
  No threshold value for occupation numbers given. Defaulting to  0.0000E+00.
  No accuracy for fermi level given. Defaulting to  0.1000E-19.
  Maximum # of iterations to find E_F not set. Defaulting to  200.
  Preferred method for the eigenvalue solver ('KS_method') not specified in 'control.in'.
  Defaulting to serial version, 'lapack_fast'.
  Will not use alltoall communication since running on < 1024 CPUs.
  Threshold for basis singularities not set.
  Default threshold for basis singularities:  0.1000E-04
  partition_type (choice of integration weights) for integrals was not specified.
  | Using a version of the partition function of Stratmann and coworkers ('stratmann_smoother').
  | At each grid point, the set of atoms used to build the partition table is smoothly restricted to
  | only those atoms whose free-atom density would be non-zero at that grid point.
  Partitioning for Hartree potential was not defined. Using partition_type for integrals.
  | Adjusted default value of keyword multip_moments_threshold to:       0.10000000E-11
  | This value may affect high angular momentum components of the Hartree potential in periodic systems.
  No q(lm)/r^(l+1) cutoff set for long-range Hartree potential.
  | Using default value of  0.100000E-09 .
  | Verify using the multipole_threshold keyword.
  Defaulting to new monopole extrapolation.
  Density update method: automatic selection selected.
------------------------------------------------------------


------------------------------------------------------------
          Reading geometry description geometry.in.
------------------------------------------------------------
  Input structure read successfully.
  The structure contains       13 atoms,  and a total of         48.000 electrons.

  Input geometry:
  | No unit cell requested.
  | Atomic structure:
  |       Atom                x [A]            y [A]            z [A]
  |    1: Species C             0.00000000        0.00000000        0.00000000
  |    2: Species H             1.09300000        0.00000000        0.00000000
  |    3: Species N            -0.47961000        0.00000000       -1.41207000
  |    4: Species H            -0.97507000        0.87462000       -1.58922000
  |    5: Species H             0.32489000       -0.08013000       -2.03052000
  |    6: Species C            -0.49584000        1.26211000        0.72868000
  |    7: Species H            -1.58789000        1.28919000        0.74431000
  |    8: Species H            -0.13407000        1.27425000        1.75947000
  |    9: Species H            -0.13407000        2.16087000        0.22380000
  |   10: Species C            -0.39425000       -1.28861000        0.74398000
  |   11: Species O            -0.10189000       -1.56493000        1.88303000
  |   12: Species O            -1.10210000       -2.13717000        0.06896000
  |   13: Species H            -1.13271000       -2.85177000        0.72729000
  |

  | The smallest distance between any two atoms is         0.97210520 AA.
  |
  | The first atom of this pair is atom number                     12 .
  | The second atom of this pair is atom number                    13 .

  Number of empty states per atom not set in control.in - providing a guess from actual geometry.
  | Total number of empty states used during s.c.f. cycle:       29
  If you use a very high smearing, use empty_states (per atom!) in control.in to increase this value.

  Structure-dependent array size parameters: 
  | Maximum number of distinct radial functions  :       21
  | Maximum number of basis functions            :      119
  | Number of Kohn-Sham states (occupied + empty):       53
------------------------------------------------------------

------------------------------------------------------------
          Preparing all fixed parts of the calculation.
------------------------------------------------------------
  Determining machine precision:
    2.225073858507201E-308
  Setting up grids for atomic and cluster calculations.

  Creating wave function, potential, and density for free atoms.

  Species: H

  List of occupied orbitals and eigenvalues:
    n    l              occ      energy [Ha]    energy [eV]
    1    0           1.0000        -0.237589        -6.4651


  Species: C

  List of occupied orbitals and eigenvalues:
    n    l              occ      energy [Ha]    energy [eV]
    1    0           2.0000       -10.038835      -273.1706
    2    0           2.0000        -0.502696       -13.6791
    2    1           2.0000        -0.191971        -5.2238


  Species: N

  List of occupied orbitals and eigenvalues:
    n    l              occ      energy [Ha]    energy [eV]
    1    0           2.0000       -14.128000      -384.4424
    2    0           2.0000        -0.681077       -18.5330
    2    1           3.0000        -0.259788        -7.0692


  Species: O

  List of occupied orbitals and eigenvalues:
    n    l              occ      energy [Ha]    energy [eV]
    1    0           2.0000       -18.898188      -514.2459
    2    0           2.0000        -0.878505       -23.9053
    2    1           4.0000        -0.331779        -9.0282

  Creating fixed part of basis set: Ionic, confined, hydrogenic.
 
  H                    hydrogenic:
 
  List of hydrogenic basis orbitals: 
    n    l      effective z      eigenvalue [eV]  inner max. [A]     outer max. [A]     outer radius [A]   
    2    0         2.100000       -14.9728           0.193243           1.317208           4.583499
    2    1         3.500000       -41.6669           0.602369           0.602369           3.723403
 
 
  C                    hydrogenic:
 
  List of hydrogenic basis orbitals: 
    n    l      effective z      eigenvalue [eV]  inner max. [A]     outer max. [A]     outer radius [A]   
    2    1         1.700000        -9.7616           1.230570           1.230570           4.607917
    3    2         6.000000       -54.4224           0.792453           0.792453           3.883070
    2    0         4.900000       -81.6679           0.082559           0.562749           3.078220
 
 
  N                    hydrogenic:
 
  List of hydrogenic basis orbitals: 
    n    l      effective z      eigenvalue [eV]  inner max. [A]     outer max. [A]     outer radius [A]   
    2    1         1.800000       -10.9749           1.177451           1.177451           4.573712
    3    2         6.800000       -69.9026           0.704619           0.704619           3.538137
    3    0         5.800000       -50.8545           0.067388           1.191934           4.250239
 
 
  O                    hydrogenic:
 
  List of hydrogenic basis orbitals: 
    n    l      effective z      eigenvalue [eV]  inner max. [A]     outer max. [A]     outer radius [A]   
    2    1         1.800000       -10.9749           1.164242           1.164242           4.578029
    3    2         7.600000       -87.3180           0.624125           0.624125           3.251020
    3    0         6.400000       -61.9207           0.061167           1.081902           4.001998
 

  Adding cutoff potential to free-atom effective potential.
  Creating atomic-like basis functions for current effective potential.

  Species H                   :

  List of atomic basis orbitals and eigenvalues:
    n    l      energy [Ha]    energy [eV]    outer radius [A]
    1    0        -0.237589        -6.4651       4.527807


  Species C                   :

  List of atomic basis orbitals and eigenvalues:
    n    l      energy [Ha]    energy [eV]    outer radius [A]
    1    0       -10.038835      -273.1706       1.934409
    2    0        -0.502696       -13.6791       4.496620
    2    1        -0.191971        -5.2238       4.551928


  Species N                   :

  List of atomic basis orbitals and eigenvalues:
    n    l      energy [Ha]    energy [eV]    outer radius [A]
    1    0       -14.128000      -384.4424       1.637919
    2    0        -0.681077       -18.5330       4.463241
    2    1        -0.259788        -7.0692       4.518138


  Species O                   :

  List of atomic basis orbitals and eigenvalues:
    n    l      energy [Ha]    energy [eV]    outer radius [A]
    1    0       -18.898188      -514.2459       1.415765
    2    0        -0.878505       -23.9053       4.413171
    2    1        -0.331779        -9.0282       4.522403

  Assembling full basis from fixed parts.
  | Species H :   atomic orbital   1 s accepted.
  | Species H :    hydro orbital   2 s accepted.
  | Species H :    hydro orbital   2 p accepted.
  | Species C :   atomic orbital   1 s accepted.
  | Species C :    hydro orbital   2 s accepted.
  | Species C :   atomic orbital   2 s accepted.
  | Species C :   atomic orbital   2 p accepted.
  | Species C :    hydro orbital   2 p accepted.
  | Species C :    hydro orbital   3 d accepted.
  | Species N :   atomic orbital   1 s accepted.
  | Species N :    hydro orbital   3 s accepted.
  | Species N :   atomic orbital   2 s accepted.
  | Species N :   atomic orbital   2 p accepted.
  | Species N :    hydro orbital   2 p accepted.
  | Species N :    hydro orbital   3 d accepted.
  | Species O :   atomic orbital   1 s accepted.
  | Species O :    hydro orbital   3 s accepted.
  | Species O :   atomic orbital   2 s accepted.
  | Species O :   atomic orbital   2 p accepted.
  | Species O :    hydro orbital   2 p accepted.
  | Species O :    hydro orbital   3 d accepted.
 
  Basis size parameters after reduction:
  | Total number of radial functions:       21
  | Total number of basis functions :      119
 
  Per-task memory consumption for arrays in subroutine allocate_ext:
  |           5.250512MB.
  Testing on-site integration grid accuracy.
  |  Species  Function  <phi|h_atom|phi> (log., in eV)  <phi|h_atom|phi> (rad., in eV)
           1        1                 -6.4663192853                 -6.4651273558
           1        2                 13.7111246313                 13.7170609718
           1        3                 25.2673269279                 25.2674696378
           2        4               -273.1705927641               -273.1705631568
           2        5                -10.7109323383                -10.7107120029
           2        6                 17.4381822266                 17.4352413244
           2        7                 -5.2255326521                 -5.2270484734
           2        8                  8.6835629259                  8.6603288385
           2        9                 27.4952418996                 27.4953360207
           3       10               -384.4424306495               -384.4423701208
           3       11                 12.5842251816                 12.5842222903
           3       12                -15.7264628251                -15.7264433455
           3       13                 -7.0696854293                 -7.0701769954
           3       14                  8.8090390882                  8.7901077751
           3       15                 35.9586762123                 35.9588528632
           4       16               -514.2458688638               -514.2457643834
           4       17                 15.1795651126                 15.1795290741
           4       18                -21.5359799773                -21.5360846186
           4       19                 -9.0283069236                 -9.0284644067
           4       20                  8.3027758564                  8.2834874195
           4       21                 45.8339351984                 45.8338762259

  Preparing densities etc. for the partition functions (integrals / Hartree potential).

  Preparations completed.
  max(cpu_time)          :      0.146 s.
  Wall clock time (cpu1) :      0.150 s.
------------------------------------------------------------

------------------------------------------------------------
          Begin self-consistency loop: Initialization.

          Date     :  20200815, Time     :  002714.680
------------------------------------------------------------

  Initializing index lists of integration centers etc. from given atomic structure:
  | Number of centers in hartree potential         :        13
  | Number of centers in hartree multipole         :        13
  | Number of centers in electron density summation:        13
  | Number of centers in basis integrals           :        13
  | Number of centers in integrals                 :        13
  | Number of centers in hamiltonian               :        13
  Partitioning the integration grid into batches with parallel hashing+maxmin method.
  | Number of batches:      951
  | Maximal batch size:     139
  | Minimal batch size:      66
  | Average batch size:      73.234
  | Standard deviation of batch sizes:      18.071

  Integration load balanced across     1 MPI tasks.
  Work distribution over tasks is as follows:
  Task     0 has      69646 integration points.
  Initializing partition tables, free-atom densities, potentials, etc. across the integration grid (initialize_grid_storage).
  | initialize_grid_storage: Actual outermost partition radius vs. multipole_radius_free
  | (-- VB: in principle, multipole_radius_free should be larger, hence this output)
  | Species        1: Confinement radius =              4.999999999999999 AA, multipole_radius_free =              5.054417573612229 AA.
  | Species        1: outer_partition_radius set to              5.054417573612229 AA .
  | Species        2: Confinement radius =              4.999999999999999 AA, multipole_radius_free =              5.019602836301480 AA.
  | Species        2: outer_partition_radius set to              5.019602836301480 AA .
  | Species        3: Confinement radius =              4.999999999999999 AA, multipole_radius_free =              5.043624274424571 AA.
  | Species        3: outer_partition_radius set to              5.043624274424571 AA .
  | Species        4: Confinement radius =              4.999999999999999 AA, multipole_radius_free =              5.048384829883283 AA.
  | Species        4: outer_partition_radius set to              5.048384829883283 AA .
  | Original list of interatomic distances with          13 x         13 entries is created.
  | Net number of integration points:    69646
  | of which are non-zero points    :    59648
  Renormalizing the initial density to the exact electron count on the 3D integration grid.
  | Initial density: Formal number of electrons (from input files) :      48.0000000000
  | Integrated number of electrons on 3D grid     :      47.9999365945
  | Charge integration error                      :      -0.0000634055
  | Normalization factor for density and gradient :       1.0000013209
  Obtaining max. number of non-zero basis functions in each batch (get_n_compute_maxes).
  | Maximal number of non-zero basis functions:      119 in task     0
  Selecting the method for density update.
  Loop over occupied states selected for charge density update.
  Allocating        0.050 MB for KS_eigenvector
  Integrating Hamiltonian matrix: batch-based integration.
  Time summed over all CPUs for integration: real work        0.489 s, elapsed        0.489 s
  Integrating overlap matrix.
  Time summed over all CPUs for integration: real work        0.210 s, elapsed        0.210 s

  Updating Kohn-Sham eigenvalues and eigenvectors using ELSI and the ELPA eigensolver.
  Overlap matrix is nonsingular
  | Lowest eigenvalue of overlap  :  0.44E-02
  | Highest eigenvalue of overlap :  0.61E+01
  Finished singularity check of overlap matrix
  | Time :     0.002 s
  Finished Cholesky decomposition
  | Time :     0.000 s
  Finished transformation to standard eigenproblem
  | Time :     0.000 s
  Starting LAPACK eigensolver
  Finished solving standard eigenproblem
  | Time :     0.002 s
  Finished back-transformation of eigenvectors
  | Time :     0.000 s

  Obtaining occupation numbers and chemical potential using ELSI.
  | Chemical potential (Fermi level):   -10.00886039eV
  Writing Kohn-Sham eigenvalues.

  State    Occupation    Eigenvalue [Ha]    Eigenvalue [eV]
      1       2.00000         -19.007486         -517.22001
      2       2.00000         -18.978364         -516.42756
      3       2.00000         -14.245789         -387.64764
      4       2.00000         -10.166902         -276.65548
      5       2.00000         -10.141236         -275.95706
      6       2.00000         -10.131885         -275.70261
      7       2.00000          -1.188095          -32.32972
      8       2.00000          -1.092728          -29.73464
      9       2.00000          -0.992168          -26.99826
     10       2.00000          -0.859681          -23.39310
     11       2.00000          -0.764473          -20.80236
     12       2.00000          -0.677037          -18.42312
     13       2.00000          -0.620851          -16.89422
     14       2.00000          -0.600579          -16.34260
     15       2.00000          -0.594786          -16.18496
     16       2.00000          -0.569124          -15.48664
     17       2.00000          -0.546007          -14.85761
     18       2.00000          -0.529840          -14.41768
     19       2.00000          -0.518646          -14.11307
     20       2.00000          -0.493415          -13.42650
     21       2.00000          -0.480362          -13.07132
     22       2.00000          -0.428152          -11.65060
     23       2.00000          -0.416746          -11.34023
     24       2.00000          -0.380618          -10.35715
     25       0.00000          -0.148200           -4.03272
     26       0.00000          -0.060440           -1.64466
     27       0.00000          -0.027856           -0.75800
     28       0.00000          -0.020810           -0.56626
     29       0.00000          -0.007888           -0.21463
     30       0.00000           0.008570            0.23320
     31       0.00000           0.019303            0.52525
     32       0.00000           0.028235            0.76832
     33       0.00000           0.035531            0.96686
     34       0.00000           0.081569            2.21962
     35       0.00000           0.096658            2.63020
     36       0.00000           0.134095            3.64890
     37       0.00000           0.146466            3.98553
     38       0.00000           0.194392            5.28967
     39       0.00000           0.207980            5.65943
     40       0.00000           0.233657            6.35813
     41       0.00000           0.258432            7.03231
     42       0.00000           0.266445            7.25034
     43       0.00000           0.298027            8.10972
     44       0.00000           0.310868            8.45914
     45       0.00000           0.340694            9.27074
     46       0.00000           0.362181            9.85546
     47       0.00000           0.377271           10.26605
     48       0.00000           0.404287           11.00120
     49       0.00000           0.455886           12.40529
     50       0.00000           0.476887           12.97675
     51       0.00000           0.507445           13.80829
     52       0.00000           0.510271           13.88517
     53       0.00000           0.548886           14.93595

  Highest occupied state (VBM) at    -10.35714559 eV
  | Occupation number:      2.00000000

  Lowest unoccupied state (CBM) at    -4.03271571 eV
  | Occupation number:      0.00000000

  Overall HOMO-LUMO gap:      6.32442988 eV.
  Calculating total energy contributions from superposition of free atom densities.

  Total energy components:
  | Sum of eigenvalues            :        -188.84993713 Ha       -5138.86825213 eV
  | XC energy correction          :         -41.78655020 Ha       -1137.06988452 eV
  | XC potential correction       :          53.71685636 Ha        1461.71003251 eV
  | Free-atom electrostatic energy:        -146.85363870 Ha       -3996.09082783 eV
  | Hartree energy correction     :           0.00000000 Ha           0.00000000 eV
  | vdW energy correction         :           0.00000000 Ha           0.00000000 eV
  | Entropy correction            :           0.00000000 Ha           0.00000000 eV
  | ---------------------------
  | Total energy                  :        -323.77326968 Ha       -8810.31893197 eV
  | Total energy, T -> 0          :        -323.77326968 Ha       -8810.31893197 eV  <-- do not rely on this value for anything but (periodic) metals
  | Electronic free energy        :        -323.77326968 Ha       -8810.31893197 eV

  Derived energy quantities:
  | Kinetic energy                :         320.47972820 Ha        8720.69710857 eV
  | Electrostatic energy          :        -602.46644767 Ha      -16393.94615602 eV
  | Energy correction for multipole
  | error in Hartree potential    :           0.00000000 Ha           0.00000000 eV
  | Sum of eigenvalues per atom                           :        -395.29755786 eV
  | Total energy (T->0) per atom                          :        -677.71684092 eV  <-- do not rely on this value for anything but (periodic) metals
  | Electronic free energy per atom                       :        -677.71684092 eV
  Initialize hartree_potential_storage
  Max. number of atoms included in rho_multipole:           13

  End scf initialization - timings             :  max(cpu_time)    wall_clock(cpu1)
  | Time for scf. initialization               :        1.140 s           1.141 s
  | Boundary condition initialization          :        0.000 s           0.000 s
  | Integration                                :        0.699 s           0.699 s
  | Solution of K.-S. eqns.                    :        0.004 s           0.005 s
  | Grid partitioning                          :        0.110 s           0.111 s
  | Preloading free-atom quantities on grid    :        0.002 s           0.002 s
  | Free-atom superposition energy             :        0.084 s           0.085 s
  | Total energy evaluation                    :        0.000 s           0.000 s

  Partial memory accounting:
  | Current value for overall tracked memory usage on task 0  :           0.165 MB
  | Peak value for overall tracked memory usage on task 0     :           0.678 MB after allocating wave
  | Largest tracked array allocation on task 0 so far         :           0.132 MB  when allocating H_times_psi
  Note:  These values currently only include a subset of arrays which are explicitly tracked.
  The "true" memory usage will be greater.
------------------------------------------------------------

------------------------------------------------------------
          Begin self-consistency iteration #    1

  Date     :  20200815, Time     :  002715.821
------------------------------------------------------------
  Evaluating new KS density.
  Integration grid: deviation in total charge (<rho> - N_e) =   7.105427E-14
  Pulay mixing of updated and previous charge densities.

  Evaluating partitioned Hartree potential by multipole expansion.
  | Analytical far-field extrapolation by fixed multipoles:
  | Hartree multipole sum: apparent total charge =  -0.172247E-03
  Summing up the Hartree potential.
  Time summed over all CPUs for potential: real work        0.282 s, elapsed        0.282 s
  | RMS charge density error from multipole expansion :   0.589467E-02

  Integrating Hamiltonian matrix: batch-based integration.
  Time summed over all CPUs for integration: real work        0.490 s, elapsed        0.490 s

  Updating Kohn-Sham eigenvalues and eigenvectors using ELSI and the ELPA eigensolver.
  Finished Cholesky decomposition
  | Time :     0.000 s
  Finished transformation to standard eigenproblem
  | Time :     0.000 s
  Starting LAPACK eigensolver
  Finished solving standard eigenproblem
  | Time :     0.001 s
  Finished back-transformation of eigenvectors
  | Time :     0.000 s

  Obtaining occupation numbers and chemical potential using ELSI.
  | Chemical potential (Fermi level):    -4.73432192eV
  Writing Kohn-Sham eigenvalues.

  State    Occupation    Eigenvalue [Ha]    Eigenvalue [eV]
      1       2.00000         -18.901325         -514.33123
      2       2.00000         -18.836675         -512.57202
      3       2.00000         -14.094463         -383.52985
      4       2.00000         -10.110960         -275.13322
      5       2.00000         -10.061888         -273.79792
      6       2.00000         -10.032897         -273.00902
      7       2.00000          -1.135596          -30.90115
      8       2.00000          -1.027946          -27.97183
      9       2.00000          -0.920915          -25.05936
     10       2.00000          -0.793528          -21.59299
     11       2.00000          -0.712807          -19.39645
     12       2.00000          -0.628612          -17.10540
     13       2.00000          -0.558446          -15.19608
     14       2.00000          -0.540396          -14.70493
     15       2.00000          -0.532863          -14.49995
     16       2.00000          -0.505834          -13.76445
     17       2.00000          -0.492794          -13.40962
     18       2.00000          -0.470911          -12.81415
     19       2.00000          -0.453714          -12.34620
     20       2.00000          -0.434474          -11.82263
     21       2.00000          -0.425177          -11.56965
     22       2.00000          -0.363891           -9.90198
     23       2.00000          -0.342436           -9.31815
     24       2.00000          -0.307287           -8.36170
     25       0.00000          -0.108483           -2.95198
     26       0.00000          -0.031917           -0.86851
     27       0.00000          -0.001840           -0.05006
     28       0.00000           0.015289            0.41602
     29       0.00000           0.023745            0.64614
     30       0.00000           0.048721            1.32577
     31       0.00000           0.057350            1.56058
     32       0.00000           0.066696            1.81488
     33       0.00000           0.076444            2.08016
     34       0.00000           0.123596            3.36321
     35       0.00000           0.139492            3.79576
     36       0.00000           0.163509            4.44931
     37       0.00000           0.174823            4.75719
     38       0.00000           0.222310            6.04937
     39       0.00000           0.236941            6.44750
     40       0.00000           0.272295            7.40954
     41       0.00000           0.295308            8.03573
     42       0.00000           0.299752            8.15666
     43       0.00000           0.336508            9.15685
     44       0.00000           0.352377            9.58866
     45       0.00000           0.382513           10.40871
     46       0.00000           0.403003           10.96628
     47       0.00000           0.415160           11.29707
     48       0.00000           0.441756           12.02079
     49       0.00000           0.493093           13.41774
     50       0.00000           0.513776           13.98056
     51       0.00000           0.544623           14.81995
     52       0.00000           0.546159           14.86173
     53       0.00000           0.587291           15.98100

  Highest occupied state (VBM) at     -8.36170155 eV
  | Occupation number:      2.00000000

  Lowest unoccupied state (CBM) at    -2.95198277 eV
  | Occupation number:      0.00000000

  Overall HOMO-LUMO gap:      5.40971878 eV.

  Total energy components:
  | Sum of eigenvalues            :        -185.37167238 Ha       -5044.21985242 eV
  | XC energy correction          :         -42.11545805 Ha       -1146.01992246 eV
  | XC potential correction       :          54.14469292 Ha        1473.35205755 eV
  | Free-atom electrostatic energy:        -146.85363870 Ha       -3996.09082783 eV
  | Hartree energy correction     :          -3.39732164 Ha         -92.44582535 eV
  | vdW energy correction         :           0.00000000 Ha           0.00000000 eV
  | Entropy correction            :           0.00000000 Ha           0.00000000 eV
  | ---------------------------
  | Total energy                  :        -323.59339785 Ha       -8805.42437051 eV
  | Total energy, T -> 0          :        -323.59339785 Ha       -8805.42437051 eV  <-- do not rely on this value for anything but (periodic) metals
  | Electronic free energy        :        -323.59339785 Ha       -8805.42437051 eV

  Derived energy quantities:
  | Kinetic energy                :         322.26933899 Ha        8769.39489583 eV
  | Electrostatic energy          :        -603.74727879 Ha      -16428.79934388 eV
  | Energy correction for multipole
  | error in Hartree potential    :           0.01229552 Ha           0.33457817 eV
  | Sum of eigenvalues per atom                           :        -388.01691172 eV
  | Total energy (T->0) per atom                          :        -677.34033619 eV  <-- do not rely on this value for anything but (periodic) metals
  | Electronic free energy per atom                       :        -677.34033619 eV

  Self-consistency convergence accuracy:
  | Change of charge density      :  0.5802E+00
  | Change of sum of eigenvalues  :  0.9465E+02 eV
  | Change of total energy        :  0.4895E+01 eV

  End self-consistency iteration #     1       :  max(cpu_time)    wall_clock(cpu1)
  | Time for this iteration                    :        1.180 s           1.181 s
  | Charge density update                      :        0.390 s           0.390 s
  | Density mixing                             :        0.005 s           0.006 s
  | Hartree multipole update                   :        0.009 s           0.009 s
  | Hartree multipole summation                :        0.283 s           0.283 s
  | Integration                                :        0.490 s           0.491 s
  | Solution of K.-S. eqns.                    :        0.002 s           0.002 s
  | Total energy evaluation                    :        0.000 s           0.000 s

  Partial memory accounting:
  | Current value for overall tracked memory usage on task 0  :           0.165 MB
  | Peak value for overall tracked memory usage on task 0     :           0.695 MB after allocating gradient_basis_wave
  | Largest tracked array allocation on task 0 so far         :           0.397 MB  when allocating gradient_basis_wave
  Note:  These values currently only include a subset of arrays which are explicitly tracked.
  The "true" memory usage will be greater.
------------------------------------------------------------

------------------------------------------------------------
          Begin self-consistency iteration #    2

  Date     :  20200815, Time     :  002717.005
------------------------------------------------------------
  Evaluating new KS density.
  Integration grid: deviation in total charge (<rho> - N_e) =   4.263256E-14
  Pulay mixing of updated and previous charge densities.

  Evaluating partitioned Hartree potential by multipole expansion.
  | Analytical far-field extrapolation by fixed multipoles:
  | Hartree multipole sum: apparent total charge =  -0.313687E-03
  Summing up the Hartree potential.
  Time summed over all CPUs for potential: real work        0.282 s, elapsed        0.282 s
  | RMS charge density error from multipole expansion :   0.141263E-01

  Integrating Hamiltonian matrix: batch-based integration.
  Time summed over all CPUs for integration: real work        0.498 s, elapsed        0.498 s

  Updating Kohn-Sham eigenvalues and eigenvectors using ELSI and the ELPA eigensolver.
  Finished Cholesky decomposition
  | Time :     0.000 s
  Finished transformation to standard eigenproblem
  | Time :     0.000 s
  Starting LAPACK eigensolver
  Finished solving standard eigenproblem
  | Time :     0.002 s
  Finished back-transformation of eigenvectors
  | Time :     0.000 s

  Obtaining occupation numbers and chemical potential using ELSI.
  | Chemical potential (Fermi level):    -3.40043257eV
  Highest occupied state (VBM) at     -6.31074202 eV
  | Occupation number:      2.00000000

  Lowest unoccupied state (CBM) at    -1.58338163 eV
  | Occupation number:      0.00000000

  Overall HOMO-LUMO gap:      4.72736038 eV.

  Checking to see if s.c.f. parameters should be adjusted.

  Total energy components:
  | Sum of eigenvalues            :        -181.67301136 Ha       -4943.57416544 eV
  | XC energy correction          :         -42.48081092 Ha       -1155.96167969 eV
  | XC potential correction       :          54.61839930 Ha        1486.24226420 eV
  | Free-atom electrostatic energy:        -146.85363870 Ha       -3996.09082783 eV
  | Hartree energy correction     :          -7.12637517 Ha        -193.91853480 eV
  | vdW energy correction         :           0.00000000 Ha           0.00000000 eV
  | Entropy correction            :           0.00000000 Ha           0.00000000 eV
  | ---------------------------
  | Total energy                  :        -323.51543684 Ha       -8803.30294357 eV
  | Total energy, T -> 0          :        -323.51543684 Ha       -8803.30294357 eV  <-- do not rely on this value for anything but (periodic) metals
  | Electronic free energy        :        -323.51543684 Ha       -8803.30294357 eV

  Derived energy quantities:
  | Kinetic energy                :         323.60930713 Ha        8805.85728422 eV
  | Electrostatic energy          :        -604.64393306 Ha      -16453.19854809 eV
  | Energy correction for multipole
  | error in Hartree potential    :           0.02744818 Ha           0.74690291 eV
  | Sum of eigenvalues per atom                           :        -380.27493580 eV
  | Total energy (T->0) per atom                          :        -677.17714951 eV  <-- do not rely on this value for anything but (periodic) metals
  | Electronic free energy per atom                       :        -677.17714951 eV

  Self-consistency convergence accuracy:
  | Change of charge density      :  0.3620E+00
  | Change of sum of eigenvalues  :  0.1006E+03 eV
  | Change of total energy        :  0.2121E+01 eV

  End self-consistency iteration #     2       :  max(cpu_time)    wall_clock(cpu1)
  | Time for this iteration                    :        1.175 s           1.182 s
  | Charge density update                      :        0.383 s           0.384 s
  | Density mixing                             :        0.007 s           0.006 s
  | Hartree multipole update                   :        0.009 s           0.009 s
  | Hartree multipole summation                :        0.283 s           0.283 s
  | Integration                                :        0.492 s           0.498 s
  | Solution of K.-S. eqns.                    :        0.002 s           0.002 s
  | Total energy evaluation                    :        0.000 s           0.000 s

  Partial memory accounting:
  | Current value for overall tracked memory usage on task 0  :           0.166 MB
  | Peak value for overall tracked memory usage on task 0     :           0.695 MB after allocating gradient_basis_wave
  | Largest tracked array allocation on task 0 so far         :           0.397 MB  when allocating gradient_basis_wave
  Note:  These values currently only include a subset of arrays which are explicitly tracked.
  The "true" memory usage will be greater.
------------------------------------------------------------

------------------------------------------------------------
          Begin self-consistency iteration #    3

  Date     :  20200815, Time     :  002718.193
------------------------------------------------------------
  Evaluating new KS density.
  Integration grid: deviation in total charge (<rho> - N_e) =   4.263256E-14
  Pulay mixing of updated and previous charge densities.

  Evaluating partitioned Hartree potential by multipole expansion.
  | Analytical far-field extrapolation by fixed multipoles:
  | Hartree multipole sum: apparent total charge =  -0.416817E-03
  Summing up the Hartree potential.
  Time summed over all CPUs for potential: real work        0.282 s, elapsed        0.282 s
  | RMS charge density error from multipole expansion :   0.226030E-01

  Integrating Hamiltonian matrix: batch-based integration.
  Time summed over all CPUs for integration: real work        0.488 s, elapsed        0.488 s

  Updating Kohn-Sham eigenvalues and eigenvectors using ELSI and the ELPA eigensolver.
  Finished Cholesky decomposition
  | Time :     0.000 s
  Finished transformation to standard eigenproblem
  | Time :     0.000 s
  Starting LAPACK eigensolver
  Finished solving standard eigenproblem
  | Time :     0.002 s
  Finished back-transformation of eigenvectors
  | Time :     0.000 s

  Obtaining occupation numbers and chemical potential using ELSI.
  | Chemical potential (Fermi level):    -2.68533286eV
  Highest occupied state (VBM) at     -5.65426233 eV
  | Occupation number:      2.00000000

  Lowest unoccupied state (CBM) at    -0.84649444 eV
  | Occupation number:      0.00000000

  Overall HOMO-LUMO gap:      4.80776789 eV.

  Total energy components:
  | Sum of eigenvalues            :        -180.38293461 Ha       -4908.46939084 eV
  | XC energy correction          :         -42.62959959 Ha       -1160.01042558 eV
  | XC potential correction       :          54.80790282 Ha        1491.39891728 eV
  | Free-atom electrostatic energy:        -146.85363870 Ha       -3996.09082783 eV
  | Hartree energy correction     :          -8.44492019 Ha        -229.79797045 eV
  | vdW energy correction         :           0.00000000 Ha           0.00000000 eV
  | Entropy correction            :           0.00000000 Ha           0.00000000 eV
  | ---------------------------
  | Total energy                  :        -323.50319027 Ha       -8802.96969743 eV
  | Total energy, T -> 0          :        -323.50319027 Ha       -8802.96969743 eV  <-- do not rely on this value for anything but (periodic) metals
  | Electronic free energy        :        -323.50319027 Ha       -8802.96969743 eV

  Derived energy quantities:
  | Kinetic energy                :         323.10841264 Ha        8792.22725163 eV
  | Electrostatic energy          :        -603.98200332 Ha      -16435.18652349 eV
  | Energy correction for multipole
  | error in Hartree potential    :           0.03942451 Ha           1.07279559 eV
  | Sum of eigenvalues per atom                           :        -377.57456853 eV
  | Total energy (T->0) per atom                          :        -677.15151519 eV  <-- do not rely on this value for anything but (periodic) metals
  | Electronic free energy per atom                       :        -677.15151519 eV

  Self-consistency convergence accuracy:
  | Change of charge density      :  0.2006E+00
  | Change of sum of eigenvalues  :  0.3510E+02 eV
  | Change of total energy        :  0.3332E+00 eV

  End self-consistency iteration #     3       :  max(cpu_time)    wall_clock(cpu1)
  | Time for this iteration                    :        1.173 s           1.173 s
  | Charge density update                      :        0.383 s           0.383 s
  | Density mixing                             :        0.008 s           0.008 s
  | Hartree multipole update                   :        0.008 s           0.009 s
  | Hartree multipole summation                :        0.283 s           0.283 s
  | Integration                                :        0.488 s           0.488 s
  | Solution of K.-S. eqns.                    :        0.002 s           0.002 s
  | Total energy evaluation                    :        0.000 s           0.000 s

  Partial memory accounting:
  | Current value for overall tracked memory usage on task 0  :           0.166 MB
  | Peak value for overall tracked memory usage on task 0     :           0.695 MB after allocating gradient_basis_wave
  | Largest tracked array allocation on task 0 so far         :           0.397 MB  when allocating gradient_basis_wave
  Note:  These values currently only include a subset of arrays which are explicitly tracked.
  The "true" memory usage will be greater.
------------------------------------------------------------

------------------------------------------------------------
          Begin self-consistency iteration #    4

  Date     :  20200815, Time     :  002719.369
------------------------------------------------------------
  Evaluating new KS density.
  Integration grid: deviation in total charge (<rho> - N_e) =   2.131628E-14
  Pulay mixing of updated and previous charge densities.

  Evaluating partitioned Hartree potential by multipole expansion.
  | Analytical far-field extrapolation by fixed multipoles:
  | Hartree multipole sum: apparent total charge =  -0.447661E-03
  Summing up the Hartree potential.
  Time summed over all CPUs for potential: real work        0.282 s, elapsed        0.282 s
  | RMS charge density error from multipole expansion :   0.256840E-01

  Integrating Hamiltonian matrix: batch-based integration.
  Time summed over all CPUs for integration: real work        0.488 s, elapsed        0.488 s

  Updating Kohn-Sham eigenvalues and eigenvectors using ELSI and the ELPA eigensolver.
  Finished Cholesky decomposition
  | Time :     0.000 s
  Finished transformation to standard eigenproblem
  | Time :     0.000 s
  Starting LAPACK eigensolver
  Finished solving standard eigenproblem
  | Time :     0.002 s
  Finished back-transformation of eigenvectors
  | Time :     0.000 s

  Obtaining occupation numbers and chemical potential using ELSI.
  | Chemical potential (Fermi level):    -2.59595106eV
  Highest occupied state (VBM) at     -5.46478328 eV
  | Occupation number:      2.00000000

  Lowest unoccupied state (CBM) at    -0.77397937 eV
  | Occupation number:      0.00000000

  Overall HOMO-LUMO gap:      4.69080391 eV.

  Total energy components:
  | Sum of eigenvalues            :        -180.22388864 Ha       -4904.14152997 eV
  | XC energy correction          :         -42.66521702 Ha       -1160.97962499 eV
  | XC potential correction       :          54.85290209 Ha        1492.62340965 eV
  | Free-atom electrostatic energy:        -146.85363870 Ha       -3996.09082783 eV
  | Hartree energy correction     :          -8.61263978 Ha        -234.36185255 eV
  | vdW energy correction         :           0.00000000 Ha           0.00000000 eV
  | Entropy correction            :           0.00000000 Ha           0.00000000 eV
  | ---------------------------
  | Total energy                  :        -323.50248205 Ha       -8802.95042570 eV
  | Total energy, T -> 0          :        -323.50248205 Ha       -8802.95042570 eV  <-- do not rely on this value for anything but (periodic) metals
  | Electronic free energy        :        -323.50248205 Ha       -8802.95042570 eV

  Derived energy quantities:
  | Kinetic energy                :         322.78207951 Ha        8783.34727516 eV
  | Electrostatic energy          :        -603.61934454 Ha      -16425.31807587 eV
  | Energy correction for multipole
  | error in Hartree potential    :           0.04338463 Ha           1.18055591 eV
  | Sum of eigenvalues per atom                           :        -377.24165615 eV
  | Total energy (T->0) per atom                          :        -677.15003275 eV  <-- do not rely on this value for anything but (periodic) metals
  | Electronic free energy per atom                       :        -677.15003275 eV

  Self-consistency convergence accuracy:
  | Change of charge density      :  0.5652E-01
  | Change of sum of eigenvalues  :  0.4328E+01 eV
  | Change of total energy        :  0.1927E-01 eV

  End self-consistency iteration #     4       :  max(cpu_time)    wall_clock(cpu1)
  | Time for this iteration                    :        1.175 s           1.175 s
  | Charge density update                      :        0.384 s           0.384 s
  | Density mixing                             :        0.009 s           0.009 s
  | Hartree multipole update                   :        0.009 s           0.009 s
  | Hartree multipole summation                :        0.283 s           0.283 s
  | Integration                                :        0.488 s           0.488 s
  | Solution of K.-S. eqns.                    :        0.002 s           0.002 s
  | Total energy evaluation                    :        0.000 s           0.000 s

  Partial memory accounting:
  | Current value for overall tracked memory usage on task 0  :           0.166 MB
  | Peak value for overall tracked memory usage on task 0     :           0.696 MB after allocating gradient_basis_wave
  | Largest tracked array allocation on task 0 so far         :           0.397 MB  when allocating gradient_basis_wave
  Note:  These values currently only include a subset of arrays which are explicitly tracked.
  The "true" memory usage will be greater.
------------------------------------------------------------

------------------------------------------------------------
          Begin self-consistency iteration #    5

  Date     :  20200815, Time     :  002720.547
------------------------------------------------------------
  Evaluating new KS density.
  Integration grid: deviation in total charge (<rho> - N_e) =   1.421085E-14
  Pulay mixing of updated and previous charge densities.

  Evaluating partitioned Hartree potential by multipole expansion.
  | Analytical far-field extrapolation by fixed multipoles:
  | Hartree multipole sum: apparent total charge =  -0.441989E-03
  Summing up the Hartree potential.
  Time summed over all CPUs for potential: real work        0.282 s, elapsed        0.282 s
  | RMS charge density error from multipole expansion :   0.254334E-01

  Integrating Hamiltonian matrix: batch-based integration.
  Time summed over all CPUs for integration: real work        0.488 s, elapsed        0.488 s

  Updating Kohn-Sham eigenvalues and eigenvectors using ELSI and the ELPA eigensolver.
  Finished Cholesky decomposition
  | Time :     0.000 s
  Finished transformation to standard eigenproblem
  | Time :     0.000 s
  Starting LAPACK eigensolver
  Finished solving standard eigenproblem
  | Time :     0.002 s
  Finished back-transformation of eigenvectors
  | Time :     0.000 s

  Obtaining occupation numbers and chemical potential using ELSI.
  | Chemical potential (Fermi level):    -2.65890667eV
  Highest occupied state (VBM) at     -5.54718408 eV
  | Occupation number:      2.00000000

  Lowest unoccupied state (CBM) at    -0.85137142 eV
  | Occupation number:      0.00000000

  Overall HOMO-LUMO gap:      4.69581266 eV.

  Total energy components:
  | Sum of eigenvalues            :        -180.40003937 Ha       -4908.93483522 eV
  | XC energy correction          :         -42.64386692 Ha       -1160.39865928 eV
  | XC potential correction       :          54.82521203 Ha        1491.86992496 eV
  | Free-atom electrostatic energy:        -146.85363870 Ha       -3996.09082783 eV
  | Hartree energy correction     :          -8.42985505 Ha        -229.38802694 eV
  | vdW energy correction         :           0.00000000 Ha           0.00000000 eV
  | Entropy correction            :           0.00000000 Ha           0.00000000 eV
  | ---------------------------
  | Total energy                  :        -323.50218800 Ha       -8802.94242433 eV
  | Total energy, T -> 0          :        -323.50218800 Ha       -8802.94242433 eV  <-- do not rely on this value for anything but (periodic) metals
  | Electronic free energy        :        -323.50218800 Ha       -8802.94242433 eV

  Derived energy quantities:
  | Kinetic energy                :         322.68967457 Ha        8780.83280881 eV
  | Electrostatic energy          :        -603.54799565 Ha      -16423.37657385 eV
  | Energy correction for multipole
  | error in Hartree potential    :           0.04278699 Ha           1.16429310 eV
  | Sum of eigenvalues per atom                           :        -377.61037194 eV
  | Total energy (T->0) per atom                          :        -677.14941726 eV  <-- do not rely on this value for anything but (periodic) metals
  | Electronic free energy per atom                       :        -677.14941726 eV

  Self-consistency convergence accuracy:
  | Change of charge density      :  0.2038E-01
  | Change of sum of eigenvalues  : -0.4793E+01 eV
  | Change of total energy        :  0.8001E-02 eV

  End self-consistency iteration #     5       :  max(cpu_time)    wall_clock(cpu1)
  | Time for this iteration                    :        1.181 s           1.182 s
  | Charge density update                      :        0.388 s           0.389 s
  | Density mixing                             :        0.011 s           0.010 s
  | Hartree multipole update                   :        0.009 s           0.009 s
  | Hartree multipole summation                :        0.282 s           0.283 s
  | Integration                                :        0.488 s           0.488 s
  | Solution of K.-S. eqns.                    :        0.002 s           0.002 s
  | Total energy evaluation                    :        0.000 s           0.000 s

  Partial memory accounting:
  | Current value for overall tracked memory usage on task 0  :           0.166 MB
  | Peak value for overall tracked memory usage on task 0     :           0.696 MB after allocating gradient_basis_wave
  | Largest tracked array allocation on task 0 so far         :           0.397 MB  when allocating gradient_basis_wave
  Note:  These values currently only include a subset of arrays which are explicitly tracked.
  The "true" memory usage will be greater.
------------------------------------------------------------

------------------------------------------------------------
          Begin self-consistency iteration #    6

  Date     :  20200815, Time     :  002721.731
------------------------------------------------------------
  Evaluating new KS density.
  Integration grid: deviation in total charge (<rho> - N_e) =   0.000000E+00
  Pulay mixing of updated and previous charge densities.

  Evaluating partitioned Hartree potential by multipole expansion.
  | Analytical far-field extrapolation by fixed multipoles:
  | Hartree multipole sum: apparent total charge =  -0.443992E-03
  Summing up the Hartree potential.
  Time summed over all CPUs for potential: real work        0.282 s, elapsed        0.282 s
  | RMS charge density error from multipole expansion :   0.257425E-01

  Integrating Hamiltonian matrix: batch-based integration.
  Time summed over all CPUs for integration: real work        0.488 s, elapsed        0.488 s

  Updating Kohn-Sham eigenvalues and eigenvectors using ELSI and the ELPA eigensolver.
  Finished Cholesky decomposition
  | Time :     0.000 s
  Finished transformation to standard eigenproblem
  | Time :     0.000 s
  Starting LAPACK eigensolver
  Finished solving standard eigenproblem
  | Time :     0.002 s
  Finished back-transformation of eigenvectors
  | Time :     0.000 s

  Obtaining occupation numbers and chemical potential using ELSI.
  | Chemical potential (Fermi level):    -2.67505413eV
  Highest occupied state (VBM) at     -5.53910815 eV
  | Occupation number:      2.00000000

  Lowest unoccupied state (CBM) at    -0.87713755 eV
  | Occupation number:      0.00000000

  Overall HOMO-LUMO gap:      4.66197059 eV.

  Total energy components:
  | Sum of eigenvalues            :        -180.43830124 Ha       -4909.97599361 eV
  | XC energy correction          :         -42.63764130 Ha       -1160.22925171 eV
  | XC potential correction       :          54.81713302 Ha        1491.65008370 eV
  | Free-atom electrostatic energy:        -146.85363870 Ha       -3996.09082783 eV
  | Hartree energy correction     :          -8.38967473 Ha        -228.29466492 eV
  | vdW energy correction         :           0.00000000 Ha           0.00000000 eV
  | Entropy correction            :           0.00000000 Ha           0.00000000 eV
  | ---------------------------
  | Total energy                  :        -323.50212296 Ha       -8802.94065438 eV
  | Total energy, T -> 0          :        -323.50212296 Ha       -8802.94065438 eV  <-- do not rely on this value for anything but (periodic) metals
  | Electronic free energy        :        -323.50212296 Ha       -8802.94065438 eV

  Derived energy quantities:
  | Kinetic energy                :         322.59963752 Ha        8778.38277614 eV
  | Electrostatic energy          :        -603.46411917 Ha      -16421.09417880 eV
  | Energy correction for multipole
  | error in Hartree potential    :           0.04297400 Ha           1.16938194 eV
  | Sum of eigenvalues per atom                           :        -377.69046105 eV
  | Total energy (T->0) per atom                          :        -677.14928111 eV  <-- do not rely on this value for anything but (periodic) metals
  | Electronic free energy per atom                       :        -677.14928111 eV

  Self-consistency convergence accuracy:
  | Change of charge density      :  0.1023E-01
  | Change of sum of eigenvalues  : -0.1041E+01 eV
  | Change of total energy        :  0.1770E-02 eV

  End self-consistency iteration #     6       :  max(cpu_time)    wall_clock(cpu1)
  | Time for this iteration                    :        1.177 s           1.178 s
  | Charge density update                      :        0.384 s           0.384 s
  | Density mixing                             :        0.012 s           0.012 s
  | Hartree multipole update                   :        0.009 s           0.008 s
  | Hartree multipole summation                :        0.282 s           0.283 s
  | Integration                                :        0.488 s           0.488 s
  | Solution of K.-S. eqns.                    :        0.002 s           0.002 s
  | Total energy evaluation                    :        0.000 s           0.000 s

  Partial memory accounting:
  | Current value for overall tracked memory usage on task 0  :           0.166 MB
  | Peak value for overall tracked memory usage on task 0     :           0.696 MB after allocating gradient_basis_wave
  | Largest tracked array allocation on task 0 so far         :           0.397 MB  when allocating gradient_basis_wave
  Note:  These values currently only include a subset of arrays which are explicitly tracked.
  The "true" memory usage will be greater.
------------------------------------------------------------

------------------------------------------------------------
          Begin self-consistency iteration #    7

  Date     :  20200815, Time     :  002722.911
------------------------------------------------------------
  Evaluating new KS density.
  Integration grid: deviation in total charge (<rho> - N_e) =  -7.105427E-14
  Pulay mixing of updated and previous charge densities.

  Evaluating partitioned Hartree potential by multipole expansion.
  | Analytical far-field extrapolation by fixed multipoles:
  | Hartree multipole sum: apparent total charge =  -0.445702E-03
  Summing up the Hartree potential.
  Time summed over all CPUs for potential: real work        0.282 s, elapsed        0.282 s
  | RMS charge density error from multipole expansion :   0.259072E-01

  Integrating Hamiltonian matrix: batch-based integration.
  Time summed over all CPUs for integration: real work        0.489 s, elapsed        0.489 s

  Updating Kohn-Sham eigenvalues and eigenvectors using ELSI and the ELPA eigensolver.
  Finished Cholesky decomposition
  | Time :     0.000 s
  Finished transformation to standard eigenproblem
  | Time :     0.000 s
  Starting LAPACK eigensolver
  Finished solving standard eigenproblem
  | Time :     0.002 s
  Finished back-transformation of eigenvectors
  | Time :     0.000 s

[...]
  |   Hirshfeld dipole moment :      0.06799222
  |   Hirshfeld second moments:      0.00156221      -0.01561383      -0.01517338
  |                                 -0.01561383      -0.01011455       0.00764531
  |                                 -0.01517338       0.00764531      -0.02408935
  ----------------------------------------------------------------------
  | Atom    12: O
  |   Hirshfeld charge        :     -0.14389954
  |   Free atom volume        :     23.61338643
  |   Hirshfeld volume        :     21.09153120
  |   Hirshfeld dipole vector :      0.01778328      -0.00415200       0.04790007
  |   Hirshfeld dipole moment :      0.05126305
  |   Hirshfeld second moments:      0.05453333       0.01146751      -0.01947806
  |                                  0.01146751       0.09046347      -0.00709927
  |                                 -0.01947806      -0.00709927       0.01694392
  ----------------------------------------------------------------------
  | Atom    13: H
  |   Hirshfeld charge        :      0.16649510
  |   Free atom volume        :      9.95071624
  |   Hirshfeld volume        :      6.47308446
  |   Hirshfeld dipole vector :     -0.02088252      -0.09916061       0.04895172
  |   Hirshfeld dipole moment :      0.11253966
  |   Hirshfeld second moments:      0.11437436       0.00114700      -0.01536629
  |                                  0.00114700       0.12140911       0.00060996
  |                                 -0.01536629       0.00060996       0.07945231
  ----------------------------------------------------------------------


  Total energy components:
  | Sum of eigenvalues            :        -180.42619413 Ha       -4909.64654234 eV
  | XC energy correction          :         -42.63569529 Ha       -1160.17629805 eV
  | XC potential correction       :          54.81469039 Ha        1491.58361643 eV
  | Free-atom electrostatic energy:        -146.85363870 Ha       -3996.09082783 eV
  | Hartree energy correction     :          -8.40126522 Ha        -228.61005823 eV
  | vdW energy correction         :          -0.00323128 Ha          -0.08792749 eV
  | Entropy correction            :           0.00000000 Ha           0.00000000 eV
  | ---------------------------
  | Total energy                  :        -323.50533423 Ha       -8803.02803751 eV
  | Total energy, T -> 0          :        -323.50533423 Ha       -8803.02803751 eV  <-- do not rely on this value for anything but (periodic) metals
  | Electronic free energy        :        -323.50533423 Ha       -8803.02803751 eV

  Derived energy quantities:
  | Kinetic energy                :         322.56128714 Ha        8777.33920908 eV
  | Electrostatic energy          :        -603.42769480 Ha      -16420.10302105 eV
  | Energy correction for multipole
  | error in Hartree potential    :           0.04310015 Ha           1.17281481 eV
  | Sum of eigenvalues per atom                           :        -377.66511864 eV
  | Total energy (T->0) per atom                          :        -677.15600289 eV  <-- do not rely on this value for anything but (periodic) metals
  | Electronic free energy per atom                       :        -677.15600289 eV

  atomic forces [eV/Ang]:
  -----------------------
  atom #    1
   Hellmann-Feynman              :  0.463598E+00  0.106608E+00  0.555903E+00
   Ionic forces                  :  0.000000E+00  0.000000E+00  0.000000E+00
   Multipole                     :  0.179177E+00  0.578212E+00 -0.316543E+00
   Pulay + GGA                   : -0.117444E+01 -0.422967E+00 -0.962909E+00
   Van der Waals                 :  0.163532E-02  0.371304E-03 -0.135617E-02
   ----------------------------------------------------------------
   Total forces(   1)            : -0.530027E+00  0.262225E+00 -0.724905E+00
  atom #    2
   Hellmann-Feynman              :  0.287102E+00 -0.613385E-01  0.169859E+00
   Ionic forces                  :  0.000000E+00  0.000000E+00  0.000000E+00
   Multipole                     :  0.177422E+00  0.445204E-01  0.357933E-03
   Pulay + GGA                   : -0.123705E+00  0.155434E-01  0.357699E-01
   Van der Waals                 :  0.607548E-02 -0.474981E-02 -0.513203E-02
   ----------------------------------------------------------------
   Total forces(   2)            :  0.346894E+00 -0.602443E-02  0.200855E+00
  atom #    3
   Hellmann-Feynman              : -0.709026E+01 -0.894554E+01 -0.580939E+00
   Ionic forces                  :  0.000000E+00  0.000000E+00  0.000000E+00
   Multipole                     : -0.156477E+00  0.103698E+00 -0.855085E+00
   Pulay + GGA                   :  0.737410E+01  0.869016E+01  0.213174E+01
   Van der Waals                 :  0.294135E-02 -0.785667E-02 -0.654843E-02
   ----------------------------------------------------------------
   Total forces(   3)            :  0.130311E+00 -0.159538E+00  0.689168E+00
  atom #    4
   Hellmann-Feynman              :  0.175114E+00  0.112744E+00 -0.173951E+00
   Ionic forces                  :  0.000000E+00  0.000000E+00  0.000000E+00
   Multipole                     : -0.420127E-01  0.683917E-01 -0.857393E-01
   Pulay + GGA                   :  0.291426E-01 -0.228637E+00  0.384257E-01
   Van der Waals                 : -0.967215E-03 -0.766898E-02 -0.542371E-02
   ----------------------------------------------------------------
   Total forces(   4)            :  0.161277E+00 -0.551706E-01 -0.226688E+00
  atom #    5
   Hellmann-Feynman              :  0.226681E-01  0.197999E+00 -0.237069E+00
   Ionic forces                  :  0.000000E+00  0.000000E+00  0.000000E+00
   Multipole                     :  0.390304E-01  0.835495E-02 -0.115318E+00
   Pulay + GGA                   : -0.195882E+00 -0.629502E-01  0.122210E+00
   Van der Waals                 : -0.374816E-02  0.459312E-03  0.563166E-02
   ----------------------------------------------------------------
   Total forces(   5)            : -0.137931E+00  0.143863E+00 -0.224546E+00
  atom #    6
   Hellmann-Feynman              :  0.265923E-01 -0.545316E+00  0.305007E+00
   Ionic forces                  :  0.000000E+00  0.000000E+00  0.000000E+00
   Multipole                     : -0.336106E-01  0.614755E+00  0.267747E+00
   Pulay + GGA                   :  0.238317E+00 -0.553246E+00 -0.353284E+00
   Van der Waals                 : -0.203449E-02  0.549842E-02 -0.279561E-02
   ----------------------------------------------------------------
   Total forces(   6)            :  0.229265E+00 -0.478309E+00  0.216674E+00
  atom #    7
   Hellmann-Feynman              : -0.238896E+00 -0.555170E-01 -0.384754E-01
   Ionic forces                  :  0.000000E+00  0.000000E+00  0.000000E+00
   Multipole                     : -0.121478E+00  0.487257E-01  0.273477E-01
   Pulay + GGA                   :  0.111299E+00 -0.558285E-02  0.148677E-01
   Van der Waals                 : -0.319606E-02  0.360458E-02  0.943407E-02
   ----------------------------------------------------------------
   Total forces(   7)            : -0.252271E+00 -0.876958E-02  0.131741E-01
  atom #    8
   Hellmann-Feynman              :  0.127005E-01 -0.265968E-02  0.193600E+00
   Ionic forces                  :  0.000000E+00  0.000000E+00  0.000000E+00
   Multipole                     :  0.187287E-01  0.633985E-01  0.115444E+00
   Pulay + GGA                   : -0.489400E-01 -0.469903E-01 -0.113787E+00
   Van der Waals                 : -0.285709E-02  0.114885E-01  0.726126E-03
   ----------------------------------------------------------------
   Total forces(   8)            : -0.203680E-01  0.252370E-01  0.195983E+00
  atom #    9
   Hellmann-Feynman              :  0.138253E+00  0.464220E-01 -0.176327E+00
   Ionic forces                  :  0.000000E+00  0.000000E+00  0.000000E+00
   Multipole                     :  0.153704E-01  0.127813E+00 -0.104864E-01
   Pulay + GGA                   : -0.297386E-01 -0.830650E-01  0.591466E-01
   Van der Waals                 : -0.104150E-03  0.593378E-02  0.701735E-02
   ----------------------------------------------------------------
   Total forces(   9)            :  0.123780E+00  0.971042E-01 -0.120650E+00
  atom #   10
   Hellmann-Feynman              :  0.215129E+01  0.500374E+01  0.898252E-02
   Ionic forces                  :  0.000000E+00  0.000000E+00  0.000000E+00
   Multipole                     : -0.429782E-01 -0.241128E+00  0.267559E+00
   Pulay + GGA                   : -0.144891E+01 -0.288573E+01 -0.129094E+00
   Van der Waals                 :  0.203786E-02 -0.111801E-01 -0.203238E-02
   ----------------------------------------------------------------
   Total forces(  10)            :  0.661438E+00  0.186570E+01  0.145415E+00
  atom #   11
   Hellmann-Feynman              :  0.419069E+01 -0.246968E+01  0.144410E+02
   Ionic forces                  :  0.000000E+00  0.000000E+00  0.000000E+00
   Multipole                     :  0.129219E+00 -0.507101E+00  0.788245E+00
   Pulay + GGA                   : -0.328281E+01  0.340022E+01 -0.134434E+02
   Van der Waals                 : -0.306964E-02 -0.119973E-01  0.251837E-02
   ----------------------------------------------------------------
   Total forces(  11)            :  0.103404E+01  0.411443E+00  0.178839E+01
  atom #   12
   Hellmann-Feynman              : -0.611268E+01  0.396415E+00 -0.149675E+02
   Ionic forces                  :  0.000000E+00  0.000000E+00  0.000000E+00
   Multipole                     : -0.878259E+00 -0.943145E+00 -0.829628E+00
   Pulay + GGA                   :  0.572166E+01 -0.781663E+00  0.137528E+02
   Van der Waals                 :  0.200725E-02  0.106118E-01  0.519413E-03
   ----------------------------------------------------------------
   Total forces(  12)            : -0.126726E+01 -0.131778E+01 -0.204386E+01
  atom #   13
   Hellmann-Feynman              : -0.527462E+00 -0.101527E+01  0.220291E+00
   Ionic forces                  :  0.000000E+00  0.000000E+00  0.000000E+00
   Multipole                     :  0.131284E-01 -0.566297E-01  0.872904E-01
   Pulay + GGA                   :  0.336403E-01  0.283285E+00 -0.214832E+00
   Van der Waals                 :  0.127956E-02  0.548523E-02 -0.255867E-02
   ----------------------------------------------------------------
   Total forces(  13)            : -0.479414E+00 -0.783132E+00  0.901906E-01

  Timings for VdW correction (Tkatchenko-Scheffler 2009 or later):
  | CPU time:        0.088 s, Wall clock time:        0.089 s.
  Removing unitary transformations (pure translations, rotations) from forces on atoms.
  Atomic forces before filtering:
  | Net force on center of mass :  -0.273245E-03 -0.315628E-02 -0.801768E-03 eV/A
  | Net torque on center of mass:  -0.107982E-01  0.496229E-02  0.308247E-02 eV
  Atomic forces after filtering:
  | Net force on center of mass :  -0.892031E-16  0.892031E-16 -0.401414E-15 eV/A
  | Net torque on center of mass:  -0.472042E-15 -0.188817E-15 -0.377634E-15 eV

  Energy and forces in a compact form:
  | Total energy uncorrected      :         -0.880302803751208E+04 eV
  | Total energy corrected        :         -0.880302803751208E+04 eV  <-- do not rely on this value for anything but (periodic) metals
  | Electronic free energy        :         -0.880302803751208E+04 eV
  Total atomic forces (unitary forces cleaned) [eV/Ang]:
  |   1         -0.529972902383659E+00          0.262467569621637E+00         -0.724750999357581E+00
  |   2          0.346948613757351E+00         -0.587468662770747E-02          0.201211992465592E+00
  |   3          0.130627768674353E+00         -0.158918284352088E+00          0.689233527835925E+00
  |   4          0.161701148561363E+00         -0.544663023826606E-01         -0.226506732723806E+00
  |   5         -0.137506390186200E+00          0.144561337478795E+00         -0.224349930309803E+00
  |   6          0.229291201670498E+00         -0.478197041948833E+00          0.217036164806827E+00
  |   7         -0.252244499083273E+00         -0.856816861610882E-02          0.133400246063267E-01
  |   8         -0.205318160879248E-01          0.250728160620801E-01          0.196415866151793E+00
  |   9          0.123977438847248E+00          0.973054259860093E-01         -0.120006388450577E+00
  |  10          0.661244069960500E+00          0.186579645940577E+01          0.145189311118967E+00
  |  11          0.103360780997666E+01          0.411246274800348E+00          0.178815477225028E+01
  |  12         -0.126740422630860E+01         -0.131746022602088E+01         -0.204442356671639E+01
  |  13         -0.479738217398307E+00         -0.782965173406362E+00          0.894559583224431E-01

  ------------------------------------ 
  Start decomposition of the XC Energy 
  ------------------------------------ 
  X and C from original XC functional choice 
  Hartree-Fock Energy :          0.000000000 Ha              0.000000000 eV
  X Energy            :        -41.035588546 Ha          -1116.635178097 eV
  C Energy            :         -1.600106748 Ha            -43.541119953 eV
  Total XC Energy     :        -42.635695293 Ha          -1160.176298050 eV
  ------------------------------------ 
  LDA X and C from self-consistent density 
  X Energy LDA        :        -37.253921625 Ha          -1013.730785460 eV
  C Energy LDA        :         -3.138402976 Ha            -85.400290091 eV
  ------------------------------------ 
  End decomposition of the XC Energy 
  ------------------------------------ 

------------------------------------------------------------

------------------------------------------------------------------------------
  Final output of selected total energy values:

  The following output summarizes some interesting total energy values
  at the end of a run (AFTER all relaxation, molecular dynamics, etc.).

  | Total energy of the DFT / Hartree-Fock s.c.f. calculation      :          -8803.028037512 eV
  | Final zero-broadening corrected energy (caution - metals only) :          -8803.028037512 eV
  | For reference only, the value of 1 Hartree used in FHI-aims is :             27.211384500 eV

  Before relying on these values, please be sure to understand exactly which
  total energy value is referred to by a given number. Different objects may
  all carry the same name 'total energy'. Definitions:

  Total energy of the DFT / Hartree-Fock s.c.f. calculation:
  | Note that this energy does not include ANY quantities calculated after the
  | s.c.f. cycle, in particular not ANY RPA, MP2, etc. many-body perturbation terms.

  Final zero-broadening corrected energy:
  | For metallic systems only, a broadening of the occupation numbers at the Fermi
  | level can be extrapolated back to zero broadening by an electron-gas inspired
  | formula. For all systems that are not real metals, this value can be
  | meaningless and should be avoided.

------------------------------------------------------------------------------
  Methods described in the following list of references were used in this FHI-aims run.
  If you publish the results, please make sure to cite these reference if they apply.
  FHI-aims is an academic code, and for our developers (often, Ph.D. students
  and postdocs), scientific credit in the community is essential.
  Thank you for helping us!

  For any use of FHI-aims, please cite:

    Volker Blum, Ralf Gehrke, Felix Hanke, Paula Havu, Ville Havu,
    Xinguo Ren, Karsten Reuter, and Matthias Scheffler
    'Ab initio molecular simulations with numeric atom-centered orbitals'
    Computer Physics Communications 180, 2175-2196 (2009)
    http://dx.doi.org/10.1016/j.cpc.2009.06.022


  The scalable eigensolver library ELPA was used in your run.
  ELPA is essential especially for large systems on hundreds or thousands of CPUs.
  For ELPA, please cite:

    Andreas Marek, Volker Blum, Rainer Johanni, Ville Havu, Bruno Lang,
    Thomas Auckenthaler, Alexander Heinecke, Hans-Joachim Bungartz, and Hermann Lederer,
    'The ELPA Library - Scalable Parallel Eigenvalue Solutions
    for Electronic Structure Theory and Computational Science'
    The Journal of Physics: Condensed Matter 26, 213201 (2014).
    http://dx.doi.org/10.1088/0953-8984/26/21/213201


  The ELSI infrastructure was used in your run to solve the Kohn-Sham electronic structure.
  Please check out http://elsi-interchange.org to learn more.
  If scalability is important for your project, please acknowledge ELSI by citing:

    V. W-z. Yu, F. Corsetti, A. Garcia, W. P. Huhn, M. Jacquelin, W. Jia,
    B. Lange, L. Lin, J. Lu, W. Mi, A. Seifitokaldani, A. Vazquez-Mayagoitia,
    C. Yang, H. Yang, and V. Blum
    'ELSI: A unified software interface for Kohn-Sham electronic structure solvers'
    Computer Physics Communications 222, 267-285 (2018).
    http://dx.doi.org/10.1016/j.cpc.2017.09.007


  For the real-space grid partitioning and parallelization used in this calculation, please cite:

    Ville Havu, Volker Blum, Paula Havu, and Matthias Scheffler,
    'Efficient O(N) integration for all-electron electronic structure calculation'
    'using numerically tabulated basis functions'
    Journal of Computational Physics 228, 8367-8379 (2009).
    http://dx.doi.org/10.1016/j.jcp.2009.08.008

  Of course, there are many other important community references, e.g., those cited in the
  above references. Our list is limited to references that describe implementations in the
  FHI-aims code. The reason is purely practical (length of this list) - please credit others as well.

------------------------------------------------------------
          Leaving FHI-aims.
          Date     :  20200815, Time     :  002735.997

          Computational steps:
          | Number of self-consistency cycles          :           15
          | Number of SCF (re)initializations          :            1

          Detailed time accounting                     :  max(cpu_time)    wall_clock(cpu1)
          | Total time                                 :       21.403 s          21.482 s
          | Preparation time                           :        0.146 s           0.150 s
          | Boundary condition initalization           :        0.000 s           0.000 s
          | Grid partitioning                          :        0.110 s           0.111 s
          | Preloading free-atom quantities on grid    :        0.002 s           0.002 s
          | Free-atom superposition energy             :        0.084 s           0.085 s
          | Total time for integrations                :        8.032 s           8.040 s
          | Total time for solution of K.-S. equations :        0.034 s           0.036 s
          | Total time for density & force components  :        6.728 s           6.746 s
          | Total time for mixing                      :        0.199 s           0.199 s
          | Total time for Hartree multipole update    :        0.130 s           0.131 s
          | Total time for Hartree multipole sum       :        5.541 s           5.548 s
          | Total time for total energy evaluation     :        0.002 s           0.001 s
          | Total time for vdW correction              :        0.088 s           0.089 s

          Partial memory accounting:
          | Residual value for overall tracked memory usage across tasks :           0.000 MB (should be 0.000 MB)
          | Peak values for overall tracked memory usage (after allocating hessian_basis_wave):
          |   Minimum:        1.622 MB (on task 1)
          |   Maximum:        1.622 MB (on task 1)
          |   Average:        1.622 MB
          | Largest tracked array allocation (hessian_basis_wave):
          |   Minimum:        0.794 MB (on task 1)
          |   Maximum:        0.794 MB (on task 1)
          |   Average:        0.794 MB
          Note:  These values currently only include a subset of arrays which are explicitly tracked.
          The "true" memory usage will be greater.

          Have a nice day.
------------------------------------------------------------
