  MPI-parallelism will be employed.
------------------------------------------------------------
          Invoking FHI-aims ...
          Version 171221_1
          Compiled on 2019/09/09 at 14:39:39 on host puhti-login2.bullx.

          When using FHI-aims, please cite the following reference:

          Volker Blum, Ralf Gehrke, Felix Hanke, Paula Havu,
          Ville Havu, Xinguo Ren, Karsten Reuter, and Matthias Scheffler,
          'Ab Initio Molecular Simulations with Numeric Atom-Centered Orbitals',
          Computer Physics Communications 180, 2175-2196 (2009)

          For any questions about FHI-aims, please visit the aimsclub website
          with its forums and wiki. Contributions to both the forums and the
          wiki are warmly encouraged - they are for you, and everyone is welcome there.

------------------------------------------------------------



  Date     :  20200801, Time     :  171953.909
  Time zero on CPU 1             :   0.101670000000000E-01  s.
  Internal wall clock time zero  :           365534393.909  s.

  FHI-aims created a unique identifier for this run for later identification
  aims_uuid : 8184A68C-2BAC-4A9A-A5DD-3B4CEC7AD40A

  Using        1 parallel tasks.
  Task        0 on host r18c46.bullx reporting.

  Performing system and environment tests:
  | Environment variable OMP_NUM_THREADS correctly set to 1.
  | Stacksize not measured: no C compiler
  | Checking for scalapack...
  | Testing pdtran()...
  | All pdtran() tests passed.

  Obtaining array dimensions for all initial allocations:
  
  -----------------------------------------------------------------------
  Parsing control.in (first pass over file, find array dimensions only).
  The contents of control.in will be repeated verbatim below
  unless switched off by setting 'verbatim_writeout .false.' .
  in the first line of control.in .
  -----------------------------------------------------------------------
  
  #########################################################################################
  #
  #  Volker Blum, FHI 2009 : Test run input file control.in for simple H2O
  #
  #########################################################################################
  #
  #  Physical model
  #
    xc                 pbe
    vdw_correction_hirshfeld
    spin               none
    relativistic       none
    charge             0.
  #
  #  SCF convergence
  #
    occupation_type    gaussian 0.01
    mixer              pulay
      n_max_pulay        10
      charge_mix_param   0.2
    sc_accuracy_rho    1E-5
    sc_accuracy_eev    1E-3
    sc_accuracy_etot   1E-6
    sc_accuracy_forces 1E-4
    sc_iter_limit      100
  #
  #  Relaxation
  #
  #  relax_geometry   bfgs 1.e-3
  #
  ################################################################################
  #
  #  FHI-aims code project
  #  VB, Fritz-Haber Institut, 2009
  #
  #  Suggested "light" defaults for H atom (to be pasted into control.in file)
  #  Be sure to double-check any results obtained with these settings for post-processing,
  #  e.g., with the "tight" defaults and larger basis sets.
  #
  ################################################################################
    species        H
  #     global species definitions
      nucleus             1
      mass                1.00794
  #
      l_hartree           4
  #
      cut_pot             3.5  1.5  1.0
      basis_dep_cutoff    1e-4
  #
      radial_base         24 5.0
      radial_multiplier   1
      angular_grids       specified
        division   0.2421   50
        division   0.3822  110
        division   0.4799  194
        division   0.5341  302
  #      division   0.5626  434
  #      division   0.5922  590
  #      division   0.6542  770
  #      division   0.6868 1202
  #      outer_grid  770
        outer_grid  302
  ################################################################################
  #
  #  Definition of "minimal" basis
  #
  ################################################################################
  #     valence basis states
      valence      1  s   1.
  #     ion occupancy
      ion_occ      1  s   0.5
  ################################################################################
  #
  #  Suggested additional basis functions. For production calculations,
  #  uncomment them one after another (the most important basis functions are
  #  listed first).
  #
  #  Basis constructed for dimers: 0.5 A, 0.7 A, 1.0 A, 1.5 A, 2.5 A
  #
  ################################################################################
  #  "First tier" - improvements: -1014.90 meV to -62.69 meV
       hydro 2 s 2.1
       hydro 2 p 3.5
  #  "Second tier" - improvements: -12.89 meV to -1.83 meV
  #     hydro 1 s 0.85
  #     hydro 2 p 3.7
  #     hydro 2 s 1.2
  #     hydro 3 d 7
  #  "Third tier" - improvements: -0.25 meV to -0.12 meV
  #     hydro 4 f 11.2
  #     hydro 3 p 4.8
  #     hydro 4 d 9
  #     hydro 3 s 3.2
  ################################################################################
  #
  #  FHI-aims code project
  #  VB, Fritz-Haber Institut, 2009
  #
  #  Suggested "light" defaults for C atom (to be pasted into control.in file)
  #  Be sure to double-check any results obtained with these settings for post-processing,
  #  e.g., with the "tight" defaults and larger basis sets.
  #
  ################################################################################
    species        C
  #     global species definitions
      nucleus             6
      mass                12.0107
  #
      l_hartree           4
  #
      cut_pot             3.5  1.5  1.0
      basis_dep_cutoff    1e-4
  #
      radial_base         34 5.0
      radial_multiplier   1
      angular_grids specified
        division   0.3326   50
        division   0.5710  110
        division   0.7727  194
        division   0.8772  302
  #      division   0.9334  434
  #      division   0.9625  590
  #      division   0.9924  770
  #      division   1.0230  974
  #      division   1.4589 1202
  #     outer_grid  974
       outer_grid 302
  ################################################################################
  #
  #  Definition of "minimal" basis
  #
  ################################################################################
  #     valence basis states
      valence      2  s   2.
      valence      2  p   2.
  #     ion occupancy
      ion_occ      2  s   1.
      ion_occ      2  p   1.
  ################################################################################
  #
  #  Suggested additional basis functions. For production calculations,
  #  uncomment them one after another (the most important basis functions are
  #  listed first).
  #
  #  Constructed for dimers: 1.0 A, 1.25 A, 1.5 A, 2.0 A, 3.0 A
  #
  ################################################################################
  #  "First tier" - improvements: -1214.57 meV to -155.61 meV
       hydro 2 p 1.7
       hydro 3 d 6
       hydro 2 s 4.9
  #  "Second tier" - improvements: -67.75 meV to -5.23 meV
  #     hydro 4 f 9.8
  #     hydro 3 p 5.2
  #     hydro 3 s 4.3
  #     hydro 5 g 14.4
  #     hydro 3 d 6.2
  #  "Third tier" - improvements: -2.43 meV to -0.60 meV
  #     hydro 2 p 5.6
  #     hydro 2 s 1.4
  #     hydro 3 d 4.9
  #     hydro 4 f 11.2
  #  "Fourth tier" - improvements: -0.39 meV to -0.18 meV
  #     hydro 2 p 2.1
  #     hydro 5 g 16.4
  #     hydro 4 d 13.2
  #     hydro 3 s 13.6
  #     hydro 4 f 17.6
  #  Further basis functions - improvements: -0.08 meV and below
  #     hydro 3 s 2
  #     hydro 3 p 6
  #     hydro 4 d 20
  ################################################################################
  #
  #  FHI-aims code project
  #  VB, Fritz-Haber Institut, 2009
  #
  #  Suggested "light" defaults for N atom (to be pasted into control.in file)
  #  Be sure to double-check any results obtained with these settings for post-processing,
  #  e.g., with the "tight" defaults and larger basis sets.
  #
  ################################################################################
    species        N
  #     global species definitions
      nucleus             7
      mass                14.0067
  #
      l_hartree           4
  #
      cut_pot             3.5  1.5  1.0
      basis_dep_cutoff    1e-4
  #
      radial_base         35 5.0
      radial_multiplier   1
      angular_grids       specified
        division   0.2599   50
        division   0.4601  110
        division   0.5885  194
        division   0.6503  302
  #      division   0.6939  434
  #      division   0.7396  590
  #      division   0.7632  770
  #      division   0.8122  974
  #      division   1.1604 1202
  #      outer_grid  974
        outer_grid  302
  ################################################################################
  #
  #  Definition of "minimal" basis
  #
  ################################################################################
  #     valence basis states
      valence      2  s   2.
      valence      2  p   3.
  #     ion occupancy
      ion_occ      2  s   1.
      ion_occ      2  p   2.
  ################################################################################
  #
  #  Suggested additional basis functions. For production calculations,
  #  uncomment them one after another (the most important basis functions are
  #  listed first).
  #
  #  Constructed for dimers: 1.0 A, 1.1 A, 1.5 A, 2.0 A, 3.0 A
  #
  ################################################################################
  #  "First tier" - improvements: -1193.42 meV to -220.60 meV
       hydro 2 p 1.8
       hydro 3 d 6.8
       hydro 3 s 5.8
  #  "Second tier" - improvements: -80.21 meV to -6.86 meV
  #     hydro 4 f 10.8
  #     hydro 3 p 5.8
  #     hydro 1 s 0.8
  #     hydro 5 g 16
  #     hydro 3 d 4.9
  #  "Third tier" - improvements: -4.29 meV to -0.53 meV
  #     hydro 3 s 16
  #     ionic 2 p auto
  #     hydro 3 d 6.6
  #     hydro 4 f 11.6
  #  "Fourth tier" - improvements: -0.75 meV to -0.25 meV
  #     hydro 2 p 4.5
  #     hydro 2 s 2.4
  #     hydro 5 g 14.4
  #     hydro 4 d 14.4
  #     hydro 4 f 16.8
  # Further basis functions - -0.21 meV and below
  #     hydro 3 p 14.8
  #     hydro 3 s 4.4
  #     hydro 3 d 19.6
  #     hydro 5 g 12.8
  ################################################################################
  #
  #  FHI-aims code project
  #  VB, Fritz-Haber Institut, 2009
  #
  #  Suggested "light" defaults for O atom (to be pasted into control.in file)
  #  Be sure to double-check any results obtained with these settings for post-processing,
  #  e.g., with the "tight" defaults and larger basis sets.
  #
  ################################################################################
    species        O
  #     global species definitions
      nucleus             8
      mass                15.9994
  #
      l_hartree           4
  #
      cut_pot             3.5  1.5  1.0
      basis_dep_cutoff    1e-4
  #
      radial_base         36 5.0
      radial_multiplier   1
       angular_grids specified
        division   0.2659   50
        division   0.4451  110
        division   0.6052  194
        division   0.7543  302
  #      division   0.8014  434
  #      division   0.8507  590
  #      division   0.8762  770
  #      division   0.9023  974
  #      division   1.2339 1202
  #      outer_grid 974
        outer_grid 302
  ################################################################################
  #
  #  Definition of "minimal" basis
  #
  ################################################################################
  #     valence basis states
      valence      2  s   2.
      valence      2  p   4.
  #     ion occupancy
      ion_occ      2  s   1.
      ion_occ      2  p   3.
  ################################################################################
  #
  #  Suggested additional basis functions. For production calculations,
  #  uncomment them one after another (the most important basis functions are
  #  listed first).
  #
  #  Constructed for dimers: 1.0 A, 1.208 A, 1.5 A, 2.0 A, 3.0 A
  #
  ################################################################################
  #  "First tier" - improvements: -699.05 meV to -159.38 meV
       hydro 2 p 1.8
       hydro 3 d 7.6
       hydro 3 s 6.4
  #  "Second tier" - improvements: -49.91 meV to -5.39 meV
  #     hydro 4 f 11.6
  #     hydro 3 p 6.2
  #     hydro 3 d 5.6
  #     hydro 5 g 17.6
  #     hydro 1 s 0.75
  #  "Third tier" - improvements: -2.83 meV to -0.50 meV
  #     ionic 2 p auto
  #     hydro 4 f 10.8
  #     hydro 4 d 4.7
  #     hydro 2 s 6.8
  #  "Fourth tier" - improvements: -0.40 meV to -0.12 meV
  #     hydro 3 p 5
  #     hydro 3 s 3.3
  #     hydro 5 g 15.6
  #     hydro 4 f 17.6
  #     hydro 4 d 14
  # Further basis functions - -0.08 meV and below
  #     hydro 3 s 2.1
  #     hydro 4 d 11.6
  #     hydro 3 p 16
  #     hydro 2 s 17.2
  
  -----------------------------------------------------------------------
  Completed first pass over input file control.in .
  -----------------------------------------------------------------------
  
  
  -----------------------------------------------------------------------
  Parsing geometry.in (first pass over file, find array dimensions only).
  The contents of geometry.in will be repeated verbatim below
  unless switched off by setting 'verbatim_writeout .false.' .
  in the first line of geometry.in .
  -----------------------------------------------------------------------
  
  atom  0.00000 0.00000 0.00000 C
  atom  1.09300 0.00000 0.00000 H
  atom  -0.47961 0.00000 -1.41207 N
  atom  -0.28429 0.91330 -1.82384 H
  atom  0.01216 -0.72932 -1.92430 H
  atom  -0.49584 1.26211 0.72868 C
  atom  -1.58789 1.28919 0.74431 H
  atom  -0.13407 1.27425 1.75947 H
  atom  -0.13407 2.16087 0.22380 H
  atom  -0.39425 -1.28861 0.74398 C
  atom  -0.10189 -1.56493 1.88303 O
  atom  -1.10210 -2.13717 0.06896 O
  atom  -0.53923 -2.19432 -0.72154 H
  
  -----------------------------------------------------------------------
  Completed first pass over input file geometry.in .
  -----------------------------------------------------------------------
  

  Basic array size parameters:
  | Number of species                 :        4
  | Number of atoms                   :       13
  | Max. basis fn. angular momentum   :        2
  | Max. atomic/ionic basis occupied n:        2
  | Max. number of basis fn. types    :        2
  | Max. radial fns per species/type  :        3
  | Max. logarithmic grid size        :     1301
  | Max. radial integration grid size :       36
  | Max. angular integration grid size:      302
  | Max. angular grid division number :        8
  | Radial grid for Hartree potential :     1301
  | Number of spin channels           :        1

------------------------------------------------------------
          Reading file control.in.
------------------------------------------------------------
  XC: Using PBE gradient-corrected functionals.
  Spin treatment: No spin polarisation.
  Non-relativistic treatment of kinetic energy.
  Charge =   0.000000E+00: Neutral system requested explicitly.
  Occupation type: Gaussian broadening, width =   0.100000E-01 eV.
  Using pulay charge density mixing.
  Pulay mixing - number of memorized iterations:   10
  Charge density mixing - mixing parameter:     0.2000
  Convergence accuracy of self-consistent charge density:  0.1000E-04
  Convergence accuracy of sum of eigenvalues:  0.1000E-02
  Convergence accuracy of total energy:  0.1000E-05
  Convergence accuracy of forces:  0.1000E-03
  Maximum number of s.-c. iterations  :   100
 
  Reading configuration options for species H                   .
  | Found nuclear charge :   1.0000
  | Found atomic mass :    1.00794000000000      amu
  | Found l_max for Hartree potential  :   4
  | Found cutoff potl. onset [A], width [A], scale factor :    3.50000    1.50000    1.00000
  | Threshold for basis-dependent cutoff potential is   0.100000E-03
  | Found data for basic radial integration grid :    24 points, outermost radius =    5.000 A
  | Found multiplier for basic radial grid :   1
  | Found angular grid specification: user-specified.
  | Specified grid contains     5 separate shells.
  | Check grid settings after all constraints further below.
  | Found free-atom valence shell :  1 s   1.000
  | No ionic wave fns used. Skipping ion_occ.
  | Found hydrogenic basis function :  2 s   2.100
  | Found hydrogenic basis function :  2 p   3.500
  Species H                   : Missing cutoff potential type.
  Defaulting to exp(1/x)/(1-x)^2 type cutoff potential.
  Species H : No 'logarithmic' tag. Using default grid for free atom:
  | Default logarithmic grid data [bohr] : 0.1000E-03 0.1000E+03 0.1012E+01
  Species H : On-site basis accuracy parameter (for Gram-Schmidt orthonormalisation) not specified.
  Using default value basis_acc =  0.1000000E-03.
  Species H                   : Using default innermost maximum threshold i_radial=  2 for radial functions.
  Species H                   : Default cutoff onset for free atom density etc. : 0.35000000E+01 AA.
  Species H                   : Basic radial grid will be enhanced according to radial_multiplier =   1, to contain    24 grid points.
 
  Reading configuration options for species C                   .
  | Found nuclear charge :   6.0000
  | Found atomic mass :    12.0107000000000      amu
  | Found l_max for Hartree potential  :   4
  | Found cutoff potl. onset [A], width [A], scale factor :    3.50000    1.50000    1.00000
  | Threshold for basis-dependent cutoff potential is   0.100000E-03
  | Found data for basic radial integration grid :    34 points, outermost radius =    5.000 A
  | Found multiplier for basic radial grid :   1
  | Found angular grid specification: user-specified.
  | Specified grid contains     5 separate shells.
  | Check grid settings after all constraints further below.
  | Found free-atom valence shell :  2 s   2.000
  | Found free-atom valence shell :  2 p   2.000
  | No ionic wave fns used. Skipping ion_occ.
  | No ionic wave fns used. Skipping ion_occ.
  | Found hydrogenic basis function :  2 p   1.700
  | Found hydrogenic basis function :  3 d   6.000
  | Found hydrogenic basis function :  2 s   4.900
  Species C                   : Missing cutoff potential type.
  Defaulting to exp(1/x)/(1-x)^2 type cutoff potential.
  Species C : No 'logarithmic' tag. Using default grid for free atom:
  | Default logarithmic grid data [bohr] : 0.1000E-03 0.1000E+03 0.1012E+01
  Species C : On-site basis accuracy parameter (for Gram-Schmidt orthonormalisation) not specified.
  Using default value basis_acc =  0.1000000E-03.
  Species C                   : Using default innermost maximum threshold i_radial=  2 for radial functions.
  Species C                   : Default cutoff onset for free atom density etc. : 0.35000000E+01 AA.
  Species C                   : Basic radial grid will be enhanced according to radial_multiplier =   1, to contain    34 grid points.
 
  Reading configuration options for species N                   .
  | Found nuclear charge :   7.0000
  | Found atomic mass :    14.0067000000000      amu
  | Found l_max for Hartree potential  :   4
  | Found cutoff potl. onset [A], width [A], scale factor :    3.50000    1.50000    1.00000
  | Threshold for basis-dependent cutoff potential is   0.100000E-03
  | Found data for basic radial integration grid :    35 points, outermost radius =    5.000 A
  | Found multiplier for basic radial grid :   1
  | Found angular grid specification: user-specified.
  | Specified grid contains     5 separate shells.
  | Check grid settings after all constraints further below.
  | Found free-atom valence shell :  2 s   2.000
  | Found free-atom valence shell :  2 p   3.000
  | No ionic wave fns used. Skipping ion_occ.
  | No ionic wave fns used. Skipping ion_occ.
  | Found hydrogenic basis function :  2 p   1.800
  | Found hydrogenic basis function :  3 d   6.800
  | Found hydrogenic basis function :  3 s   5.800
  Species N                   : Missing cutoff potential type.
  Defaulting to exp(1/x)/(1-x)^2 type cutoff potential.
  Species N : No 'logarithmic' tag. Using default grid for free atom:
  | Default logarithmic grid data [bohr] : 0.1000E-03 0.1000E+03 0.1012E+01
  Species N : On-site basis accuracy parameter (for Gram-Schmidt orthonormalisation) not specified.
  Using default value basis_acc =  0.1000000E-03.
  Species N                   : Using default innermost maximum threshold i_radial=  2 for radial functions.
  Species N                   : Default cutoff onset for free atom density etc. : 0.35000000E+01 AA.
  Species N                   : Basic radial grid will be enhanced according to radial_multiplier =   1, to contain    35 grid points.
 
  Reading configuration options for species O                   .
  | Found nuclear charge :   8.0000
  | Found atomic mass :    15.9994000000000      amu
  | Found l_max for Hartree potential  :   4
  | Found cutoff potl. onset [A], width [A], scale factor :    3.50000    1.50000    1.00000
  | Threshold for basis-dependent cutoff potential is   0.100000E-03
  | Found data for basic radial integration grid :    36 points, outermost radius =    5.000 A
  | Found multiplier for basic radial grid :   1
  | Found angular grid specification: user-specified.
  | Specified grid contains     5 separate shells.
  | Check grid settings after all constraints further below.
  | Found free-atom valence shell :  2 s   2.000
  | Found free-atom valence shell :  2 p   4.000
  | No ionic wave fns used. Skipping ion_occ.
  | No ionic wave fns used. Skipping ion_occ.
  | Found hydrogenic basis function :  2 p   1.800
  | Found hydrogenic basis function :  3 d   7.600
  | Found hydrogenic basis function :  3 s   6.400
  Species O                   : Missing cutoff potential type.
  Defaulting to exp(1/x)/(1-x)^2 type cutoff potential.
  Species O : No 'logarithmic' tag. Using default grid for free atom:
  | Default logarithmic grid data [bohr] : 0.1000E-03 0.1000E+03 0.1012E+01
  Species O : On-site basis accuracy parameter (for Gram-Schmidt orthonormalisation) not specified.
  Using default value basis_acc =  0.1000000E-03.
  Species O                   : Using default innermost maximum threshold i_radial=  2 for radial functions.
  Species O                   : Default cutoff onset for free atom density etc. : 0.35000000E+01 AA.
  Species O                   : Basic radial grid will be enhanced according to radial_multiplier =   1, to contain    36 grid points.
 
  Finished reading input file 'control.in'. Consistency checks are next.
 
  MPI_IN_PLACE appears to work with this MPI implementation.
  | Keeping use_mpi_in_place .true. (see manual).
  Target number of points in a grid batch is not set. Defaulting to  100
  Method for grid partitioning is not set. Defaulting to parallel hash+maxmin partitioning.
  Batch size limit is not set. Defaulting to    200
  By default, will store active basis functions for each batch.
  If in need of memory, prune_basis_once .false. can be used to disable this option.
  communication_type for Hartree potential was not specified.
  Defaulting to calc_hartree .
  Pulay mixer: Number of initial linear mixing iterations not set.
  Defaulting to    0 iterations.
  Work space size for distributed Hartree potential not set.
  Defaulting to   0.200000E+03 MB.
  Algorithm-dependent basis array size parameters:
  | n_max_pulay                         :       10
  Presetting      1001 iterations before the initial mixing cycle
  is restarted anyway using the sc_init_iter criterion / keyword.
  Presetting a factor      1.000 between actual scf density residual
  and density convergence criterion sc_accuracy_rho below which sc_init_iter
  takes no effect.
  Geometry relaxation not requested: no relaxation will be performed.
  Handling of forces: Unphysical translation and rotation will be removed from forces.
  No accuracy limit for integral partition fn. given. Defaulting to  0.1000E-14.
  No threshold value for u(r) in integrations given. Defaulting to  0.1000E-05.
  No accuracy for occupation numbers given. Defaulting to  0.1000E-12.
  No threshold value for occupation numbers given. Defaulting to  0.0000E+00.
  No accuracy for fermi level given. Defaulting to  0.1000E-19.
  Maximum # of iterations to find E_F not set. Defaulting to  200.
  Preferred method for the eigenvalue solver ('KS_method') not specified in 'control.in'.
  Defaulting to serial version, 'lapack_fast'.
  Will not use alltoall communication since running on < 1024 CPUs.
  Threshold for basis singularities not set.
  Default threshold for basis singularities:  0.1000E-04
  partition_type (choice of integration weights) for integrals was not specified.
  | Using a version of the partition function of Stratmann and coworkers ('stratmann_smoother').
  | At each grid point, the set of atoms used to build the partition table is smoothly restricted to
  | only those atoms whose free-atom density would be non-zero at that grid point.
  Partitioning for Hartree potential was not defined. Using partition_type for integrals.
  | Adjusted default value of keyword multip_moments_threshold to:       0.10000000E-11
  | This value may affect high angular momentum components of the Hartree potential in periodic systems.
  No q(lm)/r^(l+1) cutoff set for long-range Hartree potential.
  | Using default value of  0.100000E-09 .
  | Verify using the multipole_threshold keyword.
  Defaulting to new monopole extrapolation.
  Density update method: automatic selection selected.
------------------------------------------------------------


------------------------------------------------------------
          Reading geometry description geometry.in.
------------------------------------------------------------
  Input structure read successfully.
  The structure contains       13 atoms,  and a total of         48.000 electrons.

  Input geometry:
  | No unit cell requested.
  | Atomic structure:
  |       Atom                x [A]            y [A]            z [A]
  |    1: Species C             0.00000000        0.00000000        0.00000000
  |    2: Species H             1.09300000        0.00000000        0.00000000
  |    3: Species N            -0.47961000        0.00000000       -1.41207000
  |    4: Species H            -0.28429000        0.91330000       -1.82384000
  |    5: Species H             0.01216000       -0.72932000       -1.92430000
  |    6: Species C            -0.49584000        1.26211000        0.72868000
  |    7: Species H            -1.58789000        1.28919000        0.74431000
  |    8: Species H            -0.13407000        1.27425000        1.75947000
  |    9: Species H            -0.13407000        2.16087000        0.22380000
  |   10: Species C            -0.39425000       -1.28861000        0.74398000
  |   11: Species O            -0.10189000       -1.56493000        1.88303000
  |   12: Species O            -1.10210000       -2.13717000        0.06896000
  |   13: Species H            -0.53923000       -2.19432000       -0.72154000
  |

  | The smallest distance between any two atoms is         0.97210031 AA.
  |
  | The first atom of this pair is atom number                     12 .
  | The second atom of this pair is atom number                    13 .

  Number of empty states per atom not set in control.in - providing a guess from actual geometry.
  | Total number of empty states used during s.c.f. cycle:       29
  If you use a very high smearing, use empty_states (per atom!) in control.in to increase this value.

  Structure-dependent array size parameters: 
  | Maximum number of distinct radial functions  :       21
  | Maximum number of basis functions            :      119
  | Number of Kohn-Sham states (occupied + empty):       53
------------------------------------------------------------

------------------------------------------------------------
          Preparing all fixed parts of the calculation.
------------------------------------------------------------
  Determining machine precision:
    2.225073858507201E-308
  Setting up grids for atomic and cluster calculations.

  Creating wave function, potential, and density for free atoms.

  Species: H

  List of occupied orbitals and eigenvalues:
    n    l              occ      energy [Ha]    energy [eV]
    1    0           1.0000        -0.237589        -6.4651


  Species: C

  List of occupied orbitals and eigenvalues:
    n    l              occ      energy [Ha]    energy [eV]
    1    0           2.0000       -10.038835      -273.1706
    2    0           2.0000        -0.502696       -13.6791
    2    1           2.0000        -0.191971        -5.2238


  Species: N

  List of occupied orbitals and eigenvalues:
    n    l              occ      energy [Ha]    energy [eV]
    1    0           2.0000       -14.128000      -384.4424
    2    0           2.0000        -0.681077       -18.5330
    2    1           3.0000        -0.259788        -7.0692


  Species: O

  List of occupied orbitals and eigenvalues:
    n    l              occ      energy [Ha]    energy [eV]
    1    0           2.0000       -18.898188      -514.2459
    2    0           2.0000        -0.878505       -23.9053
    2    1           4.0000        -0.331779        -9.0282

  Creating fixed part of basis set: Ionic, confined, hydrogenic.
 
  H                    hydrogenic:
 
  List of hydrogenic basis orbitals: 
    n    l      effective z      eigenvalue [eV]  inner max. [A]     outer max. [A]     outer radius [A]   
    2    0         2.100000       -14.9728           0.193243           1.317208           4.583499
    2    1         3.500000       -41.6669           0.602369           0.602369           3.723403
 
 
  C                    hydrogenic:
 
  List of hydrogenic basis orbitals: 
    n    l      effective z      eigenvalue [eV]  inner max. [A]     outer max. [A]     outer radius [A]   
    2    1         1.700000        -9.7616           1.230570           1.230570           4.607917
    3    2         6.000000       -54.4224           0.792453           0.792453           3.883070
    2    0         4.900000       -81.6679           0.082559           0.562749           3.078220
 
 
  N                    hydrogenic:
 
  List of hydrogenic basis orbitals: 
    n    l      effective z      eigenvalue [eV]  inner max. [A]     outer max. [A]     outer radius [A]   
    2    1         1.800000       -10.9749           1.177451           1.177451           4.573712
    3    2         6.800000       -69.9026           0.704619           0.704619           3.538137
    3    0         5.800000       -50.8545           0.067388           1.191934           4.250239
 
 
  O                    hydrogenic:
 
  List of hydrogenic basis orbitals: 
    n    l      effective z      eigenvalue [eV]  inner max. [A]     outer max. [A]     outer radius [A]   
    2    1         1.800000       -10.9749           1.164242           1.164242           4.578029
    3    2         7.600000       -87.3180           0.624125           0.624125           3.251020
    3    0         6.400000       -61.9207           0.061167           1.081902           4.001998
 

  Adding cutoff potential to free-atom effective potential.
  Creating atomic-like basis functions for current effective potential.

  Species H                   :

  List of atomic basis orbitals and eigenvalues:
    n    l      energy [Ha]    energy [eV]    outer radius [A]
    1    0        -0.237589        -6.4651       4.527807


  Species C                   :

  List of atomic basis orbitals and eigenvalues:
    n    l      energy [Ha]    energy [eV]    outer radius [A]
    1    0       -10.038835      -273.1706       1.934409
    2    0        -0.502696       -13.6791       4.496620
    2    1        -0.191971        -5.2238       4.551928


  Species N                   :

  List of atomic basis orbitals and eigenvalues:
    n    l      energy [Ha]    energy [eV]    outer radius [A]
    1    0       -14.128000      -384.4424       1.637919
    2    0        -0.681077       -18.5330       4.463241
    2    1        -0.259788        -7.0692       4.518138


  Species O                   :

  List of atomic basis orbitals and eigenvalues:
    n    l      energy [Ha]    energy [eV]    outer radius [A]
    1    0       -18.898188      -514.2459       1.415765
    2    0        -0.878505       -23.9053       4.413171
    2    1        -0.331779        -9.0282       4.522403

  Assembling full basis from fixed parts.
  | Species H :   atomic orbital   1 s accepted.
  | Species H :    hydro orbital   2 s accepted.
  | Species H :    hydro orbital   2 p accepted.
  | Species C :   atomic orbital   1 s accepted.
  | Species C :    hydro orbital   2 s accepted.
  | Species C :   atomic orbital   2 s accepted.
  | Species C :   atomic orbital   2 p accepted.
  | Species C :    hydro orbital   2 p accepted.
  | Species C :    hydro orbital   3 d accepted.
  | Species N :   atomic orbital   1 s accepted.
  | Species N :    hydro orbital   3 s accepted.
  | Species N :   atomic orbital   2 s accepted.
  | Species N :   atomic orbital   2 p accepted.
  | Species N :    hydro orbital   2 p accepted.
  | Species N :    hydro orbital   3 d accepted.
  | Species O :   atomic orbital   1 s accepted.
  | Species O :    hydro orbital   3 s accepted.
  | Species O :   atomic orbital   2 s accepted.
  | Species O :   atomic orbital   2 p accepted.
  | Species O :    hydro orbital   2 p accepted.
  | Species O :    hydro orbital   3 d accepted.
 
  Basis size parameters after reduction:
  | Total number of radial functions:       21
  | Total number of basis functions :      119
 
  Per-task memory consumption for arrays in subroutine allocate_ext:
  |           5.250512MB.
  Testing on-site integration grid accuracy.
  |  Species  Function  <phi|h_atom|phi> (log., in eV)  <phi|h_atom|phi> (rad., in eV)
           1        1                 -6.4663192853                 -6.4651273558
           1        2                 13.7111246313                 13.7170609718
           1        3                 25.2673269279                 25.2674696378
           2        4               -273.1705927641               -273.1705631568
           2        5                -10.7109323383                -10.7107120029
           2        6                 17.4381822266                 17.4352413244
           2        7                 -5.2255326521                 -5.2270484734
           2        8                  8.6835629259                  8.6603288385
           2        9                 27.4952418996                 27.4953360207
           3       10               -384.4424306495               -384.4423701208
           3       11                 12.5842251816                 12.5842222903
           3       12                -15.7264628251                -15.7264433455
           3       13                 -7.0696854293                 -7.0701769954
           3       14                  8.8090390882                  8.7901077751
           3       15                 35.9586762123                 35.9588528632
           4       16               -514.2458688638               -514.2457643834
           4       17                 15.1795651126                 15.1795290741
           4       18                -21.5359799773                -21.5360846186
           4       19                 -9.0283069236                 -9.0284644067
           4       20                  8.3027758564                  8.2834874195
           4       21                 45.8339351984                 45.8338762259

  Preparing densities etc. for the partition functions (integrals / Hartree potential).

  Preparations completed.
  max(cpu_time)          :      0.146 s.
  Wall clock time (cpu1) :      0.148 s.
------------------------------------------------------------

------------------------------------------------------------
          Begin self-consistency loop: Initialization.

          Date     :  20200801, Time     :  171954.069
------------------------------------------------------------

  Initializing index lists of integration centers etc. from given atomic structure:
  | Number of centers in hartree potential         :        13
  | Number of centers in hartree multipole         :        13
  | Number of centers in electron density summation:        13
  | Number of centers in basis integrals           :        13
  | Number of centers in integrals                 :        13
  | Number of centers in hamiltonian               :        13
  Partitioning the integration grid into batches with parallel hashing+maxmin method.
  | Number of batches:      955
  | Maximal batch size:     138
  | Minimal batch size:      66
  | Average batch size:      72.928
  | Standard deviation of batch sizes:      17.663

  Integration load balanced across     1 MPI tasks.
  Work distribution over tasks is as follows:
  Task     0 has      69646 integration points.
  Initializing partition tables, free-atom densities, potentials, etc. across the integration grid (initialize_grid_storage).
  | initialize_grid_storage: Actual outermost partition radius vs. multipole_radius_free
  | (-- VB: in principle, multipole_radius_free should be larger, hence this output)
  | Species        1: Confinement radius =              4.999999999999999 AA, multipole_radius_free =              5.054417573612229 AA.
  | Species        1: outer_partition_radius set to              5.054417573612229 AA .
  | Species        2: Confinement radius =              4.999999999999999 AA, multipole_radius_free =              5.019602836301480 AA.
  | Species        2: outer_partition_radius set to              5.019602836301480 AA .
  | Species        3: Confinement radius =              4.999999999999999 AA, multipole_radius_free =              5.043624274424571 AA.
  | Species        3: outer_partition_radius set to              5.043624274424571 AA .
  | Species        4: Confinement radius =              4.999999999999999 AA, multipole_radius_free =              5.048384829883283 AA.
  | Species        4: outer_partition_radius set to              5.048384829883283 AA .
  | Original list of interatomic distances with          13 x         13 entries is created.
  | Net number of integration points:    69646
  | of which are non-zero points    :    59460
  Renormalizing the initial density to the exact electron count on the 3D integration grid.
  | Initial density: Formal number of electrons (from input files) :      48.0000000000
  | Integrated number of electrons on 3D grid     :      48.0000284605
  | Charge integration error                      :       0.0000284605
  | Normalization factor for density and gradient :       0.9999994071
  Obtaining max. number of non-zero basis functions in each batch (get_n_compute_maxes).
  | Maximal number of non-zero basis functions:      119 in task     0
  Selecting the method for density update.
  Loop over occupied states selected for charge density update.
  Allocating        0.050 MB for KS_eigenvector
  Integrating Hamiltonian matrix: batch-based integration.
  Time summed over all CPUs for integration: real work        0.499 s, elapsed        0.499 s
  Integrating overlap matrix.
  Time summed over all CPUs for integration: real work        0.215 s, elapsed        0.215 s

  Updating Kohn-Sham eigenvalues and eigenvectors using ELSI and the ELPA eigensolver.
  Overlap matrix is nonsingular
  | Lowest eigenvalue of overlap  :  0.45E-02
  | Highest eigenvalue of overlap :  0.62E+01
  Finished singularity check of overlap matrix
  | Time :     0.002 s
  Finished Cholesky decomposition
  | Time :     0.000 s
  Finished transformation to standard eigenproblem
  | Time :     0.000 s
  Starting LAPACK eigensolver
  Finished solving standard eigenproblem
  | Time :     0.002 s
  Finished back-transformation of eigenvectors
  | Time :     0.000 s

  Obtaining occupation numbers and chemical potential using ELSI.
  | Chemical potential (Fermi level):    -9.35090736eV
  Writing Kohn-Sham eigenvalues.

  State    Occupation    Eigenvalue [Ha]    Eigenvalue [eV]
      1       2.00000         -19.007584         -517.22267
      2       2.00000         -18.977157         -516.39471
      3       2.00000         -14.246255         -387.66032
      4       2.00000         -10.166723         -276.65062
      5       2.00000         -10.141590         -275.96671
      6       2.00000         -10.131943         -275.70419
      7       2.00000          -1.181929          -32.16192
      8       2.00000          -1.099838          -29.92812
      9       2.00000          -0.991802          -26.98832
     10       2.00000          -0.860826          -23.42426
     11       2.00000          -0.753942          -20.51579
     12       2.00000          -0.680875          -18.52754
     13       2.00000          -0.633915          -17.24971
     14       2.00000          -0.598515          -16.28642
     15       2.00000          -0.591081          -16.08412
     16       2.00000          -0.569713          -15.50267
     17       2.00000          -0.557405          -15.16776
     18       2.00000          -0.521271          -14.18451
     19       2.00000          -0.513255          -13.96637
     20       2.00000          -0.510180          -13.88270
     21       2.00000          -0.466100          -12.68321
     22       2.00000          -0.426060          -11.59369
     23       2.00000          -0.407996          -11.10213
     24       2.00000          -0.383475          -10.43490
     25       0.00000          -0.156686           -4.26364
     26       0.00000          -0.075906           -2.06550
     27       0.00000          -0.027645           -0.75225
     28       0.00000          -0.021511           -0.58533
     29       0.00000           0.001576            0.04288
     30       0.00000           0.011113            0.30240
     31       0.00000           0.017261            0.46971
     32       0.00000           0.038792            1.05559
     33       0.00000           0.048170            1.31078
     34       0.00000           0.073392            1.99710
     35       0.00000           0.078891            2.14674
     36       0.00000           0.131716            3.58416
     37       0.00000           0.168956            4.59752
     38       0.00000           0.202671            5.51495
     39       0.00000           0.214668            5.84142
     40       0.00000           0.223167            6.07268
     41       0.00000           0.237351            6.45865
     42       0.00000           0.266531            7.25266
     43       0.00000           0.284595            7.74422
     44       0.00000           0.297238            8.08825
     45       0.00000           0.346485            9.42835
     46       0.00000           0.351715            9.57065
     47       0.00000           0.370721           10.08784
     48       0.00000           0.417947           11.37291
     49       0.00000           0.454125           12.35736
     50       0.00000           0.469787           12.78356
     51       0.00000           0.490649           13.35124
     52       0.00000           0.530557           14.43718
     53       0.00000           0.574259           15.62639

  Highest occupied state (VBM) at    -10.43489676 eV
  | Occupation number:      2.00000000

  Lowest unoccupied state (CBM) at    -4.26363514 eV
  | Occupation number:      0.00000000

  Overall HOMO-LUMO gap:      6.17126162 eV.
  Calculating total energy contributions from superposition of free atom densities.

  Total energy components:
  | Sum of eigenvalues            :        -188.83885487 Ha       -5138.56668846 eV
  | XC energy correction          :         -41.79250704 Ha       -1137.23197816 eV
  | XC potential correction       :          53.72534102 Ha        1461.94091177 eV
  | Free-atom electrostatic energy:        -146.85124852 Ha       -3996.02578772 eV
  | Hartree energy correction     :           0.00000000 Ha           0.00000000 eV
  | vdW energy correction         :           0.00000000 Ha           0.00000000 eV
  | Entropy correction            :           0.00000000 Ha           0.00000000 eV
  | ---------------------------
  | Total energy                  :        -323.75726941 Ha       -8809.88354257 eV
  | Total energy, T -> 0          :        -323.75726941 Ha       -8809.88354257 eV  <-- do not rely on this value for anything but (periodic) metals
  | Electronic free energy        :        -323.75726941 Ha       -8809.88354257 eV

  Derived energy quantities:
  | Kinetic energy                :         320.50558969 Ha        8721.40083556 eV
  | Electrostatic energy          :        -602.47035207 Ha      -16394.05239997 eV
  | Energy correction for multipole
  | error in Hartree potential    :           0.00000000 Ha           0.00000000 eV
  | Sum of eigenvalues per atom                           :        -395.27436065 eV
  | Total energy (T->0) per atom                          :        -677.68334943 eV  <-- do not rely on this value for anything but (periodic) metals
  | Electronic free energy per atom                       :        -677.68334943 eV
  Initialize hartree_potential_storage
  Max. number of atoms included in rho_multipole:           13

  End scf initialization - timings             :  max(cpu_time)    wall_clock(cpu1)
  | Time for scf. initialization               :        1.163 s           1.166 s
  | Boundary condition initialization          :        0.000 s           0.000 s
  | Integration                                :        0.713 s           0.715 s
  | Solution of K.-S. eqns.                    :        0.004 s           0.005 s
  | Grid partitioning                          :        0.111 s           0.112 s
  | Preloading free-atom quantities on grid    :        0.002 s           0.002 s
  | Free-atom superposition energy             :        0.085 s           0.086 s
  | Total energy evaluation                    :        0.000 s           0.000 s

  Partial memory accounting:
  | Current value for overall tracked memory usage on task 0  :           0.165 MB
  | Peak value for overall tracked memory usage on task 0     :           0.676 MB after allocating wave
  | Largest tracked array allocation on task 0 so far         :           0.131 MB  when allocating H_times_psi
  Note:  These values currently only include a subset of arrays which are explicitly tracked.
  The "true" memory usage will be greater.
------------------------------------------------------------

------------------------------------------------------------
          Begin self-consistency iteration #    1

  Date     :  20200801, Time     :  171955.235
------------------------------------------------------------
  Evaluating new KS density.
  Integration grid: deviation in total charge (<rho> - N_e) =   3.552714E-14
  Pulay mixing of updated and previous charge densities.

  Evaluating partitioned Hartree potential by multipole expansion.
  | Analytical far-field extrapolation by fixed multipoles:
  | Hartree multipole sum: apparent total charge =  -0.765211E-04
  Summing up the Hartree potential.
  Time summed over all CPUs for potential: real work        0.279 s, elapsed        0.279 s
  | RMS charge density error from multipole expansion :   0.584762E-02

  Integrating Hamiltonian matrix: batch-based integration.
  Time summed over all CPUs for integration: real work        0.491 s, elapsed        0.491 s

  Updating Kohn-Sham eigenvalues and eigenvectors using ELSI and the ELPA eigensolver.
  Finished Cholesky decomposition
  | Time :     0.000 s
  Finished transformation to standard eigenproblem
  | Time :     0.000 s
  Starting LAPACK eigensolver
  Finished solving standard eigenproblem
  | Time :     0.002 s
  Finished back-transformation of eigenvectors
  | Time :     0.000 s

  Obtaining occupation numbers and chemical potential using ELSI.
  | Chemical potential (Fermi level):    -8.30120770eV
  Writing Kohn-Sham eigenvalues.

  State    Occupation    Eigenvalue [Ha]    Eigenvalue [eV]
      1       2.00000         -18.898993         -514.26777
      2       2.00000         -18.834216         -512.50509
      3       2.00000         -14.103177         -383.76697
      4       2.00000         -10.114749         -275.23632
      5       2.00000         -10.066037         -273.91082
      6       2.00000         -10.032602         -273.00099
      7       2.00000          -1.130475          -30.76179
      8       2.00000          -1.034468          -28.14929
      9       2.00000          -0.927004          -25.22507
     10       2.00000          -0.796824          -21.68267
     11       2.00000          -0.702527          -19.11673
     12       2.00000          -0.635791          -17.30076
     13       2.00000          -0.578878          -15.75208
     14       2.00000          -0.544268          -14.81029
     15       2.00000          -0.531880          -14.47320
     16       2.00000          -0.518296          -14.10356
     17       2.00000          -0.489650          -13.32406
     18       2.00000          -0.463495          -12.61234
     19       2.00000          -0.451571          -12.28788
     20       2.00000          -0.448517          -12.20477
     21       2.00000          -0.406629          -11.06494
     22       2.00000          -0.365537           -9.94676
     23       2.00000          -0.334794           -9.11022
     24       2.00000          -0.314889           -8.56857
     25       0.00000          -0.118693           -3.22980
     26       0.00000          -0.057930           -1.57636
     27       0.00000           0.001560            0.04246
     28       0.00000           0.016915            0.46028
     29       0.00000           0.035065            0.95417
     30       0.00000           0.040542            1.10321
     31       0.00000           0.057045            1.55226
     32       0.00000           0.071891            1.95624
     33       0.00000           0.085279            2.32056
     34       0.00000           0.112294            3.05568
     35       0.00000           0.115308            3.13768
     36       0.00000           0.160701            4.37290
     37       0.00000           0.195569            5.32170
     38       0.00000           0.232385            6.32351
     39       0.00000           0.245796            6.68845
     40       0.00000           0.258498            7.03408
     41       0.00000           0.274844            7.47888
     42       0.00000           0.298155            8.11321
     43       0.00000           0.320694            8.72652
     44       0.00000           0.333444            9.07348
     45       0.00000           0.384401           10.46010
     46       0.00000           0.392314           10.67541
     47       0.00000           0.411799           11.20561
     48       0.00000           0.451958           12.29840
     49       0.00000           0.489716           13.32584
     50       0.00000           0.506491           13.78233
     51       0.00000           0.524488           14.27204
     52       0.00000           0.562686           15.31146
     53       0.00000           0.609392           16.58239

  Highest occupied state (VBM) at     -8.56857157 eV
  | Occupation number:      2.00000000

  Lowest unoccupied state (CBM) at    -3.22980277 eV
  | Occupation number:      0.00000000

  Overall HOMO-LUMO gap:      5.33876880 eV.

  Total energy components:
  | Sum of eigenvalues            :        -185.45053707 Ha       -5046.36587003 eV
  | XC energy correction          :         -42.11966537 Ha       -1146.13440940 eV
  | XC potential correction       :          54.15078708 Ha        1473.51788816 eV
  | Free-atom electrostatic energy:        -146.85124852 Ha       -3996.02578772 eV
  | Hartree energy correction     :          -3.30350657 Ha         -89.89298758 eV
  | vdW energy correction         :           0.00000000 Ha           0.00000000 eV
  | Entropy correction            :          -0.00000000 Ha          -0.00000000 eV
  | ---------------------------
  | Total energy                  :        -323.57417046 Ha       -8804.90116656 eV
  | Total energy, T -> 0          :        -323.57417046 Ha       -8804.90116656 eV  <-- do not rely on this value for anything but (periodic) metals
  | Electronic free energy        :        -323.57417046 Ha       -8804.90116656 eV

  Derived energy quantities:
  | Kinetic energy                :         322.29208211 Ha        8770.01376763 eV
  | Electrostatic energy          :        -603.74658720 Ha      -16428.78052479 eV
  | Energy correction for multipole
  | error in Hartree potential    :           0.01163444 Ha           0.31658922 eV
  | Sum of eigenvalues per atom                           :        -388.18199000 eV
  | Total energy (T->0) per atom                          :        -677.30008974 eV  <-- do not rely on this value for anything but (periodic) metals
  | Electronic free energy per atom                       :        -677.30008974 eV

  Self-consistency convergence accuracy:
  | Change of charge density      :  0.5851E+00
  | Change of sum of eigenvalues  :  0.9220E+02 eV
  | Change of total energy        :  0.4982E+01 eV

  End self-consistency iteration #     1       :  max(cpu_time)    wall_clock(cpu1)
  | Time for this iteration                    :        1.181 s           1.188 s
  | Charge density update                      :        0.393 s           0.399 s
  | Density mixing                             :        0.005 s           0.006 s
  | Hartree multipole update                   :        0.009 s           0.008 s
  | Hartree multipole summation                :        0.280 s           0.281 s
  | Integration                                :        0.491 s           0.492 s
  | Solution of K.-S. eqns.                    :        0.002 s           0.002 s
  | Total energy evaluation                    :        0.000 s           0.000 s

  Partial memory accounting:
  | Current value for overall tracked memory usage on task 0  :           0.165 MB
  | Peak value for overall tracked memory usage on task 0     :           0.691 MB after allocating gradient_basis_wave
  | Largest tracked array allocation on task 0 so far         :           0.394 MB  when allocating gradient_basis_wave
  Note:  These values currently only include a subset of arrays which are explicitly tracked.
  The "true" memory usage will be greater.
------------------------------------------------------------

------------------------------------------------------------
          Begin self-consistency iteration #    2

  Date     :  20200801, Time     :  171956.424
------------------------------------------------------------
  Evaluating new KS density.
  Integration grid: deviation in total charge (<rho> - N_e) =   1.421085E-14
  Pulay mixing of updated and previous charge densities.

  Evaluating partitioned Hartree potential by multipole expansion.
  | Analytical far-field extrapolation by fixed multipoles:
  | Hartree multipole sum: apparent total charge =  -0.208665E-03
  Summing up the Hartree potential.
  Time summed over all CPUs for potential: real work        0.283 s, elapsed        0.283 s
  | RMS charge density error from multipole expansion :   0.138240E-01

  Integrating Hamiltonian matrix: batch-based integration.
  Time summed over all CPUs for integration: real work        0.495 s, elapsed        0.495 s

  Updating Kohn-Sham eigenvalues and eigenvectors using ELSI and the ELPA eigensolver.
  Finished Cholesky decomposition
  | Time :     0.000 s
  Finished transformation to standard eigenproblem
  | Time :     0.000 s
  Starting LAPACK eigensolver
  Finished solving standard eigenproblem
  | Time :     0.001 s
  Finished back-transformation of eigenvectors
  | Time :     0.000 s

  Obtaining occupation numbers and chemical potential using ELSI.
  | Chemical potential (Fermi level):    -2.90333700eV
  Highest occupied state (VBM) at     -6.70943841 eV
  | Occupation number:      2.00000000

  Lowest unoccupied state (CBM) at    -1.93689787 eV
  | Occupation number:      0.00000000

  Overall HOMO-LUMO gap:      4.77254054 eV.

  Checking to see if s.c.f. parameters should be adjusted.

  Total energy components:
  | Sum of eigenvalues            :        -181.94093047 Ha       -4950.86461532 eV
  | XC energy correction          :         -42.47193968 Ha       -1155.72028112 eV
  | XC potential correction       :          54.60726468 Ha        1485.93927568 eV
  | Free-atom electrostatic energy:        -146.85124852 Ha       -3996.02578772 eV
  | Hartree energy correction     :          -6.83912332 Ha        -186.10201441 eV
  | vdW energy correction         :           0.00000000 Ha           0.00000000 eV
  | Entropy correction            :           0.00000000 Ha           0.00000000 eV
  | ---------------------------
  | Total energy                  :        -323.49597731 Ha       -8802.77342289 eV
  | Total energy, T -> 0          :        -323.49597731 Ha       -8802.77342289 eV  <-- do not rely on this value for anything but (periodic) metals
  | Electronic free energy        :        -323.49597731 Ha       -8802.77342289 eV

  Derived energy quantities:
  | Kinetic energy                :         323.58148613 Ha        8805.10023630 eV
  | Electrostatic energy          :        -604.60552377 Ha      -16452.15337807 eV
  | Energy correction for multipole
  | error in Hartree potential    :           0.02538557 Ha           0.69077657 eV
  | Sum of eigenvalues per atom                           :        -380.83573964 eV
  | Total energy (T->0) per atom                          :        -677.13641715 eV  <-- do not rely on this value for anything but (periodic) metals
  | Electronic free energy per atom                       :        -677.13641715 eV

  Self-consistency convergence accuracy:
  | Change of charge density      :  0.3655E+00
  | Change of sum of eigenvalues  :  0.9550E+02 eV
  | Change of total energy        :  0.2128E+01 eV

  End self-consistency iteration #     2       :  max(cpu_time)    wall_clock(cpu1)
  | Time for this iteration                    :        1.184 s           1.186 s
  | Charge density update                      :        0.388 s           0.388 s
  | Density mixing                             :        0.007 s           0.007 s
  | Hartree multipole update                   :        0.009 s           0.009 s
  | Hartree multipole summation                :        0.283 s           0.284 s
  | Integration                                :        0.495 s           0.495 s
  | Solution of K.-S. eqns.                    :        0.002 s           0.002 s
  | Total energy evaluation                    :        0.000 s           0.001 s

  Partial memory accounting:
  | Current value for overall tracked memory usage on task 0  :           0.166 MB
  | Peak value for overall tracked memory usage on task 0     :           0.691 MB after allocating gradient_basis_wave
  | Largest tracked array allocation on task 0 so far         :           0.394 MB  when allocating gradient_basis_wave
  Note:  These values currently only include a subset of arrays which are explicitly tracked.
  The "true" memory usage will be greater.
------------------------------------------------------------

------------------------------------------------------------
          Begin self-consistency iteration #    3

  Date     :  20200801, Time     :  171957.611
------------------------------------------------------------
  Evaluating new KS density.
  Integration grid: deviation in total charge (<rho> - N_e) =   3.552714E-14
  Pulay mixing of updated and previous charge densities.

  Evaluating partitioned Hartree potential by multipole expansion.
  | Analytical far-field extrapolation by fixed multipoles:
  | Hartree multipole sum: apparent total charge =  -0.304166E-03
  Summing up the Hartree potential.
  Time summed over all CPUs for potential: real work        0.280 s, elapsed        0.280 s
  | RMS charge density error from multipole expansion :   0.219751E-01

  Integrating Hamiltonian matrix: batch-based integration.
  Time summed over all CPUs for integration: real work        0.490 s, elapsed        0.490 s

  Updating Kohn-Sham eigenvalues and eigenvectors using ELSI and the ELPA eigensolver.
  Finished Cholesky decomposition
  | Time :     0.000 s
  Finished transformation to standard eigenproblem
  | Time :     0.000 s
  Starting LAPACK eigensolver
  Finished solving standard eigenproblem
  | Time :     0.001 s
  Finished back-transformation of eigenvectors
  | Time :     0.000 s

  Obtaining occupation numbers and chemical potential using ELSI.
  | Chemical potential (Fermi level):    -2.21815777eV
  Highest occupied state (VBM) at     -6.04324860 eV
  | Occupation number:      2.00000000

  Lowest unoccupied state (CBM) at    -1.22441203 eV
  | Occupation number:      0.00000000

  Overall HOMO-LUMO gap:      4.81883657 eV.

  Total energy components:
  | Sum of eigenvalues            :        -180.61856728 Ha       -4914.88128213 eV
  | XC energy correction          :         -42.62601893 Ha       -1159.91299088 eV
  | XC potential correction       :          54.80355687 Ha        1491.28065792 eV
  | Free-atom electrostatic energy:        -146.85124852 Ha       -3996.02578772 eV
  | Hartree energy correction     :          -8.19032709 Ha        -222.87013957 eV
  | vdW energy correction         :           0.00000000 Ha           0.00000000 eV
  | Entropy correction            :           0.00000000 Ha           0.00000000 eV
  | ---------------------------
  | Total energy                  :        -323.48260495 Ha       -8802.40954236 eV
  | Total energy, T -> 0          :        -323.48260495 Ha       -8802.40954236 eV  <-- do not rely on this value for anything but (periodic) metals
  | Electronic free energy        :        -323.48260495 Ha       -8802.40954236 eV

  Derived energy quantities:
  | Kinetic energy                :         323.17830711 Ha        8794.12917692 eV
  | Electrostatic energy          :        -604.03489313 Ha      -16436.62572840 eV
  | Energy correction for multipole
  | error in Hartree potential    :           0.03600967 Ha           0.97987293 eV
  | Sum of eigenvalues per atom                           :        -378.06779093 eV
  | Total energy (T->0) per atom                          :        -677.10842634 eV  <-- do not rely on this value for anything but (periodic) metals
  | Electronic free energy per atom                       :        -677.10842634 eV

  Self-consistency convergence accuracy:
  | Change of charge density      :  0.2067E+00
  | Change of sum of eigenvalues  :  0.3598E+02 eV
  | Change of total energy        :  0.3639E+00 eV

  End self-consistency iteration #     3       :  max(cpu_time)    wall_clock(cpu1)
  | Time for this iteration                    :        1.174 s           1.176 s
  | Charge density update                      :        0.385 s           0.385 s
  | Density mixing                             :        0.008 s           0.009 s
  | Hartree multipole update                   :        0.009 s           0.008 s
  | Hartree multipole summation                :        0.280 s           0.280 s
  | Integration                                :        0.490 s           0.491 s
  | Solution of K.-S. eqns.                    :        0.002 s           0.002 s
  | Total energy evaluation                    :        0.000 s           0.000 s

  Partial memory accounting:
  | Current value for overall tracked memory usage on task 0  :           0.166 MB
  | Peak value for overall tracked memory usage on task 0     :           0.692 MB after allocating gradient_basis_wave
  | Largest tracked array allocation on task 0 so far         :           0.394 MB  when allocating gradient_basis_wave
  Note:  These values currently only include a subset of arrays which are explicitly tracked.
  The "true" memory usage will be greater.
------------------------------------------------------------

------------------------------------------------------------
          Begin self-consistency iteration #    4

  Date     :  20200801, Time     :  171958.789
------------------------------------------------------------
  Evaluating new KS density.
  Integration grid: deviation in total charge (<rho> - N_e) =  -4.263256E-14
  Pulay mixing of updated and previous charge densities.

  Evaluating partitioned Hartree potential by multipole expansion.
  | Analytical far-field extrapolation by fixed multipoles:
  | Hartree multipole sum: apparent total charge =  -0.334834E-03
  Summing up the Hartree potential.
  Time summed over all CPUs for potential: real work        0.284 s, elapsed        0.284 s
  | RMS charge density error from multipole expansion :   0.253461E-01

  Integrating Hamiltonian matrix: batch-based integration.
  Time summed over all CPUs for integration: real work        0.491 s, elapsed        0.491 s

  Updating Kohn-Sham eigenvalues and eigenvectors using ELSI and the ELPA eigensolver.
  Finished Cholesky decomposition
  | Time :     0.000 s
  Finished transformation to standard eigenproblem
  | Time :     0.000 s
  Starting LAPACK eigensolver
  Finished solving standard eigenproblem
  | Time :     0.002 s
  Finished back-transformation of eigenvectors
  | Time :     0.000 s

  Obtaining occupation numbers and chemical potential using ELSI.
  | Chemical potential (Fermi level):    -2.12505331eV
  Highest occupied state (VBM) at     -5.84900460 eV
  | Occupation number:      2.00000000

  Lowest unoccupied state (CBM) at    -1.13472804 eV
  | Occupation number:      0.00000000

  Overall HOMO-LUMO gap:      4.71427656 eV.

  Total energy components:
  | Sum of eigenvalues            :        -180.48791602 Ha       -4911.32608053 eV
  | XC energy correction          :         -42.66367743 Ha       -1160.93773069 eV
  | XC potential correction       :          54.85085951 Ha        1492.56782828 eV
  | Free-atom electrostatic energy:        -146.85124852 Ha       -3996.02578772 eV
  | Hartree energy correction     :          -8.32963084 Ha        -226.66078753 eV
  | vdW energy correction         :           0.00000000 Ha           0.00000000 eV
  | Entropy correction            :           0.00000000 Ha           0.00000000 eV
  | ---------------------------
  | Total energy                  :        -323.48161330 Ha       -8802.38255818 eV
  | Total energy, T -> 0          :        -323.48161330 Ha       -8802.38255818 eV  <-- do not rely on this value for anything but (periodic) metals
  | Electronic free energy        :        -323.48161330 Ha       -8802.38255818 eV

  Derived energy quantities:
  | Kinetic energy                :         322.80524243 Ha        8783.97757049 eV
  | Electrostatic energy          :        -603.62317831 Ha      -16425.42239799 eV
  | Energy correction for multipole
  | error in Hartree potential    :           0.03997811 Ha           1.08785979 eV
  | Sum of eigenvalues per atom                           :        -377.79431389 eV
  | Total energy (T->0) per atom                          :        -677.10635063 eV  <-- do not rely on this value for anything but (periodic) metals
  | Electronic free energy per atom                       :        -677.10635063 eV

  Self-consistency convergence accuracy:
  | Change of charge density      :  0.6554E-01
  | Change of sum of eigenvalues  :  0.3555E+01 eV
  | Change of total energy        :  0.2698E-01 eV

  End self-consistency iteration #     4       :  max(cpu_time)    wall_clock(cpu1)
  | Time for this iteration                    :        1.180 s           1.182 s
  | Charge density update                      :        0.385 s           0.385 s
  | Density mixing                             :        0.010 s           0.010 s
  | Hartree multipole update                   :        0.009 s           0.009 s
  | Hartree multipole summation                :        0.284 s           0.285 s
  | Integration                                :        0.490 s           0.490 s
  | Solution of K.-S. eqns.                    :        0.002 s           0.003 s
  | Total energy evaluation                    :        0.000 s           0.000 s

  Partial memory accounting:
  | Current value for overall tracked memory usage on task 0  :           0.166 MB
  | Peak value for overall tracked memory usage on task 0     :           0.692 MB after allocating gradient_basis_wave
  | Largest tracked array allocation on task 0 so far         :           0.394 MB  when allocating gradient_basis_wave
  Note:  These values currently only include a subset of arrays which are explicitly tracked.
  The "true" memory usage will be greater.
------------------------------------------------------------

------------------------------------------------------------
          Begin self-consistency iteration #    5

  Date     :  20200801, Time     :  171959.972
------------------------------------------------------------
  Evaluating new KS density.
  Integration grid: deviation in total charge (<rho> - N_e) =   4.263256E-14
  Pulay mixing of updated and previous charge densities.

  Evaluating partitioned Hartree potential by multipole expansion.
  | Analytical far-field extrapolation by fixed multipoles:
  | Hartree multipole sum: apparent total charge =  -0.328838E-03
  Summing up the Hartree potential.
  Time summed over all CPUs for potential: real work        0.280 s, elapsed        0.280 s
  | RMS charge density error from multipole expansion :   0.251033E-01

  Integrating Hamiltonian matrix: batch-based integration.
  Time summed over all CPUs for integration: real work        0.492 s, elapsed        0.492 s

  Updating Kohn-Sham eigenvalues and eigenvectors using ELSI and the ELPA eigensolver.
  Finished Cholesky decomposition
  | Time :     0.000 s
  Finished transformation to standard eigenproblem
  | Time :     0.000 s
  Starting LAPACK eigensolver
  Finished solving standard eigenproblem
  | Time :     0.002 s
  Finished back-transformation of eigenvectors
  | Time :     0.000 s

  Obtaining occupation numbers and chemical potential using ELSI.
  | Chemical potential (Fermi level):    -2.19577455eV
  Highest occupied state (VBM) at     -5.95220779 eV
  | Occupation number:      2.00000000

  Lowest unoccupied state (CBM) at    -1.22764339 eV
  | Occupation number:      0.00000000

  Overall HOMO-LUMO gap:      4.72456441 eV.

  Total energy components:
  | Sum of eigenvalues            :        -180.68567954 Ha       -4916.70749954 eV
  | XC energy correction          :         -42.63939212 Ha       -1160.27689382 eV
  | XC potential correction       :          54.81934575 Ha        1491.71029527 eV
  | Free-atom electrostatic energy:        -146.85124852 Ha       -3996.02578772 eV
  | Hartree energy correction     :          -8.12433506 Ha        -221.07440502 eV
  | vdW energy correction         :           0.00000000 Ha           0.00000000 eV
  | Entropy correction            :           0.00000000 Ha           0.00000000 eV
  | ---------------------------
  | Total energy                  :        -323.48130948 Ha       -8802.37429081 eV
  | Total energy, T -> 0          :        -323.48130948 Ha       -8802.37429081 eV  <-- do not rely on this value for anything but (periodic) metals
  | Electronic free energy        :        -323.48130948 Ha       -8802.37429081 eV

  Derived energy quantities:
  | Kinetic energy                :         322.69190815 Ha        8780.89358770 eV
  | Electrostatic energy          :        -603.53382551 Ha      -16422.99098470 eV
  | Energy correction for multipole
  | error in Hartree potential    :           0.03935508 Ha           1.07090620 eV
  | Sum of eigenvalues per atom                           :        -378.20826920 eV
  | Total energy (T->0) per atom                          :        -677.10571468 eV  <-- do not rely on this value for anything but (periodic) metals
  | Electronic free energy per atom                       :        -677.10571468 eV

  Self-consistency convergence accuracy:
  | Change of charge density      :  0.2132E-01
  | Change of sum of eigenvalues  : -0.5381E+01 eV
  | Change of total energy        :  0.8267E-02 eV

  End self-consistency iteration #     5       :  max(cpu_time)    wall_clock(cpu1)
  | Time for this iteration                    :        1.178 s           1.180 s
  | Charge density update                      :        0.384 s           0.384 s
  | Density mixing                             :        0.011 s           0.011 s
  | Hartree multipole update                   :        0.009 s           0.008 s
  | Hartree multipole summation                :        0.280 s           0.281 s
  | Integration                                :        0.492 s           0.492 s
  | Solution of K.-S. eqns.                    :        0.002 s           0.002 s
  | Total energy evaluation                    :        0.000 s           0.000 s

  Partial memory accounting:
  | Current value for overall tracked memory usage on task 0  :           0.166 MB
  | Peak value for overall tracked memory usage on task 0     :           0.692 MB after allocating gradient_basis_wave
  | Largest tracked array allocation on task 0 so far         :           0.394 MB  when allocating gradient_basis_wave
  Note:  These values currently only include a subset of arrays which are explicitly tracked.
  The "true" memory usage will be greater.
------------------------------------------------------------

------------------------------------------------------------
          Begin self-consistency iteration #    6

  Date     :  20200801, Time     :  172001.154
------------------------------------------------------------
  Evaluating new KS density.
  Integration grid: deviation in total charge (<rho> - N_e) =   5.684342E-14
  Pulay mixing of updated and previous charge densities.

  Evaluating partitioned Hartree potential by multipole expansion.
  | Analytical far-field extrapolation by fixed multipoles:
  | Hartree multipole sum: apparent total charge =  -0.332011E-03
  Summing up the Hartree potential.
  Time summed over all CPUs for potential: real work        0.283 s, elapsed        0.283 s
  | RMS charge density error from multipole expansion :   0.255117E-01

  Integrating Hamiltonian matrix: batch-based integration.
  Time summed over all CPUs for integration: real work        0.494 s, elapsed        0.494 s

  Updating Kohn-Sham eigenvalues and eigenvectors using ELSI and the ELPA eigensolver.
  Finished Cholesky decomposition
  | Time :     0.000 s
  Finished transformation to standard eigenproblem
  | Time :     0.000 s
  Starting LAPACK eigensolver
  Finished solving standard eigenproblem
  | Time :     0.001 s
  Finished back-transformation of eigenvectors
  | Time :     0.000 s

  Obtaining occupation numbers and chemical potential using ELSI.
  | Chemical potential (Fermi level):    -2.19941282eV
  Highest occupied state (VBM) at     -5.92939701 eV
  | Occupation number:      2.00000000

  Lowest unoccupied state (CBM) at    -1.24148637 eV
  | Occupation number:      0.00000000

  Overall HOMO-LUMO gap:      4.68791064 eV.

  Total energy components:
  | Sum of eigenvalues            :        -180.68945068 Ha       -4916.81011760 eV
  | XC energy correction          :         -42.63842870 Ha       -1160.25067771 eV
  | XC potential correction       :          54.81805614 Ha        1491.67520318 eV
  | Free-atom electrostatic energy:        -146.85124852 Ha       -3996.02578772 eV
  | Hartree energy correction     :          -8.12018574 Ha        -220.96149633 eV
  | vdW energy correction         :           0.00000000 Ha           0.00000000 eV
  | Entropy correction            :           0.00000000 Ha           0.00000000 eV
  | ---------------------------
  | Total energy                  :        -323.48125749 Ha       -8802.37287617 eV
  | Total energy, T -> 0          :        -323.48125749 Ha       -8802.37287617 eV  <-- do not rely on this value for anything but (periodic) metals
  | Electronic free energy        :        -323.48125749 Ha       -8802.37287617 eV

  Derived energy quantities:
  | Kinetic energy                :         322.61717175 Ha        8778.85990687 eV
  | Electrostatic energy          :        -603.46000055 Ha      -16420.98210533 eV
  | Energy correction for multipole
  | error in Hartree potential    :           0.03969163 Ha           1.08006413 eV
  | Sum of eigenvalues per atom                           :        -378.21616289 eV
  | Total energy (T->0) per atom                          :        -677.10560586 eV  <-- do not rely on this value for anything but (periodic) metals
  | Electronic free energy per atom                       :        -677.10560586 eV

  Self-consistency convergence accuracy:
  | Change of charge density      :  0.1069E-01
  | Change of sum of eigenvalues  : -0.1026E+00 eV
  | Change of total energy        :  0.1415E-02 eV

  End self-consistency iteration #     6       :  max(cpu_time)    wall_clock(cpu1)
  | Time for this iteration                    :        1.189 s           1.191 s
  | Charge density update                      :        0.388 s           0.389 s
  | Density mixing                             :        0.012 s           0.013 s
  | Hartree multipole update                   :        0.009 s           0.009 s
  | Hartree multipole summation                :        0.283 s           0.283 s
  | Integration                                :        0.494 s           0.495 s
  | Solution of K.-S. eqns.                    :        0.002 s           0.002 s
  | Total energy evaluation                    :        0.000 s           0.000 s

  Partial memory accounting:
  | Current value for overall tracked memory usage on task 0  :           0.166 MB
  | Peak value for overall tracked memory usage on task 0     :           0.692 MB after allocating gradient_basis_wave
  | Largest tracked array allocation on task 0 so far         :           0.394 MB  when allocating gradient_basis_wave
  Note:  These values currently only include a subset of arrays which are explicitly tracked.
  The "true" memory usage will be greater.
------------------------------------------------------------

------------------------------------------------------------
          Begin self-consistency iteration #    7

  Date     :  20200801, Time     :  172002.347
------------------------------------------------------------
  Evaluating new KS density.
  Integration grid: deviation in total charge (<rho> - N_e) =   2.131628E-14
  Pulay mixing of updated and previous charge densities.

  Evaluating partitioned Hartree potential by multipole expansion.
  | Analytical far-field extrapolation by fixed multipoles:
  | Hartree multipole sum: apparent total charge =  -0.332914E-03
  Summing up the Hartree potential.
  Time summed over all CPUs for potential: real work        0.280 s, elapsed        0.280 s
  | RMS charge density error from multipole expansion :   0.256335E-01

  Integrating Hamiltonian matrix: batch-based integration.
  Time summed over all CPUs for integration: real work        0.492 s, elapsed        0.492 s

  Updating Kohn-Sham eigenvalues and eigenvectors using ELSI and the ELPA eigensolver.
  Finished Cholesky decomposition
  | Time :     0.000 s
  Finished transformation to standard eigenproblem
  | Time :     0.000 s
  Starting LAPACK eigensolver
  Finished solving standard eigenproblem
  | Time :     0.001 s
  Finished back-transformation of eigenvectors
  | Time :     0.000 s

[...]
  |   Hirshfeld dipole moment :      0.05877251
  |   Hirshfeld second moments:      0.01300280      -0.02830115      -0.01499686
  |                                 -0.02830115      -0.02606184       0.00462199
  |                                 -0.01499686       0.00462199      -0.02037521
  ----------------------------------------------------------------------
  | Atom    12: O
  |   Hirshfeld charge        :     -0.15126852
  |   Free atom volume        :     23.61338643
  |   Hirshfeld volume        :     21.16390556
  |   Hirshfeld dipole vector :      0.02658080       0.03045354      -0.00526408
  |   Hirshfeld dipole moment :      0.04076356
  |   Hirshfeld second moments:      0.05037732      -0.01169528      -0.02040290
  |                                 -0.01169528       0.03492816       0.03737549
  |                                 -0.02040290       0.03737549       0.07115005
  ----------------------------------------------------------------------
  | Atom    13: H
  |   Hirshfeld charge        :      0.16655453
  |   Free atom volume        :      9.95071624
  |   Hirshfeld volume        :      6.49229042
  |   Hirshfeld dipole vector :      0.06838289      -0.03483814      -0.08949524
  |   Hirshfeld dipole moment :      0.11789535
  |   Hirshfeld second moments:      0.11409316      -0.00221554       0.00275079
  |                                 -0.00221554       0.09697946       0.01959404
  |                                  0.00275079       0.01959404       0.10608866
  ----------------------------------------------------------------------


  Total energy components:
  | Sum of eigenvalues            :        -180.68433552 Ha       -4916.67092689 eV
  | XC energy correction          :         -42.63582061 Ha       -1160.17970813 eV
  | XC potential correction       :          54.81475464 Ha        1491.58536491 eV
  | Free-atom electrostatic energy:        -146.85124852 Ha       -3996.02578772 eV
  | Hartree energy correction     :          -8.12458726 Ha        -221.08126786 eV
  | vdW energy correction         :          -0.00310005 Ha          -0.08435667 eV
  | Entropy correction            :           0.00000000 Ha           0.00000000 eV
  | ---------------------------
  | Total energy                  :        -323.48433731 Ha       -8802.45668235 eV
  | Total energy, T -> 0          :        -323.48433731 Ha       -8802.45668235 eV  <-- do not rely on this value for anything but (periodic) metals
  | Electronic free energy        :        -323.48433731 Ha       -8802.45668235 eV

  Derived energy quantities:
  | Kinetic energy                :         322.58147303 Ha        8777.88849506 eV
  | Electrostatic energy          :        -603.42688968 Ha      -16420.08111261 eV
  | Energy correction for multipole
  | error in Hartree potential    :           0.03976403 Ha           1.08203433 eV
  | Sum of eigenvalues per atom                           :        -378.20545591 eV
  | Total energy (T->0) per atom                          :        -677.11205249 eV  <-- do not rely on this value for anything but (periodic) metals
  | Electronic free energy per atom                       :        -677.11205249 eV

  atomic forces [eV/Ang]:
  -----------------------
  atom #    1
   Hellmann-Feynman              :  0.142530E+01  0.416471E-01  0.112997E+01
   Ionic forces                  :  0.000000E+00  0.000000E+00  0.000000E+00
   Multipole                     :  0.175001E+00  0.219217E+00 -0.336077E+00
   Pulay + GGA                   : -0.153171E+01  0.119269E+00 -0.125763E+01
   Van der Waals                 :  0.190253E-02  0.204907E-02 -0.768958E-03
   ----------------------------------------------------------------
   Total forces(   1)            :  0.704846E-01  0.382181E+00 -0.464514E+00
  atom #    2
   Hellmann-Feynman              :  0.479134E+00  0.587455E-01  0.358020E+00
   Ionic forces                  :  0.000000E+00  0.000000E+00  0.000000E+00
   Multipole                     :  0.138655E+00  0.259462E-01 -0.395103E-01
   Pulay + GGA                   : -0.119826E+00  0.225715E-01  0.186059E-01
   Van der Waals                 :  0.928924E-02 -0.492606E-02 -0.131988E-02
   ----------------------------------------------------------------
   Total forces(   2)            :  0.507252E+00  0.102337E+00  0.335796E+00
  atom #    3
   Hellmann-Feynman              : -0.122477E+02 -0.224622E+01  0.132974E+01
   Ionic forces                  :  0.000000E+00  0.000000E+00  0.000000E+00
   Multipole                     : -0.723423E-01  0.426920E-01 -0.807241E+00
   Pulay + GGA                   :  0.119397E+02  0.213232E+01  0.382377E+00
   Van der Waals                 :  0.350349E-02 -0.401675E-02 -0.869908E-02
   ----------------------------------------------------------------
   Total forces(   3)            : -0.376763E+00 -0.752230E-01  0.896180E+00
  atom #    4
   Hellmann-Feynman              :  0.261866E+00  0.152522E-02 -0.177994E+00
   Ionic forces                  :  0.000000E+00  0.000000E+00  0.000000E+00
   Multipole                     :  0.327410E-01  0.328126E-01 -0.986913E-01
   Pulay + GGA                   : -0.134419E+00 -0.179261E+00  0.814491E-01
   Van der Waals                 : -0.458945E-02 -0.723391E-02 -0.382704E-02
   ----------------------------------------------------------------
   Total forces(   4)            :  0.155598E+00 -0.152157E+00 -0.199064E+00
  atom #    5
   Hellmann-Feynman              :  0.311686E+00  0.911498E-01 -0.406496E+00
   Ionic forces                  :  0.000000E+00  0.000000E+00  0.000000E+00
   Multipole                     :  0.508279E-01 -0.201961E-01 -0.117923E+00
   Pulay + GGA                   : -0.144926E+00  0.194726E+00  0.480170E-01
   Van der Waals                 :  0.117951E-02  0.780736E-02 -0.837695E-02
   ----------------------------------------------------------------
   Total forces(   5)            :  0.218767E+00  0.273487E+00 -0.484779E+00
  atom #    6
   Hellmann-Feynman              : -0.393573E+00 -0.482599E+00  0.363749E+00
   Ionic forces                  :  0.000000E+00  0.000000E+00  0.000000E+00
   Multipole                     : -0.902738E-01  0.668674E+00  0.249393E+00
   Pulay + GGA                   :  0.527515E+00 -0.671138E+00 -0.617912E+00
   Van der Waals                 : -0.266286E-02  0.294697E-02 -0.266296E-02
   ----------------------------------------------------------------
   Total forces(   6)            :  0.410062E-01 -0.482116E+00 -0.743324E-02
  atom #    7
   Hellmann-Feynman              : -0.207463E+00 -0.399285E-01 -0.480893E-01
   Ionic forces                  :  0.000000E+00  0.000000E+00  0.000000E+00
   Multipole                     : -0.122140E+00  0.467705E-01  0.316287E-01
   Pulay + GGA                   :  0.118293E+00 -0.161523E-01 -0.189650E-01
   Van der Waals                 : -0.753798E-03  0.201353E-02  0.238143E-02
   ----------------------------------------------------------------
   Total forces(   7)            : -0.212064E+00 -0.729676E-02 -0.330442E-01
  atom #    8
   Hellmann-Feynman              :  0.989298E-01 -0.613117E-01  0.924788E-01
   Ionic forces                  :  0.000000E+00  0.000000E+00  0.000000E+00
   Multipole                     :  0.147987E-01  0.677622E-01  0.129572E+00
   Pulay + GGA                   : -0.478372E-01 -0.462174E-01 -0.103875E+00
   Van der Waals                 : -0.252392E-02  0.115129E-01  0.101023E-02
   ----------------------------------------------------------------
   Total forces(   8)            :  0.633673E-01 -0.282539E-01  0.119186E+00
  atom #    9
   Hellmann-Feynman              :  0.124566E+00  0.726720E-01 -0.201991E+00
   Ionic forces                  :  0.000000E+00  0.000000E+00  0.000000E+00
   Multipole                     :  0.216658E-01  0.129682E+00 -0.521753E-03
   Pulay + GGA                   : -0.406263E-01 -0.615426E-01  0.803390E-01
   Van der Waals                 : -0.158058E-02  0.666722E-02  0.871639E-02
   ----------------------------------------------------------------
   Total forces(   9)            :  0.104025E+00  0.147479E+00 -0.113458E+00
  atom #   10
   Hellmann-Feynman              :  0.299505E+01  0.440695E+01  0.171638E+01
   Ionic forces                  :  0.000000E+00  0.000000E+00  0.000000E+00
   Multipole                     : -0.362204E-02 -0.100545E+00  0.264387E+00
   Pulay + GGA                   : -0.198473E+01 -0.254598E+01  0.144474E+00
   Van der Waals                 :  0.171615E-02 -0.108918E-01  0.223809E-02
   ----------------------------------------------------------------
   Total forces(  10)            :  0.100841E+01  0.174954E+01  0.212748E+01
  atom #   11
   Hellmann-Feynman              :  0.421020E+01 -0.252363E+01  0.139191E+02
   Ionic forces                  :  0.000000E+00  0.000000E+00  0.000000E+00
   Multipole                     :  0.167978E+00 -0.592508E+00  0.714211E+00
   Pulay + GGA                   : -0.393011E+01  0.400785E+01 -0.135614E+02
   Van der Waals                 : -0.221356E-02 -0.108722E-01  0.755686E-02
   ----------------------------------------------------------------
   Total forces(  11)            :  0.445859E+00  0.880840E+00  0.107943E+01
  atom #   12
   Hellmann-Feynman              : -0.121619E+02 -0.904621E+01  0.152749E+01
   Ionic forces                  :  0.000000E+00  0.000000E+00  0.000000E+00
   Multipole                     : -0.930052E+00 -0.148070E+01 -0.199126E-01
   Pulay + GGA                   :  0.120538E+02  0.820554E+01 -0.366572E+01
   Van der Waals                 : -0.214250E-02  0.364452E-02  0.825323E-02
   ----------------------------------------------------------------
   Total forces(  12)            : -0.104029E+01 -0.231772E+01 -0.214989E+01
  atom #   13
   Hellmann-Feynman              : -0.747026E+00 -0.436820E+00 -0.141198E+01
   Ionic forces                  :  0.000000E+00  0.000000E+00  0.000000E+00
   Multipole                     :  0.565148E-01 -0.243289E-01 -0.676455E-01
   Pulay + GGA                   : -0.292152E+00 -0.138022E-01  0.371330E+00
   Van der Waals                 : -0.112426E-02  0.129913E-02 -0.450135E-02
   ----------------------------------------------------------------
   Total forces(  13)            : -0.983787E+00 -0.473652E+00 -0.111280E+01

  Timings for VdW correction (Tkatchenko-Scheffler 2009 or later):
  | CPU time:        0.089 s, Wall clock time:        0.090 s.
  Removing unitary transformations (pure translations, rotations) from forces on atoms.
  Atomic forces before filtering:
  | Net force on center of mass :   0.185880E-02 -0.553388E-03 -0.690965E-02 eV/A
  | Net torque on center of mass:   0.550856E-02  0.141044E-03  0.781101E-02 eV
  Atomic forces after filtering:
  | Net force on center of mass :   0.000000E+00  0.624421E-15 -0.535218E-15 eV/A
  | Net torque on center of mass:   0.103849E-14  0.944085E-16  0.755268E-15 eV

  Energy and forces in a compact form:
  | Total energy uncorrected      :         -0.880245668235379E+04 eV
  | Total energy corrected        :         -0.880245668235379E+04 eV  <-- do not rely on this value for anything but (periodic) metals
  | Electronic free energy        :         -0.880245668235379E+04 eV
  Total atomic forces (unitary forces cleaned) [eV/Ang]:
  |   1          0.703632649332766E-01          0.382135791547172E+00         -0.463982776049013E+00
  |   2          0.507130490227029E+00          0.101998053522637E+00          0.336362001880074E+00
  |   3         -0.376840185063265E+00         -0.753182866444433E-01          0.896696789190159E+00
  |   4          0.155779105641488E+00         -0.152357231221978E+00         -0.198656246165969E+00
  |   5          0.218510916893913E+00          0.273195386497977E+00         -0.484154983548433E+00
  |   6          0.412006370358866E-01         -0.481936939503665E+00         -0.707655949147913E-02
  |   7         -0.211862829615721E+00         -0.682224849520582E-02         -0.327253283010920E-01
  |   8          0.635325200208371E-01         -0.280413800280448E-01          0.119552264111202E+00
  |   9          0.104476429624568E+00          0.147497537515807E+00         -0.113203137768423E+00
  |  10          0.100791695162393E+01          0.174969198259776E+01          0.212816165857769E+01
  |  11          0.445258232518925E+00          0.881059092114020E+00          0.108015620644737E+01
  |  12         -0.104099065226319E+01         -0.231745811905049E+01         -0.214912175421640E+01
  |  13         -0.984474881577677E+00         -0.473643638851552E+00         -0.111200813466568E+01

  ------------------------------------ 
  Start decomposition of the XC Energy 
  ------------------------------------ 
  X and C from original XC functional choice 
  Hartree-Fock Energy :          0.000000000 Ha              0.000000000 eV
  X Energy            :        -41.035413328 Ha          -1116.630410194 eV
  C Energy            :         -1.600407283 Ha            -43.549297937 eV
  Total XC Energy     :        -42.635820611 Ha          -1160.179708131 eV
  ------------------------------------ 
  LDA X and C from self-consistent density 
  X Energy LDA        :        -37.253677742 Ha          -1013.724149067 eV
  C Energy LDA        :         -3.138485445 Ha            -85.402534199 eV
  ------------------------------------ 
  End decomposition of the XC Energy 
  ------------------------------------ 

------------------------------------------------------------

------------------------------------------------------------------------------
  Final output of selected total energy values:

  The following output summarizes some interesting total energy values
  at the end of a run (AFTER all relaxation, molecular dynamics, etc.).

  | Total energy of the DFT / Hartree-Fock s.c.f. calculation      :          -8802.456682354 eV
  | Final zero-broadening corrected energy (caution - metals only) :          -8802.456682354 eV
  | For reference only, the value of 1 Hartree used in FHI-aims is :             27.211384500 eV

  Before relying on these values, please be sure to understand exactly which
  total energy value is referred to by a given number. Different objects may
  all carry the same name 'total energy'. Definitions:

  Total energy of the DFT / Hartree-Fock s.c.f. calculation:
  | Note that this energy does not include ANY quantities calculated after the
  | s.c.f. cycle, in particular not ANY RPA, MP2, etc. many-body perturbation terms.

  Final zero-broadening corrected energy:
  | For metallic systems only, a broadening of the occupation numbers at the Fermi
  | level can be extrapolated back to zero broadening by an electron-gas inspired
  | formula. For all systems that are not real metals, this value can be
  | meaningless and should be avoided.

------------------------------------------------------------------------------
  Methods described in the following list of references were used in this FHI-aims run.
  If you publish the results, please make sure to cite these reference if they apply.
  FHI-aims is an academic code, and for our developers (often, Ph.D. students
  and postdocs), scientific credit in the community is essential.
  Thank you for helping us!

  For any use of FHI-aims, please cite:

    Volker Blum, Ralf Gehrke, Felix Hanke, Paula Havu, Ville Havu,
    Xinguo Ren, Karsten Reuter, and Matthias Scheffler
    'Ab initio molecular simulations with numeric atom-centered orbitals'
    Computer Physics Communications 180, 2175-2196 (2009)
    http://dx.doi.org/10.1016/j.cpc.2009.06.022


  The scalable eigensolver library ELPA was used in your run.
  ELPA is essential especially for large systems on hundreds or thousands of CPUs.
  For ELPA, please cite:

    Andreas Marek, Volker Blum, Rainer Johanni, Ville Havu, Bruno Lang,
    Thomas Auckenthaler, Alexander Heinecke, Hans-Joachim Bungartz, and Hermann Lederer,
    'The ELPA Library - Scalable Parallel Eigenvalue Solutions
    for Electronic Structure Theory and Computational Science'
    The Journal of Physics: Condensed Matter 26, 213201 (2014).
    http://dx.doi.org/10.1088/0953-8984/26/21/213201


  The ELSI infrastructure was used in your run to solve the Kohn-Sham electronic structure.
  Please check out http://elsi-interchange.org to learn more.
  If scalability is important for your project, please acknowledge ELSI by citing:

    V. W-z. Yu, F. Corsetti, A. Garcia, W. P. Huhn, M. Jacquelin, W. Jia,
    B. Lange, L. Lin, J. Lu, W. Mi, A. Seifitokaldani, A. Vazquez-Mayagoitia,
    C. Yang, H. Yang, and V. Blum
    'ELSI: A unified software interface for Kohn-Sham electronic structure solvers'
    Computer Physics Communications 222, 267-285 (2018).
    http://dx.doi.org/10.1016/j.cpc.2017.09.007


  For the real-space grid partitioning and parallelization used in this calculation, please cite:

    Ville Havu, Volker Blum, Paula Havu, and Matthias Scheffler,
    'Efficient O(N) integration for all-electron electronic structure calculation'
    'using numerically tabulated basis functions'
    Journal of Computational Physics 228, 8367-8379 (2009).
    http://dx.doi.org/10.1016/j.jcp.2009.08.008

  Of course, there are many other important community references, e.g., those cited in the
  above references. Our list is limited to references that describe implementations in the
  FHI-aims code. The reason is purely practical (length of this list) - please credit others as well.

------------------------------------------------------------
          Leaving FHI-aims.
          Date     :  20200801, Time     :  172016.559

          Computational steps:
          | Number of self-consistency cycles          :           16
          | Number of SCF (re)initializations          :            1

          Detailed time accounting                     :  max(cpu_time)    wall_clock(cpu1)
          | Total time                                 :       22.572 s          22.650 s
          | Preparation time                           :        0.146 s           0.148 s
          | Boundary condition initalization           :        0.000 s           0.000 s
          | Grid partitioning                          :        0.111 s           0.112 s
          | Preloading free-atom quantities on grid    :        0.002 s           0.002 s
          | Free-atom superposition energy             :        0.085 s           0.086 s
          | Total time for integrations                :        8.576 s           8.580 s
          | Total time for solution of K.-S. equations :        0.036 s           0.041 s
          | Total time for density & force components  :        7.120 s           7.139 s
          | Total time for mixing                      :        0.213 s           0.216 s
          | Total time for Hartree multipole update    :        0.140 s           0.140 s
          | Total time for Hartree multipole sum       :        5.739 s           5.754 s
          | Total time for total energy evaluation     :        0.003 s           0.005 s
          | Total time for vdW correction              :        0.089 s           0.090 s

          Partial memory accounting:
          | Residual value for overall tracked memory usage across tasks :           0.000 MB (should be 0.000 MB)
          | Peak values for overall tracked memory usage (after allocating hessian_basis_wave):
          |   Minimum:        1.612 MB (on task 1)
          |   Maximum:        1.612 MB (on task 1)
          |   Average:        1.612 MB
          | Largest tracked array allocation (hessian_basis_wave):
          |   Minimum:        0.788 MB (on task 1)
          |   Maximum:        0.788 MB (on task 1)
          |   Average:        0.788 MB
          Note:  These values currently only include a subset of arrays which are explicitly tracked.
          The "true" memory usage will be greater.

          Have a nice day.
------------------------------------------------------------
