  MPI-parallelism will be employed.
------------------------------------------------------------
          Invoking FHI-aims ...
          Version 171221_1
          Compiled on 2019/09/09 at 14:39:39 on host puhti-login2.bullx.

          When using FHI-aims, please cite the following reference:

          Volker Blum, Ralf Gehrke, Felix Hanke, Paula Havu,
          Ville Havu, Xinguo Ren, Karsten Reuter, and Matthias Scheffler,
          'Ab Initio Molecular Simulations with Numeric Atom-Centered Orbitals',
          Computer Physics Communications 180, 2175-2196 (2009)

          For any questions about FHI-aims, please visit the aimsclub website
          with its forums and wiki. Contributions to both the forums and the
          wiki are warmly encouraged - they are for you, and everyone is welcome there.

------------------------------------------------------------



  Date     :  20200805, Time     :  182613.463
  Time zero on CPU 1             :   0.112900000000000E-01  s.
  Internal wall clock time zero  :           365883973.463  s.

  FHI-aims created a unique identifier for this run for later identification
  aims_uuid : 767DFB46-7ADD-49E6-A1D2-3D643BE3C7EB

  Using        1 parallel tasks.
  Task        0 on host r13c28.bullx reporting.

  Performing system and environment tests:
  | Environment variable OMP_NUM_THREADS correctly set to 1.
  | Stacksize not measured: no C compiler
  | Checking for scalapack...
  | Testing pdtran()...
  | All pdtran() tests passed.

  Obtaining array dimensions for all initial allocations:
  
  -----------------------------------------------------------------------
  Parsing control.in (first pass over file, find array dimensions only).
  The contents of control.in will be repeated verbatim below
  unless switched off by setting 'verbatim_writeout .false.' .
  in the first line of control.in .
  -----------------------------------------------------------------------
  
  #########################################################################################
  #
  #  Volker Blum, FHI 2009 : Test run input file control.in for simple H2O
  #
  #########################################################################################
  #
  #  Physical model
  #
    xc                 pbe
    vdw_correction_hirshfeld
    spin               none
    relativistic       none
    charge             0.
  #
  #  SCF convergence
  #
    occupation_type    gaussian 0.01
    mixer              pulay
      n_max_pulay        10
      charge_mix_param   0.2
    sc_accuracy_rho    1E-5
    sc_accuracy_eev    1E-3
    sc_accuracy_etot   1E-6
    sc_accuracy_forces 1E-4
    sc_iter_limit      100
  #
  #  Relaxation
  #
  #  relax_geometry   bfgs 1.e-3
  #
  ################################################################################
  #
  #  FHI-aims code project
  #  VB, Fritz-Haber Institut, 2009
  #
  #  Suggested "light" defaults for H atom (to be pasted into control.in file)
  #  Be sure to double-check any results obtained with these settings for post-processing,
  #  e.g., with the "tight" defaults and larger basis sets.
  #
  ################################################################################
    species        H
  #     global species definitions
      nucleus             1
      mass                1.00794
  #
      l_hartree           4
  #
      cut_pot             3.5  1.5  1.0
      basis_dep_cutoff    1e-4
  #
      radial_base         24 5.0
      radial_multiplier   1
      angular_grids       specified
        division   0.2421   50
        division   0.3822  110
        division   0.4799  194
        division   0.5341  302
  #      division   0.5626  434
  #      division   0.5922  590
  #      division   0.6542  770
  #      division   0.6868 1202
  #      outer_grid  770
        outer_grid  302
  ################################################################################
  #
  #  Definition of "minimal" basis
  #
  ################################################################################
  #     valence basis states
      valence      1  s   1.
  #     ion occupancy
      ion_occ      1  s   0.5
  ################################################################################
  #
  #  Suggested additional basis functions. For production calculations,
  #  uncomment them one after another (the most important basis functions are
  #  listed first).
  #
  #  Basis constructed for dimers: 0.5 A, 0.7 A, 1.0 A, 1.5 A, 2.5 A
  #
  ################################################################################
  #  "First tier" - improvements: -1014.90 meV to -62.69 meV
       hydro 2 s 2.1
       hydro 2 p 3.5
  #  "Second tier" - improvements: -12.89 meV to -1.83 meV
  #     hydro 1 s 0.85
  #     hydro 2 p 3.7
  #     hydro 2 s 1.2
  #     hydro 3 d 7
  #  "Third tier" - improvements: -0.25 meV to -0.12 meV
  #     hydro 4 f 11.2
  #     hydro 3 p 4.8
  #     hydro 4 d 9
  #     hydro 3 s 3.2
  ################################################################################
  #
  #  FHI-aims code project
  #  VB, Fritz-Haber Institut, 2009
  #
  #  Suggested "light" defaults for C atom (to be pasted into control.in file)
  #  Be sure to double-check any results obtained with these settings for post-processing,
  #  e.g., with the "tight" defaults and larger basis sets.
  #
  ################################################################################
    species        C
  #     global species definitions
      nucleus             6
      mass                12.0107
  #
      l_hartree           4
  #
      cut_pot             3.5  1.5  1.0
      basis_dep_cutoff    1e-4
  #
      radial_base         34 5.0
      radial_multiplier   1
      angular_grids specified
        division   0.3326   50
        division   0.5710  110
        division   0.7727  194
        division   0.8772  302
  #      division   0.9334  434
  #      division   0.9625  590
  #      division   0.9924  770
  #      division   1.0230  974
  #      division   1.4589 1202
  #     outer_grid  974
       outer_grid 302
  ################################################################################
  #
  #  Definition of "minimal" basis
  #
  ################################################################################
  #     valence basis states
      valence      2  s   2.
      valence      2  p   2.
  #     ion occupancy
      ion_occ      2  s   1.
      ion_occ      2  p   1.
  ################################################################################
  #
  #  Suggested additional basis functions. For production calculations,
  #  uncomment them one after another (the most important basis functions are
  #  listed first).
  #
  #  Constructed for dimers: 1.0 A, 1.25 A, 1.5 A, 2.0 A, 3.0 A
  #
  ################################################################################
  #  "First tier" - improvements: -1214.57 meV to -155.61 meV
       hydro 2 p 1.7
       hydro 3 d 6
       hydro 2 s 4.9
  #  "Second tier" - improvements: -67.75 meV to -5.23 meV
  #     hydro 4 f 9.8
  #     hydro 3 p 5.2
  #     hydro 3 s 4.3
  #     hydro 5 g 14.4
  #     hydro 3 d 6.2
  #  "Third tier" - improvements: -2.43 meV to -0.60 meV
  #     hydro 2 p 5.6
  #     hydro 2 s 1.4
  #     hydro 3 d 4.9
  #     hydro 4 f 11.2
  #  "Fourth tier" - improvements: -0.39 meV to -0.18 meV
  #     hydro 2 p 2.1
  #     hydro 5 g 16.4
  #     hydro 4 d 13.2
  #     hydro 3 s 13.6
  #     hydro 4 f 17.6
  #  Further basis functions - improvements: -0.08 meV and below
  #     hydro 3 s 2
  #     hydro 3 p 6
  #     hydro 4 d 20
  ################################################################################
  #
  #  FHI-aims code project
  #  VB, Fritz-Haber Institut, 2009
  #
  #  Suggested "light" defaults for N atom (to be pasted into control.in file)
  #  Be sure to double-check any results obtained with these settings for post-processing,
  #  e.g., with the "tight" defaults and larger basis sets.
  #
  ################################################################################
    species        N
  #     global species definitions
      nucleus             7
      mass                14.0067
  #
      l_hartree           4
  #
      cut_pot             3.5  1.5  1.0
      basis_dep_cutoff    1e-4
  #
      radial_base         35 5.0
      radial_multiplier   1
      angular_grids       specified
        division   0.2599   50
        division   0.4601  110
        division   0.5885  194
        division   0.6503  302
  #      division   0.6939  434
  #      division   0.7396  590
  #      division   0.7632  770
  #      division   0.8122  974
  #      division   1.1604 1202
  #      outer_grid  974
        outer_grid  302
  ################################################################################
  #
  #  Definition of "minimal" basis
  #
  ################################################################################
  #     valence basis states
      valence      2  s   2.
      valence      2  p   3.
  #     ion occupancy
      ion_occ      2  s   1.
      ion_occ      2  p   2.
  ################################################################################
  #
  #  Suggested additional basis functions. For production calculations,
  #  uncomment them one after another (the most important basis functions are
  #  listed first).
  #
  #  Constructed for dimers: 1.0 A, 1.1 A, 1.5 A, 2.0 A, 3.0 A
  #
  ################################################################################
  #  "First tier" - improvements: -1193.42 meV to -220.60 meV
       hydro 2 p 1.8
       hydro 3 d 6.8
       hydro 3 s 5.8
  #  "Second tier" - improvements: -80.21 meV to -6.86 meV
  #     hydro 4 f 10.8
  #     hydro 3 p 5.8
  #     hydro 1 s 0.8
  #     hydro 5 g 16
  #     hydro 3 d 4.9
  #  "Third tier" - improvements: -4.29 meV to -0.53 meV
  #     hydro 3 s 16
  #     ionic 2 p auto
  #     hydro 3 d 6.6
  #     hydro 4 f 11.6
  #  "Fourth tier" - improvements: -0.75 meV to -0.25 meV
  #     hydro 2 p 4.5
  #     hydro 2 s 2.4
  #     hydro 5 g 14.4
  #     hydro 4 d 14.4
  #     hydro 4 f 16.8
  # Further basis functions - -0.21 meV and below
  #     hydro 3 p 14.8
  #     hydro 3 s 4.4
  #     hydro 3 d 19.6
  #     hydro 5 g 12.8
  ################################################################################
  #
  #  FHI-aims code project
  #  VB, Fritz-Haber Institut, 2009
  #
  #  Suggested "light" defaults for O atom (to be pasted into control.in file)
  #  Be sure to double-check any results obtained with these settings for post-processing,
  #  e.g., with the "tight" defaults and larger basis sets.
  #
  ################################################################################
    species        O
  #     global species definitions
      nucleus             8
      mass                15.9994
  #
      l_hartree           4
  #
      cut_pot             3.5  1.5  1.0
      basis_dep_cutoff    1e-4
  #
      radial_base         36 5.0
      radial_multiplier   1
       angular_grids specified
        division   0.2659   50
        division   0.4451  110
        division   0.6052  194
        division   0.7543  302
  #      division   0.8014  434
  #      division   0.8507  590
  #      division   0.8762  770
  #      division   0.9023  974
  #      division   1.2339 1202
  #      outer_grid 974
        outer_grid 302
  ################################################################################
  #
  #  Definition of "minimal" basis
  #
  ################################################################################
  #     valence basis states
      valence      2  s   2.
      valence      2  p   4.
  #     ion occupancy
      ion_occ      2  s   1.
      ion_occ      2  p   3.
  ################################################################################
  #
  #  Suggested additional basis functions. For production calculations,
  #  uncomment them one after another (the most important basis functions are
  #  listed first).
  #
  #  Constructed for dimers: 1.0 A, 1.208 A, 1.5 A, 2.0 A, 3.0 A
  #
  ################################################################################
  #  "First tier" - improvements: -699.05 meV to -159.38 meV
       hydro 2 p 1.8
       hydro 3 d 7.6
       hydro 3 s 6.4
  #  "Second tier" - improvements: -49.91 meV to -5.39 meV
  #     hydro 4 f 11.6
  #     hydro 3 p 6.2
  #     hydro 3 d 5.6
  #     hydro 5 g 17.6
  #     hydro 1 s 0.75
  #  "Third tier" - improvements: -2.83 meV to -0.50 meV
  #     ionic 2 p auto
  #     hydro 4 f 10.8
  #     hydro 4 d 4.7
  #     hydro 2 s 6.8
  #  "Fourth tier" - improvements: -0.40 meV to -0.12 meV
  #     hydro 3 p 5
  #     hydro 3 s 3.3
  #     hydro 5 g 15.6
  #     hydro 4 f 17.6
  #     hydro 4 d 14
  # Further basis functions - -0.08 meV and below
  #     hydro 3 s 2.1
  #     hydro 4 d 11.6
  #     hydro 3 p 16
  #     hydro 2 s 17.2
  
  -----------------------------------------------------------------------
  Completed first pass over input file control.in .
  -----------------------------------------------------------------------
  
  
  -----------------------------------------------------------------------
  Parsing geometry.in (first pass over file, find array dimensions only).
  The contents of geometry.in will be repeated verbatim below
  unless switched off by setting 'verbatim_writeout .false.' .
  in the first line of geometry.in .
  -----------------------------------------------------------------------
  
  atom  0.00000 0.00000 0.00000 C
  atom  1.09300 0.00000 0.00000 H
  atom  -0.47961 0.00000 -1.41207 N
  atom  0.26580 0.35758 -2.01068 H
  atom  -0.71641 -0.95391 -1.67684 H
  atom  -0.49584 1.26211 0.72868 C
  atom  -1.58789 1.28919 0.74431 H
  atom  -0.13407 1.27425 1.75947 H
  atom  -0.13407 2.16087 0.22380 H
  atom  -0.39425 -1.28861 0.74398 C
  atom  -0.10189 -1.56493 1.88303 O
  atom  -1.10210 -2.13717 0.06896 O
  atom  -0.69305 -2.00167 -0.80242 H
  
  -----------------------------------------------------------------------
  Completed first pass over input file geometry.in .
  -----------------------------------------------------------------------
  

  Basic array size parameters:
  | Number of species                 :        4
  | Number of atoms                   :       13
  | Max. basis fn. angular momentum   :        2
  | Max. atomic/ionic basis occupied n:        2
  | Max. number of basis fn. types    :        2
  | Max. radial fns per species/type  :        3
  | Max. logarithmic grid size        :     1301
  | Max. radial integration grid size :       36
  | Max. angular integration grid size:      302
  | Max. angular grid division number :        8
  | Radial grid for Hartree potential :     1301
  | Number of spin channels           :        1

------------------------------------------------------------
          Reading file control.in.
------------------------------------------------------------
  XC: Using PBE gradient-corrected functionals.
  Spin treatment: No spin polarisation.
  Non-relativistic treatment of kinetic energy.
  Charge =   0.000000E+00: Neutral system requested explicitly.
  Occupation type: Gaussian broadening, width =   0.100000E-01 eV.
  Using pulay charge density mixing.
  Pulay mixing - number of memorized iterations:   10
  Charge density mixing - mixing parameter:     0.2000
  Convergence accuracy of self-consistent charge density:  0.1000E-04
  Convergence accuracy of sum of eigenvalues:  0.1000E-02
  Convergence accuracy of total energy:  0.1000E-05
  Convergence accuracy of forces:  0.1000E-03
  Maximum number of s.-c. iterations  :   100
 
  Reading configuration options for species H                   .
  | Found nuclear charge :   1.0000
  | Found atomic mass :    1.00794000000000      amu
  | Found l_max for Hartree potential  :   4
  | Found cutoff potl. onset [A], width [A], scale factor :    3.50000    1.50000    1.00000
  | Threshold for basis-dependent cutoff potential is   0.100000E-03
  | Found data for basic radial integration grid :    24 points, outermost radius =    5.000 A
  | Found multiplier for basic radial grid :   1
  | Found angular grid specification: user-specified.
  | Specified grid contains     5 separate shells.
  | Check grid settings after all constraints further below.
  | Found free-atom valence shell :  1 s   1.000
  | No ionic wave fns used. Skipping ion_occ.
  | Found hydrogenic basis function :  2 s   2.100
  | Found hydrogenic basis function :  2 p   3.500
  Species H                   : Missing cutoff potential type.
  Defaulting to exp(1/x)/(1-x)^2 type cutoff potential.
  Species H : No 'logarithmic' tag. Using default grid for free atom:
  | Default logarithmic grid data [bohr] : 0.1000E-03 0.1000E+03 0.1012E+01
  Species H : On-site basis accuracy parameter (for Gram-Schmidt orthonormalisation) not specified.
  Using default value basis_acc =  0.1000000E-03.
  Species H                   : Using default innermost maximum threshold i_radial=  2 for radial functions.
  Species H                   : Default cutoff onset for free atom density etc. : 0.35000000E+01 AA.
  Species H                   : Basic radial grid will be enhanced according to radial_multiplier =   1, to contain    24 grid points.
 
  Reading configuration options for species C                   .
  | Found nuclear charge :   6.0000
  | Found atomic mass :    12.0107000000000      amu
  | Found l_max for Hartree potential  :   4
  | Found cutoff potl. onset [A], width [A], scale factor :    3.50000    1.50000    1.00000
  | Threshold for basis-dependent cutoff potential is   0.100000E-03
  | Found data for basic radial integration grid :    34 points, outermost radius =    5.000 A
  | Found multiplier for basic radial grid :   1
  | Found angular grid specification: user-specified.
  | Specified grid contains     5 separate shells.
  | Check grid settings after all constraints further below.
  | Found free-atom valence shell :  2 s   2.000
  | Found free-atom valence shell :  2 p   2.000
  | No ionic wave fns used. Skipping ion_occ.
  | No ionic wave fns used. Skipping ion_occ.
  | Found hydrogenic basis function :  2 p   1.700
  | Found hydrogenic basis function :  3 d   6.000
  | Found hydrogenic basis function :  2 s   4.900
  Species C                   : Missing cutoff potential type.
  Defaulting to exp(1/x)/(1-x)^2 type cutoff potential.
  Species C : No 'logarithmic' tag. Using default grid for free atom:
  | Default logarithmic grid data [bohr] : 0.1000E-03 0.1000E+03 0.1012E+01
  Species C : On-site basis accuracy parameter (for Gram-Schmidt orthonormalisation) not specified.
  Using default value basis_acc =  0.1000000E-03.
  Species C                   : Using default innermost maximum threshold i_radial=  2 for radial functions.
  Species C                   : Default cutoff onset for free atom density etc. : 0.35000000E+01 AA.
  Species C                   : Basic radial grid will be enhanced according to radial_multiplier =   1, to contain    34 grid points.
 
  Reading configuration options for species N                   .
  | Found nuclear charge :   7.0000
  | Found atomic mass :    14.0067000000000      amu
  | Found l_max for Hartree potential  :   4
  | Found cutoff potl. onset [A], width [A], scale factor :    3.50000    1.50000    1.00000
  | Threshold for basis-dependent cutoff potential is   0.100000E-03
  | Found data for basic radial integration grid :    35 points, outermost radius =    5.000 A
  | Found multiplier for basic radial grid :   1
  | Found angular grid specification: user-specified.
  | Specified grid contains     5 separate shells.
  | Check grid settings after all constraints further below.
  | Found free-atom valence shell :  2 s   2.000
  | Found free-atom valence shell :  2 p   3.000
  | No ionic wave fns used. Skipping ion_occ.
  | No ionic wave fns used. Skipping ion_occ.
  | Found hydrogenic basis function :  2 p   1.800
  | Found hydrogenic basis function :  3 d   6.800
  | Found hydrogenic basis function :  3 s   5.800
  Species N                   : Missing cutoff potential type.
  Defaulting to exp(1/x)/(1-x)^2 type cutoff potential.
  Species N : No 'logarithmic' tag. Using default grid for free atom:
  | Default logarithmic grid data [bohr] : 0.1000E-03 0.1000E+03 0.1012E+01
  Species N : On-site basis accuracy parameter (for Gram-Schmidt orthonormalisation) not specified.
  Using default value basis_acc =  0.1000000E-03.
  Species N                   : Using default innermost maximum threshold i_radial=  2 for radial functions.
  Species N                   : Default cutoff onset for free atom density etc. : 0.35000000E+01 AA.
  Species N                   : Basic radial grid will be enhanced according to radial_multiplier =   1, to contain    35 grid points.
 
  Reading configuration options for species O                   .
  | Found nuclear charge :   8.0000
  | Found atomic mass :    15.9994000000000      amu
  | Found l_max for Hartree potential  :   4
  | Found cutoff potl. onset [A], width [A], scale factor :    3.50000    1.50000    1.00000
  | Threshold for basis-dependent cutoff potential is   0.100000E-03
  | Found data for basic radial integration grid :    36 points, outermost radius =    5.000 A
  | Found multiplier for basic radial grid :   1
  | Found angular grid specification: user-specified.
  | Specified grid contains     5 separate shells.
  | Check grid settings after all constraints further below.
  | Found free-atom valence shell :  2 s   2.000
  | Found free-atom valence shell :  2 p   4.000
  | No ionic wave fns used. Skipping ion_occ.
  | No ionic wave fns used. Skipping ion_occ.
  | Found hydrogenic basis function :  2 p   1.800
  | Found hydrogenic basis function :  3 d   7.600
  | Found hydrogenic basis function :  3 s   6.400
  Species O                   : Missing cutoff potential type.
  Defaulting to exp(1/x)/(1-x)^2 type cutoff potential.
  Species O : No 'logarithmic' tag. Using default grid for free atom:
  | Default logarithmic grid data [bohr] : 0.1000E-03 0.1000E+03 0.1012E+01
  Species O : On-site basis accuracy parameter (for Gram-Schmidt orthonormalisation) not specified.
  Using default value basis_acc =  0.1000000E-03.
  Species O                   : Using default innermost maximum threshold i_radial=  2 for radial functions.
  Species O                   : Default cutoff onset for free atom density etc. : 0.35000000E+01 AA.
  Species O                   : Basic radial grid will be enhanced according to radial_multiplier =   1, to contain    36 grid points.
 
  Finished reading input file 'control.in'. Consistency checks are next.
 
  MPI_IN_PLACE appears to work with this MPI implementation.
  | Keeping use_mpi_in_place .true. (see manual).
  Target number of points in a grid batch is not set. Defaulting to  100
  Method for grid partitioning is not set. Defaulting to parallel hash+maxmin partitioning.
  Batch size limit is not set. Defaulting to    200
  By default, will store active basis functions for each batch.
  If in need of memory, prune_basis_once .false. can be used to disable this option.
  communication_type for Hartree potential was not specified.
  Defaulting to calc_hartree .
  Pulay mixer: Number of initial linear mixing iterations not set.
  Defaulting to    0 iterations.
  Work space size for distributed Hartree potential not set.
  Defaulting to   0.200000E+03 MB.
  Algorithm-dependent basis array size parameters:
  | n_max_pulay                         :       10
  Presetting      1001 iterations before the initial mixing cycle
  is restarted anyway using the sc_init_iter criterion / keyword.
  Presetting a factor      1.000 between actual scf density residual
  and density convergence criterion sc_accuracy_rho below which sc_init_iter
  takes no effect.
  Geometry relaxation not requested: no relaxation will be performed.
  Handling of forces: Unphysical translation and rotation will be removed from forces.
  No accuracy limit for integral partition fn. given. Defaulting to  0.1000E-14.
  No threshold value for u(r) in integrations given. Defaulting to  0.1000E-05.
  No accuracy for occupation numbers given. Defaulting to  0.1000E-12.
  No threshold value for occupation numbers given. Defaulting to  0.0000E+00.
  No accuracy for fermi level given. Defaulting to  0.1000E-19.
  Maximum # of iterations to find E_F not set. Defaulting to  200.
  Preferred method for the eigenvalue solver ('KS_method') not specified in 'control.in'.
  Defaulting to serial version, 'lapack_fast'.
  Will not use alltoall communication since running on < 1024 CPUs.
  Threshold for basis singularities not set.
  Default threshold for basis singularities:  0.1000E-04
  partition_type (choice of integration weights) for integrals was not specified.
  | Using a version of the partition function of Stratmann and coworkers ('stratmann_smoother').
  | At each grid point, the set of atoms used to build the partition table is smoothly restricted to
  | only those atoms whose free-atom density would be non-zero at that grid point.
  Partitioning for Hartree potential was not defined. Using partition_type for integrals.
  | Adjusted default value of keyword multip_moments_threshold to:       0.10000000E-11
  | This value may affect high angular momentum components of the Hartree potential in periodic systems.
  No q(lm)/r^(l+1) cutoff set for long-range Hartree potential.
  | Using default value of  0.100000E-09 .
  | Verify using the multipole_threshold keyword.
  Defaulting to new monopole extrapolation.
  Density update method: automatic selection selected.
------------------------------------------------------------


------------------------------------------------------------
          Reading geometry description geometry.in.
------------------------------------------------------------
  Input structure read successfully.
  The structure contains       13 atoms,  and a total of         48.000 electrons.

  Input geometry:
  | No unit cell requested.
  | Atomic structure:
  |       Atom                x [A]            y [A]            z [A]
  |    1: Species C             0.00000000        0.00000000        0.00000000
  |    2: Species H             1.09300000        0.00000000        0.00000000
  |    3: Species N            -0.47961000        0.00000000       -1.41207000
  |    4: Species H             0.26580000        0.35758000       -2.01068000
  |    5: Species H            -0.71641000       -0.95391000       -1.67684000
  |    6: Species C            -0.49584000        1.26211000        0.72868000
  |    7: Species H            -1.58789000        1.28919000        0.74431000
  |    8: Species H            -0.13407000        1.27425000        1.75947000
  |    9: Species H            -0.13407000        2.16087000        0.22380000
  |   10: Species C            -0.39425000       -1.28861000        0.74398000
  |   11: Species O            -0.10189000       -1.56493000        1.88303000
  |   12: Species O            -1.10210000       -2.13717000        0.06896000
  |   13: Species H            -0.69305000       -2.00167000       -0.80242000
  |

  | The smallest distance between any two atoms is         0.97210352 AA.
  |
  | The first atom of this pair is atom number                     12 .
  | The second atom of this pair is atom number                    13 .

  Number of empty states per atom not set in control.in - providing a guess from actual geometry.
  | Total number of empty states used during s.c.f. cycle:       29
  If you use a very high smearing, use empty_states (per atom!) in control.in to increase this value.

  Structure-dependent array size parameters: 
  | Maximum number of distinct radial functions  :       21
  | Maximum number of basis functions            :      119
  | Number of Kohn-Sham states (occupied + empty):       53
------------------------------------------------------------

------------------------------------------------------------
          Preparing all fixed parts of the calculation.
------------------------------------------------------------
  Determining machine precision:
    2.225073858507201E-308
  Setting up grids for atomic and cluster calculations.

  Creating wave function, potential, and density for free atoms.

  Species: H

  List of occupied orbitals and eigenvalues:
    n    l              occ      energy [Ha]    energy [eV]
    1    0           1.0000        -0.237589        -6.4651


  Species: C

  List of occupied orbitals and eigenvalues:
    n    l              occ      energy [Ha]    energy [eV]
    1    0           2.0000       -10.038835      -273.1706
    2    0           2.0000        -0.502696       -13.6791
    2    1           2.0000        -0.191971        -5.2238


  Species: N

  List of occupied orbitals and eigenvalues:
    n    l              occ      energy [Ha]    energy [eV]
    1    0           2.0000       -14.128000      -384.4424
    2    0           2.0000        -0.681077       -18.5330
    2    1           3.0000        -0.259788        -7.0692


  Species: O

  List of occupied orbitals and eigenvalues:
    n    l              occ      energy [Ha]    energy [eV]
    1    0           2.0000       -18.898188      -514.2459
    2    0           2.0000        -0.878505       -23.9053
    2    1           4.0000        -0.331779        -9.0282

  Creating fixed part of basis set: Ionic, confined, hydrogenic.
 
  H                    hydrogenic:
 
  List of hydrogenic basis orbitals: 
    n    l      effective z      eigenvalue [eV]  inner max. [A]     outer max. [A]     outer radius [A]   
    2    0         2.100000       -14.9728           0.193243           1.317208           4.583499
    2    1         3.500000       -41.6669           0.602369           0.602369           3.723403
 
 
  C                    hydrogenic:
 
  List of hydrogenic basis orbitals: 
    n    l      effective z      eigenvalue [eV]  inner max. [A]     outer max. [A]     outer radius [A]   
    2    1         1.700000        -9.7616           1.230570           1.230570           4.607917
    3    2         6.000000       -54.4224           0.792453           0.792453           3.883070
    2    0         4.900000       -81.6679           0.082559           0.562749           3.078220
 
 
  N                    hydrogenic:
 
  List of hydrogenic basis orbitals: 
    n    l      effective z      eigenvalue [eV]  inner max. [A]     outer max. [A]     outer radius [A]   
    2    1         1.800000       -10.9749           1.177451           1.177451           4.573712
    3    2         6.800000       -69.9026           0.704619           0.704619           3.538137
    3    0         5.800000       -50.8545           0.067388           1.191934           4.250239
 
 
  O                    hydrogenic:
 
  List of hydrogenic basis orbitals: 
    n    l      effective z      eigenvalue [eV]  inner max. [A]     outer max. [A]     outer radius [A]   
    2    1         1.800000       -10.9749           1.164242           1.164242           4.578029
    3    2         7.600000       -87.3180           0.624125           0.624125           3.251020
    3    0         6.400000       -61.9207           0.061167           1.081902           4.001998
 

  Adding cutoff potential to free-atom effective potential.
  Creating atomic-like basis functions for current effective potential.

  Species H                   :

  List of atomic basis orbitals and eigenvalues:
    n    l      energy [Ha]    energy [eV]    outer radius [A]
    1    0        -0.237589        -6.4651       4.527807


  Species C                   :

  List of atomic basis orbitals and eigenvalues:
    n    l      energy [Ha]    energy [eV]    outer radius [A]
    1    0       -10.038835      -273.1706       1.934409
    2    0        -0.502696       -13.6791       4.496620
    2    1        -0.191971        -5.2238       4.551928


  Species N                   :

  List of atomic basis orbitals and eigenvalues:
    n    l      energy [Ha]    energy [eV]    outer radius [A]
    1    0       -14.128000      -384.4424       1.637919
    2    0        -0.681077       -18.5330       4.463241
    2    1        -0.259788        -7.0692       4.518138


  Species O                   :

  List of atomic basis orbitals and eigenvalues:
    n    l      energy [Ha]    energy [eV]    outer radius [A]
    1    0       -18.898188      -514.2459       1.415765
    2    0        -0.878505       -23.9053       4.413171
    2    1        -0.331779        -9.0282       4.522403

  Assembling full basis from fixed parts.
  | Species H :   atomic orbital   1 s accepted.
  | Species H :    hydro orbital   2 s accepted.
  | Species H :    hydro orbital   2 p accepted.
  | Species C :   atomic orbital   1 s accepted.
  | Species C :    hydro orbital   2 s accepted.
  | Species C :   atomic orbital   2 s accepted.
  | Species C :   atomic orbital   2 p accepted.
  | Species C :    hydro orbital   2 p accepted.
  | Species C :    hydro orbital   3 d accepted.
  | Species N :   atomic orbital   1 s accepted.
  | Species N :    hydro orbital   3 s accepted.
  | Species N :   atomic orbital   2 s accepted.
  | Species N :   atomic orbital   2 p accepted.
  | Species N :    hydro orbital   2 p accepted.
  | Species N :    hydro orbital   3 d accepted.
  | Species O :   atomic orbital   1 s accepted.
  | Species O :    hydro orbital   3 s accepted.
  | Species O :   atomic orbital   2 s accepted.
  | Species O :   atomic orbital   2 p accepted.
  | Species O :    hydro orbital   2 p accepted.
  | Species O :    hydro orbital   3 d accepted.
 
  Basis size parameters after reduction:
  | Total number of radial functions:       21
  | Total number of basis functions :      119
 
  Per-task memory consumption for arrays in subroutine allocate_ext:
  |           5.250512MB.
  Testing on-site integration grid accuracy.
  |  Species  Function  <phi|h_atom|phi> (log., in eV)  <phi|h_atom|phi> (rad., in eV)
           1        1                 -6.4663192853                 -6.4651273558
           1        2                 13.7111246313                 13.7170609718
           1        3                 25.2673269279                 25.2674696378
           2        4               -273.1705927641               -273.1705631568
           2        5                -10.7109323383                -10.7107120029
           2        6                 17.4381822266                 17.4352413244
           2        7                 -5.2255326521                 -5.2270484734
           2        8                  8.6835629259                  8.6603288385
           2        9                 27.4952418996                 27.4953360207
           3       10               -384.4424306495               -384.4423701208
           3       11                 12.5842251816                 12.5842222903
           3       12                -15.7264628251                -15.7264433455
           3       13                 -7.0696854293                 -7.0701769954
           3       14                  8.8090390882                  8.7901077751
           3       15                 35.9586762123                 35.9588528632
           4       16               -514.2458688638               -514.2457643834
           4       17                 15.1795651126                 15.1795290741
           4       18                -21.5359799773                -21.5360846186
           4       19                 -9.0283069236                 -9.0284644067
           4       20                  8.3027758564                  8.2834874195
           4       21                 45.8339351984                 45.8338762259

  Preparing densities etc. for the partition functions (integrals / Hartree potential).

  Preparations completed.
  max(cpu_time)          :      0.144 s.
  Wall clock time (cpu1) :      0.145 s.
------------------------------------------------------------

------------------------------------------------------------
          Begin self-consistency loop: Initialization.

          Date     :  20200805, Time     :  182613.621
------------------------------------------------------------

  Initializing index lists of integration centers etc. from given atomic structure:
  | Number of centers in hartree potential         :        13
  | Number of centers in hartree multipole         :        13
  | Number of centers in electron density summation:        13
  | Number of centers in basis integrals           :        13
  | Number of centers in integrals                 :        13
  | Number of centers in hamiltonian               :        13
  Partitioning the integration grid into batches with parallel hashing+maxmin method.
  | Number of batches:      955
  | Maximal batch size:     139
  | Minimal batch size:      66
  | Average batch size:      72.928
  | Standard deviation of batch sizes:      17.643

  Integration load balanced across     1 MPI tasks.
  Work distribution over tasks is as follows:
  Task     0 has      69646 integration points.
  Initializing partition tables, free-atom densities, potentials, etc. across the integration grid (initialize_grid_storage).
  | initialize_grid_storage: Actual outermost partition radius vs. multipole_radius_free
  | (-- VB: in principle, multipole_radius_free should be larger, hence this output)
  | Species        1: Confinement radius =              4.999999999999999 AA, multipole_radius_free =              5.054417573612229 AA.
  | Species        1: outer_partition_radius set to              5.054417573612229 AA .
  | Species        2: Confinement radius =              4.999999999999999 AA, multipole_radius_free =              5.019602836301480 AA.
  | Species        2: outer_partition_radius set to              5.019602836301480 AA .
  | Species        3: Confinement radius =              4.999999999999999 AA, multipole_radius_free =              5.043624274424571 AA.
  | Species        3: outer_partition_radius set to              5.043624274424571 AA .
  | Species        4: Confinement radius =              4.999999999999999 AA, multipole_radius_free =              5.048384829883283 AA.
  | Species        4: outer_partition_radius set to              5.048384829883283 AA .
  | Original list of interatomic distances with          13 x         13 entries is created.
  | Net number of integration points:    69646
  | of which are non-zero points    :    59461
  Renormalizing the initial density to the exact electron count on the 3D integration grid.
  | Initial density: Formal number of electrons (from input files) :      48.0000000000
  | Integrated number of electrons on 3D grid     :      48.0001156158
  | Charge integration error                      :       0.0001156158
  | Normalization factor for density and gradient :       0.9999975913
  Obtaining max. number of non-zero basis functions in each batch (get_n_compute_maxes).
  | Maximal number of non-zero basis functions:      119 in task     0
  Selecting the method for density update.
  Loop over occupied states selected for charge density update.
  Allocating        0.050 MB for KS_eigenvector
  Integrating Hamiltonian matrix: batch-based integration.
  Time summed over all CPUs for integration: real work        0.492 s, elapsed        0.492 s
  Integrating overlap matrix.
  Time summed over all CPUs for integration: real work        0.210 s, elapsed        0.210 s

  Updating Kohn-Sham eigenvalues and eigenvectors using ELSI and the ELPA eigensolver.
  Overlap matrix is nonsingular
  | Lowest eigenvalue of overlap  :  0.36E-02
  | Highest eigenvalue of overlap :  0.63E+01
  Finished singularity check of overlap matrix
  | Time :     0.002 s
  Finished Cholesky decomposition
  | Time :     0.000 s
  Finished transformation to standard eigenproblem
  | Time :     0.000 s
  Starting LAPACK eigensolver
  Finished solving standard eigenproblem
  | Time :     0.002 s
  Finished back-transformation of eigenvectors
  | Time :     0.000 s

  Obtaining occupation numbers and chemical potential using ELSI.
  | Chemical potential (Fermi level):    -9.72820680eV
  Writing Kohn-Sham eigenvalues.

  State    Occupation    Eigenvalue [Ha]    Eigenvalue [eV]
      1       2.00000         -19.008292         -517.24195
      2       2.00000         -18.977132         -516.39403
      3       2.00000         -14.246741         -387.67356
      4       2.00000         -10.166591         -276.64702
      5       2.00000         -10.141766         -275.97149
      6       2.00000         -10.132123         -275.70909
      7       2.00000          -1.183480          -32.20412
      8       2.00000          -1.102106          -29.98982
      9       2.00000          -0.992920          -27.01874
     10       2.00000          -0.862513          -23.47018
     11       2.00000          -0.751348          -20.44523
     12       2.00000          -0.684695          -18.63149
     13       2.00000          -0.650077          -17.68949
     14       2.00000          -0.606805          -16.51201
     15       2.00000          -0.572502          -15.57858
     16       2.00000          -0.562646          -15.31039
     17       2.00000          -0.558979          -15.21058
     18       2.00000          -0.522560          -14.21957
     19       2.00000          -0.518922          -14.12058
     20       2.00000          -0.507399          -13.80702
     21       2.00000          -0.471511          -12.83046
     22       2.00000          -0.428453          -11.65880
     23       2.00000          -0.402124          -10.94236
     24       2.00000          -0.391567          -10.65507
     25       0.00000          -0.153321           -4.17209
     26       0.00000          -0.083079           -2.26070
     27       0.00000          -0.034913           -0.95002
     28       0.00000          -0.026562           -0.72279
     29       0.00000           0.002875            0.07822
     30       0.00000           0.014677            0.39938
     31       0.00000           0.020189            0.54936
     32       0.00000           0.032687            0.88946
     33       0.00000           0.061439            1.67185
     34       0.00000           0.068805            1.87227
     35       0.00000           0.113823            3.09727
     36       0.00000           0.139362            3.79224
     37       0.00000           0.164797            4.48436
     38       0.00000           0.200987            5.46914
     39       0.00000           0.215541            5.86516
     40       0.00000           0.220617            6.00329
     41       0.00000           0.248955            6.77440
     42       0.00000           0.271409            7.38541
     43       0.00000           0.291451            7.93079
     44       0.00000           0.311928            8.48799
     45       0.00000           0.337193            9.17548
     46       0.00000           0.352090            9.58087
     47       0.00000           0.358499            9.75526
     48       0.00000           0.404605           11.00986
     49       0.00000           0.417824           11.36956
     50       0.00000           0.478447           13.01921
     51       0.00000           0.500547           13.62057
     52       0.00000           0.537050           14.61387
     53       0.00000           0.559747           15.23149

  Highest occupied state (VBM) at    -10.65506673 eV
  | Occupation number:      2.00000000

  Lowest unoccupied state (CBM) at    -4.17208681 eV
  | Occupation number:      0.00000000

  Overall HOMO-LUMO gap:      6.48297992 eV.
  Calculating total energy contributions from superposition of free atom densities.

  Total energy components:
  | Sum of eigenvalues            :        -188.88650339 Ha       -5139.86327055 eV
  | XC energy correction          :         -41.81149038 Ha       -1137.74854117 eV
  | XC potential correction       :          53.75111924 Ha        1462.64237285 eV
  | Free-atom electrostatic energy:        -146.79915991 Ha       -3994.60838457 eV
  | Hartree energy correction     :           0.00000000 Ha           0.00000000 eV
  | vdW energy correction         :           0.00000000 Ha           0.00000000 eV
  | Entropy correction            :           0.00000000 Ha           0.00000000 eV
  | ---------------------------
  | Total energy                  :        -323.74603444 Ha       -8809.57782344 eV
  | Total energy, T -> 0          :        -323.74603444 Ha       -8809.57782344 eV  <-- do not rely on this value for anything but (periodic) metals
  | Electronic free energy        :        -323.74603444 Ha       -8809.57782344 eV

  Derived energy quantities:
  | Kinetic energy                :         320.55472476 Ha        8722.73786862 eV
  | Electrostatic energy          :        -602.48926882 Ha      -16394.56715089 eV
  | Energy correction for multipole
  | error in Hartree potential    :           0.00000000 Ha           0.00000000 eV
  | Sum of eigenvalues per atom                           :        -395.37409773 eV
  | Total energy (T->0) per atom                          :        -677.65983257 eV  <-- do not rely on this value for anything but (periodic) metals
  | Electronic free energy per atom                       :        -677.65983257 eV
  Initialize hartree_potential_storage
  Max. number of atoms included in rho_multipole:           13

  End scf initialization - timings             :  max(cpu_time)    wall_clock(cpu1)
  | Time for scf. initialization               :        1.147 s           1.148 s
  | Boundary condition initialization          :        0.000 s           0.000 s
  | Integration                                :        0.703 s           0.703 s
  | Solution of K.-S. eqns.                    :        0.004 s           0.004 s
  | Grid partitioning                          :        0.113 s           0.113 s
  | Preloading free-atom quantities on grid    :        0.002 s           0.003 s
  | Free-atom superposition energy             :        0.085 s           0.084 s
  | Total energy evaluation                    :        0.000 s           0.001 s

  Partial memory accounting:
  | Current value for overall tracked memory usage on task 0  :           0.165 MB
  | Peak value for overall tracked memory usage on task 0     :           0.678 MB after allocating wave
  | Largest tracked array allocation on task 0 so far         :           0.132 MB  when allocating H_times_psi
  Note:  These values currently only include a subset of arrays which are explicitly tracked.
  The "true" memory usage will be greater.
------------------------------------------------------------

------------------------------------------------------------
          Begin self-consistency iteration #    1

  Date     :  20200805, Time     :  182614.769
------------------------------------------------------------
  Evaluating new KS density.
  Integration grid: deviation in total charge (<rho> - N_e) =  -7.105427E-14
  Pulay mixing of updated and previous charge densities.

  Evaluating partitioned Hartree potential by multipole expansion.
  | Analytical far-field extrapolation by fixed multipoles:
  | Hartree multipole sum: apparent total charge =   0.813810E-05
  Summing up the Hartree potential.
  Time summed over all CPUs for potential: real work        0.280 s, elapsed        0.280 s
  | RMS charge density error from multipole expansion :   0.592903E-02

  Integrating Hamiltonian matrix: batch-based integration.
  Time summed over all CPUs for integration: real work        0.492 s, elapsed        0.492 s

  Updating Kohn-Sham eigenvalues and eigenvectors using ELSI and the ELPA eigensolver.
  Finished Cholesky decomposition
  | Time :     0.000 s
  Finished transformation to standard eigenproblem
  | Time :     0.000 s
  Starting LAPACK eigensolver
  Finished solving standard eigenproblem
  | Time :     0.001 s
  Finished back-transformation of eigenvectors
  | Time :     0.000 s

  Obtaining occupation numbers and chemical potential using ELSI.
  | Chemical potential (Fermi level):    -4.62997105eV
  Writing Kohn-Sham eigenvalues.

  State    Occupation    Eigenvalue [Ha]    Eigenvalue [eV]
      1       2.00000         -18.910416         -514.57860
      2       2.00000         -18.833224         -512.47811
      3       2.00000         -14.108926         -383.92342
      4       2.00000         -10.117197         -275.30293
      5       2.00000         -10.067507         -273.95080
      6       2.00000         -10.029431         -272.91470
      7       2.00000          -1.137603          -30.95575
      8       2.00000          -1.038386          -28.25591
      9       2.00000          -0.931504          -25.34751
     10       2.00000          -0.798772          -21.73570
     11       2.00000          -0.700197          -19.05332
     12       2.00000          -0.644982          -17.55086
     13       2.00000          -0.600372          -16.33696
     14       2.00000          -0.548912          -14.93665
     15       2.00000          -0.522034          -14.20526
     16       2.00000          -0.508236          -13.82982
     17       2.00000          -0.492733          -13.40796
     18       2.00000          -0.462500          -12.58526
     19       2.00000          -0.461065          -12.54620
     20       2.00000          -0.446119          -12.13952
     21       2.00000          -0.417260          -11.35421
     22       2.00000          -0.369823          -10.06339
     23       2.00000          -0.333163           -9.06583
     24       2.00000          -0.321259           -8.74189
     25       0.00000          -0.116771           -3.17751
     26       0.00000          -0.064533           -1.75603
     27       0.00000          -0.009311           -0.25336
     28       0.00000           0.014577            0.39665
     29       0.00000           0.038889            1.05822
     30       0.00000           0.047208            1.28460
     31       0.00000           0.059368            1.61549
     32       0.00000           0.074119            2.01688
     33       0.00000           0.099609            2.71049
     34       0.00000           0.105208            2.86286
     35       0.00000           0.140793            3.83117
     36       0.00000           0.164602            4.47905
     37       0.00000           0.187178            5.09337
     38       0.00000           0.229322            6.24018
     39       0.00000           0.248233            6.75475
     40       0.00000           0.252291            6.86520
     41       0.00000           0.278835            7.58748
     42       0.00000           0.308738            8.40119
     43       0.00000           0.328475            8.93827
     44       0.00000           0.348650            9.48726
     45       0.00000           0.370161           10.07260
     46       0.00000           0.385640           10.49381
     47       0.00000           0.402012           10.93930
     48       0.00000           0.438450           11.93084
     49       0.00000           0.451841           12.29521
     50       0.00000           0.510615           13.89455
     51       0.00000           0.536256           14.59228
     52       0.00000           0.566815           15.42383
     53       0.00000           0.591651           16.09965

  Highest occupied state (VBM) at     -8.74189207 eV
  | Occupation number:      2.00000000

  Lowest unoccupied state (CBM) at    -3.17750863 eV
  | Occupation number:      0.00000000

  Overall HOMO-LUMO gap:      5.56438344 eV.

  Total energy components:
  | Sum of eigenvalues            :        -185.60324164 Ha       -5050.52117269 eV
  | XC energy correction          :         -42.13268693 Ha       -1146.48874415 eV
  | XC potential correction       :          54.16872240 Ha        1474.00593303 eV
  | Free-atom electrostatic energy:        -146.79915991 Ha       -3994.60838457 eV
  | Hartree energy correction     :          -3.20110897 Ha         -87.10660709 eV
  | vdW energy correction         :           0.00000000 Ha           0.00000000 eV
  | Entropy correction            :           0.00000000 Ha           0.00000000 eV
  | ---------------------------
  | Total energy                  :        -323.56747506 Ha       -8804.71897547 eV
  | Total energy, T -> 0          :        -323.56747506 Ha       -8804.71897547 eV  <-- do not rely on this value for anything but (periodic) metals
  | Electronic free energy        :        -323.56747506 Ha       -8804.71897547 eV

  Derived energy quantities:
  | Kinetic energy                :         322.30868846 Ha        8770.46564942 eV
  | Electrostatic energy          :        -603.74347659 Ha      -16428.69588073 eV
  | Energy correction for multipole
  | error in Hartree potential    :           0.01239783 Ha           0.33736200 eV
  | Sum of eigenvalues per atom                           :        -388.50162867 eV
  | Total energy (T->0) per atom                          :        -677.28607504 eV  <-- do not rely on this value for anything but (periodic) metals
  | Electronic free energy per atom                       :        -677.28607504 eV

  Self-consistency convergence accuracy:
  | Change of charge density      :  0.5787E+00
  | Change of sum of eigenvalues  :  0.8934E+02 eV
  | Change of total energy        :  0.4859E+01 eV

  End self-consistency iteration #     1       :  max(cpu_time)    wall_clock(cpu1)
  | Time for this iteration                    :        1.182 s           1.183 s
  | Charge density update                      :        0.393 s           0.393 s
  | Density mixing                             :        0.005 s           0.005 s
  | Hartree multipole update                   :        0.009 s           0.009 s
  | Hartree multipole summation                :        0.281 s           0.281 s
  | Integration                                :        0.492 s           0.492 s
  | Solution of K.-S. eqns.                    :        0.002 s           0.002 s
  | Total energy evaluation                    :        0.000 s           0.000 s

  Partial memory accounting:
  | Current value for overall tracked memory usage on task 0  :           0.165 MB
  | Peak value for overall tracked memory usage on task 0     :           0.695 MB after allocating gradient_basis_wave
  | Largest tracked array allocation on task 0 so far         :           0.397 MB  when allocating gradient_basis_wave
  Note:  These values currently only include a subset of arrays which are explicitly tracked.
  The "true" memory usage will be greater.
------------------------------------------------------------

------------------------------------------------------------
          Begin self-consistency iteration #    2

  Date     :  20200805, Time     :  182615.952
------------------------------------------------------------
  Evaluating new KS density.
  Integration grid: deviation in total charge (<rho> - N_e) =  -1.421085E-14
  Pulay mixing of updated and previous charge densities.

  Evaluating partitioned Hartree potential by multipole expansion.
  | Analytical far-field extrapolation by fixed multipoles:
  | Hartree multipole sum: apparent total charge =  -0.127197E-03
  Summing up the Hartree potential.
  Time summed over all CPUs for potential: real work        0.280 s, elapsed        0.280 s
  | RMS charge density error from multipole expansion :   0.140397E-01

  Integrating Hamiltonian matrix: batch-based integration.
  Time summed over all CPUs for integration: real work        0.492 s, elapsed        0.492 s

  Updating Kohn-Sham eigenvalues and eigenvectors using ELSI and the ELPA eigensolver.
  Finished Cholesky decomposition
  | Time :     0.000 s
  Finished transformation to standard eigenproblem
  | Time :     0.000 s
  Starting LAPACK eigensolver
  Finished solving standard eigenproblem
  | Time :     0.002 s
  Finished back-transformation of eigenvectors
  | Time :     0.000 s

  Obtaining occupation numbers and chemical potential using ELSI.
  | Chemical potential (Fermi level):    -3.53816314eV
  Highest occupied state (VBM) at     -6.88893015 eV
  | Occupation number:      2.00000000

  Lowest unoccupied state (CBM) at    -1.92178094 eV
  | Occupation number:      0.00000000

  Overall HOMO-LUMO gap:      4.96714921 eV.

  Checking to see if s.c.f. parameters should be adjusted.

  Total energy components:
  | Sum of eigenvalues            :        -182.18471946 Ha       -4957.49845121 eV
  | XC energy correction          :         -42.48028180 Ha       -1155.94728185 eV
  | XC potential correction       :          54.61900338 Ha        1486.25870196 eV
  | Free-atom electrostatic energy:        -146.79915991 Ha       -3994.60838457 eV
  | Hartree energy correction     :          -6.64667803 Ha        -180.86531150 eV
  | vdW energy correction         :           0.00000000 Ha           0.00000000 eV
  | Entropy correction            :           0.00000000 Ha           0.00000000 eV
  | ---------------------------
  | Total energy                  :        -323.49183582 Ha       -8802.66072717 eV
  | Total energy, T -> 0          :        -323.49183582 Ha       -8802.66072717 eV  <-- do not rely on this value for anything but (periodic) metals
  | Electronic free energy        :        -323.49183582 Ha       -8802.66072717 eV

  Derived energy quantities:
  | Kinetic energy                :         323.58853763 Ha        8805.29211715 eV
  | Electrostatic energy          :        -604.60009164 Ha      -16452.00556247 eV
  | Energy correction for multipole
  | error in Hartree potential    :           0.02723929 Ha           0.74121883 eV
  | Sum of eigenvalues per atom                           :        -381.34603471 eV
  | Total energy (T->0) per atom                          :        -677.12774824 eV  <-- do not rely on this value for anything but (periodic) metals
  | Electronic free energy per atom                       :        -677.12774824 eV

  Self-consistency convergence accuracy:
  | Change of charge density      :  0.3622E+00
  | Change of sum of eigenvalues  :  0.9302E+02 eV
  | Change of total energy        :  0.2058E+01 eV

  End self-consistency iteration #     2       :  max(cpu_time)    wall_clock(cpu1)
  | Time for this iteration                    :        1.176 s           1.177 s
  | Charge density update                      :        0.386 s           0.386 s
  | Density mixing                             :        0.007 s           0.007 s
  | Hartree multipole update                   :        0.009 s           0.009 s
  | Hartree multipole summation                :        0.280 s           0.280 s
  | Integration                                :        0.492 s           0.493 s
  | Solution of K.-S. eqns.                    :        0.002 s           0.002 s
  | Total energy evaluation                    :        0.000 s           0.000 s

  Partial memory accounting:
  | Current value for overall tracked memory usage on task 0  :           0.166 MB
  | Peak value for overall tracked memory usage on task 0     :           0.695 MB after allocating gradient_basis_wave
  | Largest tracked array allocation on task 0 so far         :           0.397 MB  when allocating gradient_basis_wave
  Note:  These values currently only include a subset of arrays which are explicitly tracked.
  The "true" memory usage will be greater.
------------------------------------------------------------

------------------------------------------------------------
          Begin self-consistency iteration #    3

  Date     :  20200805, Time     :  182617.130
------------------------------------------------------------
  Evaluating new KS density.
  Integration grid: deviation in total charge (<rho> - N_e) =   0.000000E+00
  Pulay mixing of updated and previous charge densities.

  Evaluating partitioned Hartree potential by multipole expansion.
  | Analytical far-field extrapolation by fixed multipoles:
  | Hartree multipole sum: apparent total charge =  -0.225418E-03
  Summing up the Hartree potential.
  Time summed over all CPUs for potential: real work        0.280 s, elapsed        0.280 s
  | RMS charge density error from multipole expansion :   0.223213E-01

  Integrating Hamiltonian matrix: batch-based integration.
  Time summed over all CPUs for integration: real work        0.499 s, elapsed        0.499 s

  Updating Kohn-Sham eigenvalues and eigenvectors using ELSI and the ELPA eigensolver.
  Finished Cholesky decomposition
  | Time :     0.000 s
  Finished transformation to standard eigenproblem
  | Time :     0.000 s
  Starting LAPACK eigensolver
  Finished solving standard eigenproblem
  | Time :     0.001 s
  Finished back-transformation of eigenvectors
  | Time :     0.000 s

  Obtaining occupation numbers and chemical potential using ELSI.
  | Chemical potential (Fermi level):    -2.97704489eV
  Highest occupied state (VBM) at     -6.26550762 eV
  | Occupation number:      2.00000000

  Lowest unoccupied state (CBM) at    -1.21300647 eV
  | Occupation number:      0.00000000

  Overall HOMO-LUMO gap:      5.05250115 eV.

  Total energy components:
  | Sum of eigenvalues            :        -180.84459862 Ha       -4921.03190781 eV
  | XC energy correction          :         -42.63756311 Ha       -1160.22712401 eV
  | XC potential correction       :          54.81941021 Ha        1491.71204928 eV
  | Free-atom electrostatic energy:        -146.79915991 Ha       -3994.60838457 eV
  | Hartree energy correction     :          -8.01725431 Ha        -218.16058974 eV
  | vdW energy correction         :           0.00000000 Ha           0.00000000 eV
  | Entropy correction            :           0.00000000 Ha           0.00000000 eV
  | ---------------------------
  | Total energy                  :        -323.47916575 Ha       -8802.31595684 eV
  | Total energy, T -> 0          :        -323.47916575 Ha       -8802.31595684 eV  <-- do not rely on this value for anything but (periodic) metals
  | Electronic free energy        :        -323.47916575 Ha       -8802.31595684 eV

  Derived energy quantities:
  | Kinetic energy                :         323.23905547 Ha        8795.78222376 eV
  | Electrostatic energy          :        -604.08065810 Ha      -16437.87105659 eV
  | Energy correction for multipole
  | error in Hartree potential    :           0.03896963 Ha           1.06041759 eV
  | Sum of eigenvalues per atom                           :        -378.54091599 eV
  | Total energy (T->0) per atom                          :        -677.10122745 eV  <-- do not rely on this value for anything but (periodic) metals
  | Electronic free energy per atom                       :        -677.10122745 eV

  Self-consistency convergence accuracy:
  | Change of charge density      :  0.2044E+00
  | Change of sum of eigenvalues  :  0.3647E+02 eV
  | Change of total energy        :  0.3448E+00 eV

  End self-consistency iteration #     3       :  max(cpu_time)    wall_clock(cpu1)
  | Time for this iteration                    :        1.178 s           1.184 s
  | Charge density update                      :        0.386 s           0.386 s
  | Density mixing                             :        0.008 s           0.008 s
  | Hartree multipole update                   :        0.009 s           0.009 s
  | Hartree multipole summation                :        0.280 s           0.280 s
  | Integration                                :        0.492 s           0.499 s
  | Solution of K.-S. eqns.                    :        0.002 s           0.002 s
  | Total energy evaluation                    :        0.000 s           0.000 s

  Partial memory accounting:
  | Current value for overall tracked memory usage on task 0  :           0.166 MB
  | Peak value for overall tracked memory usage on task 0     :           0.695 MB after allocating gradient_basis_wave
  | Largest tracked array allocation on task 0 so far         :           0.397 MB  when allocating gradient_basis_wave
  Note:  These values currently only include a subset of arrays which are explicitly tracked.
  The "true" memory usage will be greater.
------------------------------------------------------------

------------------------------------------------------------
          Begin self-consistency iteration #    4

  Date     :  20200805, Time     :  182618.315
------------------------------------------------------------
  Evaluating new KS density.
  Integration grid: deviation in total charge (<rho> - N_e) =  -2.842171E-14
  Pulay mixing of updated and previous charge densities.

  Evaluating partitioned Hartree potential by multipole expansion.
  | Analytical far-field extrapolation by fixed multipoles:
  | Hartree multipole sum: apparent total charge =  -0.256546E-03
  Summing up the Hartree potential.
  Time summed over all CPUs for potential: real work        0.280 s, elapsed        0.280 s
  | RMS charge density error from multipole expansion :   0.257761E-01

  Integrating Hamiltonian matrix: batch-based integration.
  Time summed over all CPUs for integration: real work        0.492 s, elapsed        0.492 s

  Updating Kohn-Sham eigenvalues and eigenvectors using ELSI and the ELPA eigensolver.
  Finished Cholesky decomposition
  | Time :     0.000 s
  Finished transformation to standard eigenproblem
  | Time :     0.000 s
  Starting LAPACK eigensolver
  Finished solving standard eigenproblem
  | Time :     0.002 s
  Finished back-transformation of eigenvectors
  | Time :     0.000 s

  Obtaining occupation numbers and chemical potential using ELSI.
  | Chemical potential (Fermi level):    -2.90308297eV
  Highest occupied state (VBM) at     -6.03972938 eV
  | Occupation number:      2.00000000

  Lowest unoccupied state (CBM) at    -1.13400270 eV
  | Occupation number:      0.00000000

  Overall HOMO-LUMO gap:      4.90572669 eV.

  Total energy components:
  | Sum of eigenvalues            :        -180.74091145 Ha       -4918.21043644 eV
  | XC energy correction          :         -42.67311605 Ha       -1161.19456852 eV
  | XC potential correction       :          54.86389026 Ha        1492.92241305 eV
  | Free-atom electrostatic energy:        -146.79915991 Ha       -3994.60838457 eV
  | Hartree energy correction     :          -8.12892838 Ha        -221.19939559 eV
  | vdW energy correction         :           0.00000000 Ha           0.00000000 eV
  | Entropy correction            :           0.00000000 Ha           0.00000000 eV
  | ---------------------------
  | Total energy                  :        -323.47822552 Ha       -8802.29037207 eV
  | Total energy, T -> 0          :        -323.47822552 Ha       -8802.29037207 eV  <-- do not rely on this value for anything but (periodic) metals
  | Electronic free energy        :        -323.47822552 Ha       -8802.29037207 eV

  Derived energy quantities:
  | Kinetic energy                :         322.85748436 Ha        8785.39914570 eV
  | Electrostatic energy          :        -603.66259384 Ha      -16426.49494924 eV
  | Energy correction for multipole
  | error in Hartree potential    :           0.04329048 Ha           1.17799381 eV
  | Sum of eigenvalues per atom                           :        -378.32387973 eV
  | Total energy (T->0) per atom                          :        -677.09925939 eV  <-- do not rely on this value for anything but (periodic) metals
  | Electronic free energy per atom                       :        -677.09925939 eV

  Self-consistency convergence accuracy:
  | Change of charge density      :  0.6581E-01
  | Change of sum of eigenvalues  :  0.2821E+01 eV
  | Change of total energy        :  0.2558E-01 eV

  End self-consistency iteration #     4       :  max(cpu_time)    wall_clock(cpu1)
  | Time for this iteration                    :        1.179 s           1.180 s
  | Charge density update                      :        0.386 s           0.386 s
  | Density mixing                             :        0.009 s           0.009 s
  | Hartree multipole update                   :        0.009 s           0.009 s
  | Hartree multipole summation                :        0.280 s           0.280 s
  | Integration                                :        0.492 s           0.493 s
  | Solution of K.-S. eqns.                    :        0.002 s           0.002 s
  | Total energy evaluation                    :        0.000 s           0.001 s

  Partial memory accounting:
  | Current value for overall tracked memory usage on task 0  :           0.166 MB
  | Peak value for overall tracked memory usage on task 0     :           0.696 MB after allocating gradient_basis_wave
  | Largest tracked array allocation on task 0 so far         :           0.397 MB  when allocating gradient_basis_wave
  Note:  These values currently only include a subset of arrays which are explicitly tracked.
  The "true" memory usage will be greater.
------------------------------------------------------------

------------------------------------------------------------
          Begin self-consistency iteration #    5

  Date     :  20200805, Time     :  182619.495
------------------------------------------------------------
  Evaluating new KS density.
  Integration grid: deviation in total charge (<rho> - N_e) =  -2.131628E-14
  Pulay mixing of updated and previous charge densities.

  Evaluating partitioned Hartree potential by multipole expansion.
  | Analytical far-field extrapolation by fixed multipoles:
  | Hartree multipole sum: apparent total charge =  -0.251229E-03
  Summing up the Hartree potential.
  Time summed over all CPUs for potential: real work        0.280 s, elapsed        0.280 s
  | RMS charge density error from multipole expansion :   0.255405E-01

  Integrating Hamiltonian matrix: batch-based integration.
  Time summed over all CPUs for integration: real work        0.492 s, elapsed        0.492 s

  Updating Kohn-Sham eigenvalues and eigenvectors using ELSI and the ELPA eigensolver.
  Finished Cholesky decomposition
  | Time :     0.000 s
  Finished transformation to standard eigenproblem
  | Time :     0.000 s
  Starting LAPACK eigensolver
  Finished solving standard eigenproblem
  | Time :     0.001 s
  Finished back-transformation of eigenvectors
  | Time :     0.000 s

  Obtaining occupation numbers and chemical potential using ELSI.
  | Chemical potential (Fermi level):    -2.94588374eV
  Highest occupied state (VBM) at     -6.15450424 eV
  | Occupation number:      2.00000000

  Lowest unoccupied state (CBM) at    -1.20671147 eV
  | Occupation number:      0.00000000

  Overall HOMO-LUMO gap:      4.94779276 eV.

  Total energy components:
  | Sum of eigenvalues            :        -180.90029149 Ha       -4922.54738788 eV
  | XC energy correction          :         -42.65256127 Ha       -1160.63524473 eV
  | XC potential correction       :          54.83724042 Ha        1492.19723401 eV
  | Free-atom electrostatic energy:        -146.79915991 Ha       -3994.60838457 eV
  | Hartree energy correction     :          -7.96315264 Ha        -216.68840822 eV
  | vdW energy correction         :           0.00000000 Ha           0.00000000 eV
  | Entropy correction            :           0.00000000 Ha           0.00000000 eV
  | ---------------------------
  | Total energy                  :        -323.47792489 Ha       -8802.28219139 eV
  | Total energy, T -> 0          :        -323.47792489 Ha       -8802.28219139 eV  <-- do not rely on this value for anything but (periodic) metals
  | Electronic free energy        :        -323.47792489 Ha       -8802.28219139 eV

  Derived energy quantities:
  | Kinetic energy                :         322.76482423 Ha        8782.87773515 eV
  | Electrostatic energy          :        -603.59018784 Ha      -16424.52468181 eV
  | Energy correction for multipole
  | error in Hartree potential    :           0.04267459 Ha           1.16123468 eV
  | Sum of eigenvalues per atom                           :        -378.65749138 eV
  | Total energy (T->0) per atom                          :        -677.09863011 eV  <-- do not rely on this value for anything but (periodic) metals
  | Electronic free energy per atom                       :        -677.09863011 eV

  Self-consistency convergence accuracy:
  | Change of charge density      :  0.2210E-01
  | Change of sum of eigenvalues  : -0.4337E+01 eV
  | Change of total energy        :  0.8181E-02 eV

  End self-consistency iteration #     5       :  max(cpu_time)    wall_clock(cpu1)
  | Time for this iteration                    :        1.180 s           1.182 s
  | Charge density update                      :        0.386 s           0.386 s
  | Density mixing                             :        0.011 s           0.011 s
  | Hartree multipole update                   :        0.009 s           0.009 s
  | Hartree multipole summation                :        0.280 s           0.280 s
  | Integration                                :        0.492 s           0.493 s
  | Solution of K.-S. eqns.                    :        0.002 s           0.002 s
  | Total energy evaluation                    :        0.000 s           0.000 s

  Partial memory accounting:
  | Current value for overall tracked memory usage on task 0  :           0.166 MB
  | Peak value for overall tracked memory usage on task 0     :           0.696 MB after allocating gradient_basis_wave
  | Largest tracked array allocation on task 0 so far         :           0.397 MB  when allocating gradient_basis_wave
  Note:  These values currently only include a subset of arrays which are explicitly tracked.
  The "true" memory usage will be greater.
------------------------------------------------------------

------------------------------------------------------------
          Begin self-consistency iteration #    6

  Date     :  20200805, Time     :  182620.677
------------------------------------------------------------
  Evaluating new KS density.
  Integration grid: deviation in total charge (<rho> - N_e) =  -1.421085E-14
  Pulay mixing of updated and previous charge densities.

  Evaluating partitioned Hartree potential by multipole expansion.
  | Analytical far-field extrapolation by fixed multipoles:
  | Hartree multipole sum: apparent total charge =  -0.253514E-03
  Summing up the Hartree potential.
  Time summed over all CPUs for potential: real work        0.280 s, elapsed        0.280 s
  | RMS charge density error from multipole expansion :   0.259207E-01

  Integrating Hamiltonian matrix: batch-based integration.
  Time summed over all CPUs for integration: real work        0.492 s, elapsed        0.492 s

  Updating Kohn-Sham eigenvalues and eigenvectors using ELSI and the ELPA eigensolver.
  Finished Cholesky decomposition
  | Time :     0.000 s
  Finished transformation to standard eigenproblem
  | Time :     0.000 s
  Starting LAPACK eigensolver
  Finished solving standard eigenproblem
  | Time :     0.002 s
  Finished back-transformation of eigenvectors
  | Time :     0.000 s

  Obtaining occupation numbers and chemical potential using ELSI.
  | Chemical potential (Fermi level):    -2.95205837eV
  Highest occupied state (VBM) at     -6.15273447 eV
  | Occupation number:      2.00000000

  Lowest unoccupied state (CBM) at    -1.23618993 eV
  | Occupation number:      0.00000000

  Overall HOMO-LUMO gap:      4.91654454 eV.

  Total energy components:
  | Sum of eigenvalues            :        -180.93822075 Ha       -4923.57949550 eV
  | XC energy correction          :         -42.64764128 Ha       -1160.50136499 eV
  | XC potential correction       :          54.83081207 Ha        1492.02230961 eV
  | Free-atom electrostatic energy:        -146.79915991 Ha       -3994.60838457 eV
  | Hartree energy correction     :          -7.92365004 Ha        -215.61348795 eV
  | vdW energy correction         :           0.00000000 Ha           0.00000000 eV
  | Entropy correction            :           0.00000000 Ha           0.00000000 eV
  | ---------------------------
  | Total energy                  :        -323.47785992 Ha       -8802.28042339 eV
  | Total energy, T -> 0          :        -323.47785992 Ha       -8802.28042339 eV  <-- do not rely on this value for anything but (periodic) metals
  | Electronic free energy        :        -323.47785992 Ha       -8802.28042339 eV

  Derived energy quantities:
  | Kinetic energy                :         322.67071765 Ha        8780.31696475 eV
  | Electrostatic energy          :        -603.50093628 Ha      -16422.09602316 eV
  | Energy correction for multipole
  | error in Hartree potential    :           0.04291145 Ha           1.16767991 eV
  | Sum of eigenvalues per atom                           :        -378.73688427 eV
  | Total energy (T->0) per atom                          :        -677.09849411 eV  <-- do not rely on this value for anything but (periodic) metals
  | Electronic free energy per atom                       :        -677.09849411 eV

  Self-consistency convergence accuracy:
  | Change of charge density      :  0.1094E-01
  | Change of sum of eigenvalues  : -0.1032E+01 eV
  | Change of total energy        :  0.1768E-02 eV

  End self-consistency iteration #     6       :  max(cpu_time)    wall_clock(cpu1)
  | Time for this iteration                    :        1.181 s           1.182 s
  | Charge density update                      :        0.386 s           0.386 s
  | Density mixing                             :        0.012 s           0.012 s
  | Hartree multipole update                   :        0.009 s           0.009 s
  | Hartree multipole summation                :        0.280 s           0.280 s
  | Integration                                :        0.492 s           0.493 s
  | Solution of K.-S. eqns.                    :        0.002 s           0.002 s
  | Total energy evaluation                    :        0.000 s           0.000 s

  Partial memory accounting:
  | Current value for overall tracked memory usage on task 0  :           0.166 MB
  | Peak value for overall tracked memory usage on task 0     :           0.696 MB after allocating gradient_basis_wave
  | Largest tracked array allocation on task 0 so far         :           0.397 MB  when allocating gradient_basis_wave
  Note:  These values currently only include a subset of arrays which are explicitly tracked.
  The "true" memory usage will be greater.
------------------------------------------------------------

------------------------------------------------------------
          Begin self-consistency iteration #    7

  Date     :  20200805, Time     :  182621.860
------------------------------------------------------------
  Evaluating new KS density.
  Integration grid: deviation in total charge (<rho> - N_e) =   2.131628E-14
  Pulay mixing of updated and previous charge densities.

  Evaluating partitioned Hartree potential by multipole expansion.
  | Analytical far-field extrapolation by fixed multipoles:
  | Hartree multipole sum: apparent total charge =  -0.254708E-03
  Summing up the Hartree potential.
  Time summed over all CPUs for potential: real work        0.280 s, elapsed        0.280 s
  | RMS charge density error from multipole expansion :   0.260692E-01

  Integrating Hamiltonian matrix: batch-based integration.
  Time summed over all CPUs for integration: real work        0.492 s, elapsed        0.492 s

  Updating Kohn-Sham eigenvalues and eigenvectors using ELSI and the ELPA eigensolver.
  Finished Cholesky decomposition
  | Time :     0.000 s
  Finished transformation to standard eigenproblem
  | Time :     0.000 s
  Starting LAPACK eigensolver
  Finished solving standard eigenproblem
  | Time :     0.001 s
  Finished back-transformation of eigenvectors
  | Time :     0.000 s

[...]
  |   Hirshfeld dipole moment :      0.05858207
  |   Hirshfeld second moments:      0.01196247      -0.02636608      -0.01372151
  |                                 -0.02636608      -0.02481609       0.00492740
  |                                 -0.01372151       0.00492740      -0.01945099
  ----------------------------------------------------------------------
  | Atom    12: O
  |   Hirshfeld charge        :     -0.13810056
  |   Free atom volume        :     23.61338643
  |   Hirshfeld volume        :     20.97948716
  |   Hirshfeld dipole vector :      0.02047199       0.03488252      -0.00911707
  |   Hirshfeld dipole moment :      0.04146099
  |   Hirshfeld second moments:      0.05284278      -0.01229171      -0.00854952
  |                                 -0.01229171       0.03638012       0.02379052
  |                                 -0.00854952       0.02379052       0.08496136
  ----------------------------------------------------------------------
  | Atom    13: H
  |   Hirshfeld charge        :      0.14453643
  |   Free atom volume        :      9.95071624
  |   Hirshfeld volume        :      6.63427170
  |   Hirshfeld dipole vector :      0.03678615      -0.02491340      -0.08470644
  |   Hirshfeld dipole moment :      0.09565082
  |   Hirshfeld second moments:      0.11433733      -0.01043195       0.00929840
  |                                 -0.01043195       0.08406923       0.02551325
  |                                  0.00929840       0.02551325       0.09685822
  ----------------------------------------------------------------------


  Total energy components:
  | Sum of eigenvalues            :        -180.92881107 Ha       -4923.32344513 eV
  | XC energy correction          :         -42.64568422 Ha       -1160.44811050 eV
  | XC potential correction       :          54.82834612 Ha        1491.95520766 eV
  | Free-atom electrostatic energy:        -146.79915991 Ha       -3994.60838457 eV
  | Hartree energy correction     :          -7.93253271 Ha        -215.85519770 eV
  | vdW energy correction         :          -0.00322337 Ha          -0.08771223 eV
  | Entropy correction            :           0.00000000 Ha           0.00000000 eV
  | ---------------------------
  | Total energy                  :        -323.48106516 Ha       -8802.36764247 eV
  | Total energy, T -> 0          :        -323.48106516 Ha       -8802.36764247 eV  <-- do not rely on this value for anything but (periodic) metals
  | Electronic free energy        :        -323.48106516 Ha       -8802.36764247 eV

  Derived energy quantities:
  | Kinetic energy                :         322.63510920 Ha        8779.34800951 eV
  | Electrostatic energy          :        -603.46726677 Ha      -16421.17982926 eV
  | Energy correction for multipole
  | error in Hartree potential    :           0.04300508 Ha           1.17022768 eV
  | Sum of eigenvalues per atom                           :        -378.71718809 eV
  | Total energy (T->0) per atom                          :        -677.10520327 eV  <-- do not rely on this value for anything but (periodic) metals
  | Electronic free energy per atom                       :        -677.10520327 eV

  atomic forces [eV/Ang]:
  -----------------------
  atom #    1
   Hellmann-Feynman              :  0.105487E+01  0.136860E+00  0.137497E+01
   Ionic forces                  :  0.000000E+00  0.000000E+00  0.000000E+00
   Multipole                     :  0.224679E+00  0.139374E+00 -0.246661E+00
   Pulay + GGA                   : -0.133232E+01  0.180295E-01 -0.137810E+01
   Van der Waals                 :  0.188081E-02  0.163190E-02 -0.931599E-03
   ----------------------------------------------------------------
   Total forces(   1)            : -0.508880E-01  0.295895E+00 -0.250720E+00
  atom #    2
   Hellmann-Feynman              :  0.366596E+00  0.251760E-01  0.201706E+00
   Ionic forces                  :  0.000000E+00  0.000000E+00  0.000000E+00
   Multipole                     :  0.151765E+00  0.107694E-01 -0.113546E-01
   Pulay + GGA                   : -0.124344E+00  0.561205E-02  0.407009E-01
   Van der Waals                 :  0.893328E-02 -0.262509E-02 -0.295406E-02
   ----------------------------------------------------------------
   Total forces(   2)            :  0.402951E+00  0.389323E-01  0.228099E+00
  atom #    3
   Hellmann-Feynman              : -0.991019E+01  0.703018E+01  0.443736E+00
   Ionic forces                  :  0.000000E+00  0.000000E+00  0.000000E+00
   Multipole                     : -0.797145E-01  0.826434E-01 -0.880614E+00
   Pulay + GGA                   :  0.100345E+02 -0.680607E+01  0.105746E+01
   Van der Waals                 :  0.354531E-02 -0.477828E-02 -0.857192E-02
   ----------------------------------------------------------------
   Total forces(   3)            :  0.481014E-01  0.301978E+00  0.612009E+00
  atom #    4
   Hellmann-Feynman              :  0.882838E-01 -0.222049E+00 -0.197649E+00
   Ionic forces                  :  0.000000E+00  0.000000E+00  0.000000E+00
   Multipole                     :  0.413996E-01  0.445294E-02 -0.112503E+00
   Pulay + GGA                   : -0.201039E+00 -0.868000E-03  0.121976E+00
   Van der Waals                 : -0.319404E-02 -0.328751E-02  0.361374E-02
   ----------------------------------------------------------------
   Total forces(   4)            : -0.745496E-01 -0.221751E+00 -0.184562E+00
  atom #    5
   Hellmann-Feynman              :  0.883657E-01  0.114933E+00 -0.813174E+00
   Ionic forces                  :  0.000000E+00  0.000000E+00  0.000000E+00
   Multipole                     : -0.469390E-01 -0.255404E-02 -0.139066E+00
   Pulay + GGA                   : -0.831649E-01  0.345144E+00 -0.131717E-01
   Van der Waals                 : -0.277853E-02  0.337050E-02  0.121658E-02
   ----------------------------------------------------------------
   Total forces(   5)            : -0.445167E-01  0.460893E+00 -0.964195E+00
  atom #    6
   Hellmann-Feynman              : -0.246187E+00 -0.392072E+00  0.523837E+00
   Ionic forces                  :  0.000000E+00  0.000000E+00  0.000000E+00
   Multipole                     : -0.118590E+00  0.634627E+00  0.254117E+00
   Pulay + GGA                   :  0.436168E+00 -0.616391E+00 -0.656783E+00
   Van der Waals                 : -0.435537E-02  0.298734E-02 -0.342292E-02
   ----------------------------------------------------------------
   Total forces(   6)            :  0.670352E-01 -0.370849E+00  0.117748E+00
  atom #    7
   Hellmann-Feynman              : -0.189581E+00 -0.564911E-01 -0.665974E-01
   Ionic forces                  :  0.000000E+00  0.000000E+00  0.000000E+00
   Multipole                     : -0.122473E+00  0.499796E-01  0.277946E-01
   Pulay + GGA                   :  0.122689E+00 -0.229373E-02 -0.229666E-01
   Van der Waals                 : -0.934129E-03  0.964783E-03  0.267419E-02
   ----------------------------------------------------------------
   Total forces(   7)            : -0.190300E+00 -0.784043E-02 -0.590952E-01
  atom #    8
   Hellmann-Feynman              :  0.118942E+00 -0.483451E-01  0.124988E+00
   Ionic forces                  :  0.000000E+00  0.000000E+00  0.000000E+00
   Multipole                     :  0.130643E-01  0.624268E-01  0.126340E+00
   Pulay + GGA                   : -0.449103E-01 -0.402614E-01 -0.866159E-01
   Van der Waals                 : -0.253289E-02  0.114172E-01  0.146191E-02
   ----------------------------------------------------------------
   Total forces(   8)            :  0.845629E-01 -0.147625E-01  0.166174E+00
  atom #    9
   Hellmann-Feynman              :  0.107788E+00  0.354558E-01 -0.187802E+00
   Ionic forces                  :  0.000000E+00  0.000000E+00  0.000000E+00
   Multipole                     :  0.145315E-01  0.125886E+00 -0.110631E-01
   Pulay + GGA                   : -0.582209E-01 -0.724708E-01  0.544504E-01
   Van der Waals                 : -0.172158E-02  0.240923E-02  0.270163E-02
   ----------------------------------------------------------------
   Total forces(   9)            :  0.623768E-01  0.912800E-01 -0.141713E+00
  atom #   10
   Hellmann-Feynman              :  0.300606E+01  0.413329E+01  0.195540E+01
   Ionic forces                  :  0.000000E+00  0.000000E+00  0.000000E+00
   Multipole                     :  0.566180E-01 -0.573145E-01  0.235632E+00
   Pulay + GGA                   : -0.189643E+01 -0.251268E+01 -0.163290E-01
   Van der Waals                 :  0.361038E-02 -0.107951E-01 -0.173312E-02
   ----------------------------------------------------------------
   Total forces(  10)            :  0.116985E+01  0.155249E+01  0.217297E+01
  atom #   11
   Hellmann-Feynman              :  0.413722E+01 -0.247031E+01  0.141209E+02
   Ionic forces                  :  0.000000E+00  0.000000E+00  0.000000E+00
   Multipole                     :  0.276139E+00 -0.620201E+00  0.742645E+00
   Pulay + GGA                   : -0.400468E+01  0.389701E+01 -0.138356E+02
   Van der Waals                 : -0.226594E-02 -0.113090E-01  0.675838E-02
   ----------------------------------------------------------------
   Total forces(  11)            :  0.406410E+00  0.795193E+00  0.103467E+01
  atom #   12
   Hellmann-Feynman              : -0.104551E+02 -0.104966E+02  0.212528E+01
   Ionic forces                  :  0.000000E+00  0.000000E+00  0.000000E+00
   Multipole                     : -0.745927E+00 -0.172435E+01 -0.574697E-01
   Pulay + GGA                   :  0.100247E+02  0.101318E+02 -0.398236E+01
   Van der Waals                 :  0.108922E-02  0.673417E-02  0.376248E-02
   ----------------------------------------------------------------
   Total forces(  12)            : -0.117524E+01 -0.208241E+01 -0.191078E+01
  atom #   13
   Hellmann-Feynman              : -0.620244E+00 -0.720244E+00 -0.121771E+01
   Ionic forces                  :  0.000000E+00  0.000000E+00  0.000000E+00
   Multipole                     :  0.929687E-01 -0.334171E-01 -0.494740E-01
   Pulay + GGA                   : -0.176262E+00 -0.899366E-01  0.443710E+00
   Van der Waals                 : -0.127653E-02  0.327986E-02 -0.457530E-02
   ----------------------------------------------------------------
   Total forces(  13)            : -0.704814E+00 -0.840318E+00 -0.828054E+00

  Timings for VdW correction (Tkatchenko-Scheffler 2009 or later):
  | CPU time:        0.090 s, Wall clock time:        0.090 s.
  Removing unitary transformations (pure translations, rotations) from forces on atoms.
  Atomic forces before filtering:
  | Net force on center of mass :   0.977614E-03 -0.126204E-02 -0.745641E-02 eV/A
  | Net torque on center of mass:   0.454451E-02  0.196132E-02  0.178000E-02 eV
  Atomic forces after filtering:
  | Net force on center of mass :   0.535218E-15  0.178406E-15  0.892031E-15 eV/A
  | Net torque on center of mass:   0.755268E-15 -0.944085E-16  0.000000E+00 eV

  Energy and forces in a compact form:
  | Total energy uncorrected      :         -0.880236764246911E+04 eV
  | Total energy corrected        :         -0.880236764246911E+04 eV  <-- do not rely on this value for anything but (periodic) metals
  | Electronic free energy        :         -0.880236764246911E+04 eV
  Total atomic forces (unitary forces cleaned) [eV/Ang]:
  |   1         -0.509522542794610E-01          0.295964803094604E+00         -0.250125577860774E+00
  |   2          0.402886519371914E+00          0.389226073864198E-01          0.228805790598182E+00
  |   3          0.481821288818980E-01          0.301921409346409E+00          0.612555076274860E+00
  |   4         -0.743813933770171E-01         -0.221930591127501E+00         -0.183981047493996E+00
  |   5         -0.444781881896492E-01          0.460823456852087E+00         -0.963564605385695E+00
  |   6          0.669879533499208E-01         -0.370660059882018E+00          0.118147426450982E+00
  |   7         -0.190346534018085E+00         -0.757010385139866E-02         -0.588105501821230E-01
  |   8          0.844107252065993E-01         -0.144819236958761E-01          0.166609561318068E+00
  |   9          0.624467622783190E-01          0.913850767992548E-01         -0.141379061027396E+00
  |  10          0.116961821428947E+01          0.155267762235761E+01          0.217366772101944E+01
  |  11          0.406038499092069E+00          0.795485740787535E+00          0.103543241990827E+01
  |  12         -0.117547111361003E+01         -0.208224833551154E+01         -0.191005514927154E+01
  |  13         -0.704941318995941E+00         -0.840289702555578E+00         -0.827302004348286E+00

  ------------------------------------ 
  Start decomposition of the XC Energy 
  ------------------------------------ 
  X and C from original XC functional choice 
  Hartree-Fock Energy :          0.000000000 Ha              0.000000000 eV
  X Energy            :        -41.043179853 Ha          -1116.841748072 eV
  C Energy            :         -1.602504365 Ha            -43.606362427 eV
  Total XC Energy     :        -42.645684217 Ha          -1160.448110499 eV
  ------------------------------------ 
  LDA X and C from self-consistent density 
  X Energy LDA        :        -37.264080978 Ha          -1014.007235530 eV
  C Energy LDA        :         -3.139336092 Ha            -85.425681471 eV
  ------------------------------------ 
  End decomposition of the XC Energy 
  ------------------------------------ 

------------------------------------------------------------

------------------------------------------------------------------------------
  Final output of selected total energy values:

  The following output summarizes some interesting total energy values
  at the end of a run (AFTER all relaxation, molecular dynamics, etc.).

  | Total energy of the DFT / Hartree-Fock s.c.f. calculation      :          -8802.367642469 eV
  | Final zero-broadening corrected energy (caution - metals only) :          -8802.367642469 eV
  | For reference only, the value of 1 Hartree used in FHI-aims is :             27.211384500 eV

  Before relying on these values, please be sure to understand exactly which
  total energy value is referred to by a given number. Different objects may
  all carry the same name 'total energy'. Definitions:

  Total energy of the DFT / Hartree-Fock s.c.f. calculation:
  | Note that this energy does not include ANY quantities calculated after the
  | s.c.f. cycle, in particular not ANY RPA, MP2, etc. many-body perturbation terms.

  Final zero-broadening corrected energy:
  | For metallic systems only, a broadening of the occupation numbers at the Fermi
  | level can be extrapolated back to zero broadening by an electron-gas inspired
  | formula. For all systems that are not real metals, this value can be
  | meaningless and should be avoided.

------------------------------------------------------------------------------
  Methods described in the following list of references were used in this FHI-aims run.
  If you publish the results, please make sure to cite these reference if they apply.
  FHI-aims is an academic code, and for our developers (often, Ph.D. students
  and postdocs), scientific credit in the community is essential.
  Thank you for helping us!

  For any use of FHI-aims, please cite:

    Volker Blum, Ralf Gehrke, Felix Hanke, Paula Havu, Ville Havu,
    Xinguo Ren, Karsten Reuter, and Matthias Scheffler
    'Ab initio molecular simulations with numeric atom-centered orbitals'
    Computer Physics Communications 180, 2175-2196 (2009)
    http://dx.doi.org/10.1016/j.cpc.2009.06.022


  The scalable eigensolver library ELPA was used in your run.
  ELPA is essential especially for large systems on hundreds or thousands of CPUs.
  For ELPA, please cite:

    Andreas Marek, Volker Blum, Rainer Johanni, Ville Havu, Bruno Lang,
    Thomas Auckenthaler, Alexander Heinecke, Hans-Joachim Bungartz, and Hermann Lederer,
    'The ELPA Library - Scalable Parallel Eigenvalue Solutions
    for Electronic Structure Theory and Computational Science'
    The Journal of Physics: Condensed Matter 26, 213201 (2014).
    http://dx.doi.org/10.1088/0953-8984/26/21/213201


  The ELSI infrastructure was used in your run to solve the Kohn-Sham electronic structure.
  Please check out http://elsi-interchange.org to learn more.
  If scalability is important for your project, please acknowledge ELSI by citing:

    V. W-z. Yu, F. Corsetti, A. Garcia, W. P. Huhn, M. Jacquelin, W. Jia,
    B. Lange, L. Lin, J. Lu, W. Mi, A. Seifitokaldani, A. Vazquez-Mayagoitia,
    C. Yang, H. Yang, and V. Blum
    'ELSI: A unified software interface for Kohn-Sham electronic structure solvers'
    Computer Physics Communications 222, 267-285 (2018).
    http://dx.doi.org/10.1016/j.cpc.2017.09.007


  For the real-space grid partitioning and parallelization used in this calculation, please cite:

    Ville Havu, Volker Blum, Paula Havu, and Matthias Scheffler,
    'Efficient O(N) integration for all-electron electronic structure calculation'
    'using numerically tabulated basis functions'
    Journal of Computational Physics 228, 8367-8379 (2009).
    http://dx.doi.org/10.1016/j.jcp.2009.08.008

  Of course, there are many other important community references, e.g., those cited in the
  above references. Our list is limited to references that describe implementations in the
  FHI-aims code. The reason is purely practical (length of this list) - please credit others as well.

------------------------------------------------------------
          Leaving FHI-aims.
          Date     :  20200805, Time     :  182636.117

          Computational steps:
          | Number of self-consistency cycles          :           16
          | Number of SCF (re)initializations          :            1

          Detailed time accounting                     :  max(cpu_time)    wall_clock(cpu1)
          | Total time                                 :       22.614 s          22.654 s
          | Preparation time                           :        0.144 s           0.145 s
          | Boundary condition initalization           :        0.000 s           0.000 s
          | Grid partitioning                          :        0.113 s           0.113 s
          | Preloading free-atom quantities on grid    :        0.002 s           0.003 s
          | Free-atom superposition energy             :        0.085 s           0.084 s
          | Total time for integrations                :        8.580 s           8.591 s
          | Total time for solution of K.-S. equations :        0.037 s           0.038 s
          | Total time for density & force components  :        7.122 s           7.134 s
          | Total time for mixing                      :        0.215 s           0.215 s
          | Total time for Hartree multipole update    :        0.141 s           0.143 s
          | Total time for Hartree multipole sum       :        5.778 s           5.779 s
          | Total time for total energy evaluation     :        0.003 s           0.004 s
          | Total time for vdW correction              :        0.090 s           0.090 s

          Partial memory accounting:
          | Residual value for overall tracked memory usage across tasks :           0.000 MB (should be 0.000 MB)
          | Peak values for overall tracked memory usage (after allocating hessian_basis_wave):
          |   Minimum:        1.622 MB (on task 1)
          |   Maximum:        1.622 MB (on task 1)
          |   Average:        1.622 MB
          | Largest tracked array allocation (hessian_basis_wave):
          |   Minimum:        0.794 MB (on task 1)
          |   Maximum:        0.794 MB (on task 1)
          |   Average:        0.794 MB
          Note:  These values currently only include a subset of arrays which are explicitly tracked.
          The "true" memory usage will be greater.

          Have a nice day.
------------------------------------------------------------
