  MPI-parallelism will be employed.
------------------------------------------------------------
          Invoking FHI-aims ...
          Version 171221_1
          Compiled on 2019/09/09 at 14:39:39 on host puhti-login2.bullx.

          When using FHI-aims, please cite the following reference:

          Volker Blum, Ralf Gehrke, Felix Hanke, Paula Havu,
          Ville Havu, Xinguo Ren, Karsten Reuter, and Matthias Scheffler,
          'Ab Initio Molecular Simulations with Numeric Atom-Centered Orbitals',
          Computer Physics Communications 180, 2175-2196 (2009)

          For any questions about FHI-aims, please visit the aimsclub website
          with its forums and wiki. Contributions to both the forums and the
          wiki are warmly encouraged - they are for you, and everyone is welcome there.

------------------------------------------------------------



  Date     :  20200710, Time     :  152450.139
  Time zero on CPU 1             :   0.172720000000000E-01  s.
  Internal wall clock time zero  :           363626690.139  s.

  FHI-aims created a unique identifier for this run for later identification
  aims_uuid : C7E8C19D-9925-465E-A666-89AD69DC838E

  Using        1 parallel tasks.
  Task        0 on host r18c44.bullx reporting.

  Performing system and environment tests:
  | Environment variable OMP_NUM_THREADS correctly set to 1.
  | Stacksize not measured: no C compiler
  | Checking for scalapack...
  | Testing pdtran()...
  | All pdtran() tests passed.

  Obtaining array dimensions for all initial allocations:
  
  -----------------------------------------------------------------------
  Parsing control.in (first pass over file, find array dimensions only).
  The contents of control.in will be repeated verbatim below
  unless switched off by setting 'verbatim_writeout .false.' .
  in the first line of control.in .
  -----------------------------------------------------------------------
  
  #########################################################################################
  #
  #  Volker Blum, FHI 2009 : Test run input file control.in for simple H2O
  #
  #########################################################################################
  #
  #  Physical model
  #
    xc                 pbe
    vdw_correction_hirshfeld
    spin               none
    relativistic       none
    charge             0.
  #
  #  SCF convergence
  #
    occupation_type    gaussian 0.01
    mixer              pulay
      n_max_pulay        10
      charge_mix_param   0.2
    sc_accuracy_rho    1E-5
    sc_accuracy_eev    1E-3
    sc_accuracy_etot   1E-6
    sc_accuracy_forces 1E-4
    sc_iter_limit      100
  #
  #  Relaxation
  #
  #  relax_geometry   bfgs 1.e-3
  #
  ################################################################################
  #
  #  FHI-aims code project
  #  VB, Fritz-Haber Institut, 2009
  #
  #  Suggested "light" defaults for H atom (to be pasted into control.in file)
  #  Be sure to double-check any results obtained with these settings for post-processing,
  #  e.g., with the "tight" defaults and larger basis sets.
  #
  ################################################################################
    species        H
  #     global species definitions
      nucleus             1
      mass                1.00794
  #
      l_hartree           4
  #
      cut_pot             3.5  1.5  1.0
      basis_dep_cutoff    1e-4
  #
      radial_base         24 5.0
      radial_multiplier   1
      angular_grids       specified
        division   0.2421   50
        division   0.3822  110
        division   0.4799  194
        division   0.5341  302
  #      division   0.5626  434
  #      division   0.5922  590
  #      division   0.6542  770
  #      division   0.6868 1202
  #      outer_grid  770
        outer_grid  302
  ################################################################################
  #
  #  Definition of "minimal" basis
  #
  ################################################################################
  #     valence basis states
      valence      1  s   1.
  #     ion occupancy
      ion_occ      1  s   0.5
  ################################################################################
  #
  #  Suggested additional basis functions. For production calculations,
  #  uncomment them one after another (the most important basis functions are
  #  listed first).
  #
  #  Basis constructed for dimers: 0.5 A, 0.7 A, 1.0 A, 1.5 A, 2.5 A
  #
  ################################################################################
  #  "First tier" - improvements: -1014.90 meV to -62.69 meV
       hydro 2 s 2.1
       hydro 2 p 3.5
  #  "Second tier" - improvements: -12.89 meV to -1.83 meV
  #     hydro 1 s 0.85
  #     hydro 2 p 3.7
  #     hydro 2 s 1.2
  #     hydro 3 d 7
  #  "Third tier" - improvements: -0.25 meV to -0.12 meV
  #     hydro 4 f 11.2
  #     hydro 3 p 4.8
  #     hydro 4 d 9
  #     hydro 3 s 3.2
  ################################################################################
  #
  #  FHI-aims code project
  #  VB, Fritz-Haber Institut, 2009
  #
  #  Suggested "light" defaults for C atom (to be pasted into control.in file)
  #  Be sure to double-check any results obtained with these settings for post-processing,
  #  e.g., with the "tight" defaults and larger basis sets.
  #
  ################################################################################
    species        C
  #     global species definitions
      nucleus             6
      mass                12.0107
  #
      l_hartree           4
  #
      cut_pot             3.5  1.5  1.0
      basis_dep_cutoff    1e-4
  #
      radial_base         34 5.0
      radial_multiplier   1
      angular_grids specified
        division   0.3326   50
        division   0.5710  110
        division   0.7727  194
        division   0.8772  302
  #      division   0.9334  434
  #      division   0.9625  590
  #      division   0.9924  770
  #      division   1.0230  974
  #      division   1.4589 1202
  #     outer_grid  974
       outer_grid 302
  ################################################################################
  #
  #  Definition of "minimal" basis
  #
  ################################################################################
  #     valence basis states
      valence      2  s   2.
      valence      2  p   2.
  #     ion occupancy
      ion_occ      2  s   1.
      ion_occ      2  p   1.
  ################################################################################
  #
  #  Suggested additional basis functions. For production calculations,
  #  uncomment them one after another (the most important basis functions are
  #  listed first).
  #
  #  Constructed for dimers: 1.0 A, 1.25 A, 1.5 A, 2.0 A, 3.0 A
  #
  ################################################################################
  #  "First tier" - improvements: -1214.57 meV to -155.61 meV
       hydro 2 p 1.7
       hydro 3 d 6
       hydro 2 s 4.9
  #  "Second tier" - improvements: -67.75 meV to -5.23 meV
  #     hydro 4 f 9.8
  #     hydro 3 p 5.2
  #     hydro 3 s 4.3
  #     hydro 5 g 14.4
  #     hydro 3 d 6.2
  #  "Third tier" - improvements: -2.43 meV to -0.60 meV
  #     hydro 2 p 5.6
  #     hydro 2 s 1.4
  #     hydro 3 d 4.9
  #     hydro 4 f 11.2
  #  "Fourth tier" - improvements: -0.39 meV to -0.18 meV
  #     hydro 2 p 2.1
  #     hydro 5 g 16.4
  #     hydro 4 d 13.2
  #     hydro 3 s 13.6
  #     hydro 4 f 17.6
  #  Further basis functions - improvements: -0.08 meV and below
  #     hydro 3 s 2
  #     hydro 3 p 6
  #     hydro 4 d 20
  ################################################################################
  #
  #  FHI-aims code project
  #  VB, Fritz-Haber Institut, 2009
  #
  #  Suggested "light" defaults for N atom (to be pasted into control.in file)
  #  Be sure to double-check any results obtained with these settings for post-processing,
  #  e.g., with the "tight" defaults and larger basis sets.
  #
  ################################################################################
    species        N
  #     global species definitions
      nucleus             7
      mass                14.0067
  #
      l_hartree           4
  #
      cut_pot             3.5  1.5  1.0
      basis_dep_cutoff    1e-4
  #
      radial_base         35 5.0
      radial_multiplier   1
      angular_grids       specified
        division   0.2599   50
        division   0.4601  110
        division   0.5885  194
        division   0.6503  302
  #      division   0.6939  434
  #      division   0.7396  590
  #      division   0.7632  770
  #      division   0.8122  974
  #      division   1.1604 1202
  #      outer_grid  974
        outer_grid  302
  ################################################################################
  #
  #  Definition of "minimal" basis
  #
  ################################################################################
  #     valence basis states
      valence      2  s   2.
      valence      2  p   3.
  #     ion occupancy
      ion_occ      2  s   1.
      ion_occ      2  p   2.
  ################################################################################
  #
  #  Suggested additional basis functions. For production calculations,
  #  uncomment them one after another (the most important basis functions are
  #  listed first).
  #
  #  Constructed for dimers: 1.0 A, 1.1 A, 1.5 A, 2.0 A, 3.0 A
  #
  ################################################################################
  #  "First tier" - improvements: -1193.42 meV to -220.60 meV
       hydro 2 p 1.8
       hydro 3 d 6.8
       hydro 3 s 5.8
  #  "Second tier" - improvements: -80.21 meV to -6.86 meV
  #     hydro 4 f 10.8
  #     hydro 3 p 5.8
  #     hydro 1 s 0.8
  #     hydro 5 g 16
  #     hydro 3 d 4.9
  #  "Third tier" - improvements: -4.29 meV to -0.53 meV
  #     hydro 3 s 16
  #     ionic 2 p auto
  #     hydro 3 d 6.6
  #     hydro 4 f 11.6
  #  "Fourth tier" - improvements: -0.75 meV to -0.25 meV
  #     hydro 2 p 4.5
  #     hydro 2 s 2.4
  #     hydro 5 g 14.4
  #     hydro 4 d 14.4
  #     hydro 4 f 16.8
  # Further basis functions - -0.21 meV and below
  #     hydro 3 p 14.8
  #     hydro 3 s 4.4
  #     hydro 3 d 19.6
  #     hydro 5 g 12.8
  ################################################################################
  #
  #  FHI-aims code project
  #  VB, Fritz-Haber Institut, 2009
  #
  #  Suggested "light" defaults for O atom (to be pasted into control.in file)
  #  Be sure to double-check any results obtained with these settings for post-processing,
  #  e.g., with the "tight" defaults and larger basis sets.
  #
  ################################################################################
    species        O
  #     global species definitions
      nucleus             8
      mass                15.9994
  #
      l_hartree           4
  #
      cut_pot             3.5  1.5  1.0
      basis_dep_cutoff    1e-4
  #
      radial_base         36 5.0
      radial_multiplier   1
       angular_grids specified
        division   0.2659   50
        division   0.4451  110
        division   0.6052  194
        division   0.7543  302
  #      division   0.8014  434
  #      division   0.8507  590
  #      division   0.8762  770
  #      division   0.9023  974
  #      division   1.2339 1202
  #      outer_grid 974
        outer_grid 302
  ################################################################################
  #
  #  Definition of "minimal" basis
  #
  ################################################################################
  #     valence basis states
      valence      2  s   2.
      valence      2  p   4.
  #     ion occupancy
      ion_occ      2  s   1.
      ion_occ      2  p   3.
  ################################################################################
  #
  #  Suggested additional basis functions. For production calculations,
  #  uncomment them one after another (the most important basis functions are
  #  listed first).
  #
  #  Constructed for dimers: 1.0 A, 1.208 A, 1.5 A, 2.0 A, 3.0 A
  #
  ################################################################################
  #  "First tier" - improvements: -699.05 meV to -159.38 meV
       hydro 2 p 1.8
       hydro 3 d 7.6
       hydro 3 s 6.4
  #  "Second tier" - improvements: -49.91 meV to -5.39 meV
  #     hydro 4 f 11.6
  #     hydro 3 p 6.2
  #     hydro 3 d 5.6
  #     hydro 5 g 17.6
  #     hydro 1 s 0.75
  #  "Third tier" - improvements: -2.83 meV to -0.50 meV
  #     ionic 2 p auto
  #     hydro 4 f 10.8
  #     hydro 4 d 4.7
  #     hydro 2 s 6.8
  #  "Fourth tier" - improvements: -0.40 meV to -0.12 meV
  #     hydro 3 p 5
  #     hydro 3 s 3.3
  #     hydro 5 g 15.6
  #     hydro 4 f 17.6
  #     hydro 4 d 14
  # Further basis functions - -0.08 meV and below
  #     hydro 3 s 2.1
  #     hydro 4 d 11.6
  #     hydro 3 p 16
  #     hydro 2 s 17.2
  
  -----------------------------------------------------------------------
  Completed first pass over input file control.in .
  -----------------------------------------------------------------------
  
  
  -----------------------------------------------------------------------
  Parsing geometry.in (first pass over file, find array dimensions only).
  The contents of geometry.in will be repeated verbatim below
  unless switched off by setting 'verbatim_writeout .false.' .
  in the first line of geometry.in .
  -----------------------------------------------------------------------
  
  atom  0.00000 0.00000 0.00000 C
  atom  1.09300 0.00000 0.00000 H
  atom  -0.47961 0.00000 -1.41207 N
  atom  -0.27100 0.90831 -1.82836 H
  atom  0.00145 -0.73895 -1.92066 H
  atom  -0.49584 1.26211 0.72868 C
  atom  -1.58789 1.28919 0.74431 H
  atom  -0.13407 1.27425 1.75947 H
  atom  -0.13407 2.16087 0.22380 H
  atom  -0.39425 -1.28861 0.74398 C
  atom  -0.10189 -1.56493 1.88303 O
  atom  -1.10210 -2.13717 0.06896 O
  atom  -0.40870 -2.45097 -0.53578 H
  
  -----------------------------------------------------------------------
  Completed first pass over input file geometry.in .
  -----------------------------------------------------------------------
  

  Basic array size parameters:
  | Number of species                 :        4
  | Number of atoms                   :       13
  | Max. basis fn. angular momentum   :        2
  | Max. atomic/ionic basis occupied n:        2
  | Max. number of basis fn. types    :        2
  | Max. radial fns per species/type  :        3
  | Max. logarithmic grid size        :     1301
  | Max. radial integration grid size :       36
  | Max. angular integration grid size:      302
  | Max. angular grid division number :        8
  | Radial grid for Hartree potential :     1301
  | Number of spin channels           :        1

------------------------------------------------------------
          Reading file control.in.
------------------------------------------------------------
  XC: Using PBE gradient-corrected functionals.
  Spin treatment: No spin polarisation.
  Non-relativistic treatment of kinetic energy.
  Charge =   0.000000E+00: Neutral system requested explicitly.
  Occupation type: Gaussian broadening, width =   0.100000E-01 eV.
  Using pulay charge density mixing.
  Pulay mixing - number of memorized iterations:   10
  Charge density mixing - mixing parameter:     0.2000
  Convergence accuracy of self-consistent charge density:  0.1000E-04
  Convergence accuracy of sum of eigenvalues:  0.1000E-02
  Convergence accuracy of total energy:  0.1000E-05
  Convergence accuracy of forces:  0.1000E-03
  Maximum number of s.-c. iterations  :   100
 
  Reading configuration options for species H                   .
  | Found nuclear charge :   1.0000
  | Found atomic mass :    1.00794000000000      amu
  | Found l_max for Hartree potential  :   4
  | Found cutoff potl. onset [A], width [A], scale factor :    3.50000    1.50000    1.00000
  | Threshold for basis-dependent cutoff potential is   0.100000E-03
  | Found data for basic radial integration grid :    24 points, outermost radius =    5.000 A
  | Found multiplier for basic radial grid :   1
  | Found angular grid specification: user-specified.
  | Specified grid contains     5 separate shells.
  | Check grid settings after all constraints further below.
  | Found free-atom valence shell :  1 s   1.000
  | No ionic wave fns used. Skipping ion_occ.
  | Found hydrogenic basis function :  2 s   2.100
  | Found hydrogenic basis function :  2 p   3.500
  Species H                   : Missing cutoff potential type.
  Defaulting to exp(1/x)/(1-x)^2 type cutoff potential.
  Species H : No 'logarithmic' tag. Using default grid for free atom:
  | Default logarithmic grid data [bohr] : 0.1000E-03 0.1000E+03 0.1012E+01
  Species H : On-site basis accuracy parameter (for Gram-Schmidt orthonormalisation) not specified.
  Using default value basis_acc =  0.1000000E-03.
  Species H                   : Using default innermost maximum threshold i_radial=  2 for radial functions.
  Species H                   : Default cutoff onset for free atom density etc. : 0.35000000E+01 AA.
  Species H                   : Basic radial grid will be enhanced according to radial_multiplier =   1, to contain    24 grid points.
 
  Reading configuration options for species C                   .
  | Found nuclear charge :   6.0000
  | Found atomic mass :    12.0107000000000      amu
  | Found l_max for Hartree potential  :   4
  | Found cutoff potl. onset [A], width [A], scale factor :    3.50000    1.50000    1.00000
  | Threshold for basis-dependent cutoff potential is   0.100000E-03
  | Found data for basic radial integration grid :    34 points, outermost radius =    5.000 A
  | Found multiplier for basic radial grid :   1
  | Found angular grid specification: user-specified.
  | Specified grid contains     5 separate shells.
  | Check grid settings after all constraints further below.
  | Found free-atom valence shell :  2 s   2.000
  | Found free-atom valence shell :  2 p   2.000
  | No ionic wave fns used. Skipping ion_occ.
  | No ionic wave fns used. Skipping ion_occ.
  | Found hydrogenic basis function :  2 p   1.700
  | Found hydrogenic basis function :  3 d   6.000
  | Found hydrogenic basis function :  2 s   4.900
  Species C                   : Missing cutoff potential type.
  Defaulting to exp(1/x)/(1-x)^2 type cutoff potential.
  Species C : No 'logarithmic' tag. Using default grid for free atom:
  | Default logarithmic grid data [bohr] : 0.1000E-03 0.1000E+03 0.1012E+01
  Species C : On-site basis accuracy parameter (for Gram-Schmidt orthonormalisation) not specified.
  Using default value basis_acc =  0.1000000E-03.
  Species C                   : Using default innermost maximum threshold i_radial=  2 for radial functions.
  Species C                   : Default cutoff onset for free atom density etc. : 0.35000000E+01 AA.
  Species C                   : Basic radial grid will be enhanced according to radial_multiplier =   1, to contain    34 grid points.
 
  Reading configuration options for species N                   .
  | Found nuclear charge :   7.0000
  | Found atomic mass :    14.0067000000000      amu
  | Found l_max for Hartree potential  :   4
  | Found cutoff potl. onset [A], width [A], scale factor :    3.50000    1.50000    1.00000
  | Threshold for basis-dependent cutoff potential is   0.100000E-03
  | Found data for basic radial integration grid :    35 points, outermost radius =    5.000 A
  | Found multiplier for basic radial grid :   1
  | Found angular grid specification: user-specified.
  | Specified grid contains     5 separate shells.
  | Check grid settings after all constraints further below.
  | Found free-atom valence shell :  2 s   2.000
  | Found free-atom valence shell :  2 p   3.000
  | No ionic wave fns used. Skipping ion_occ.
  | No ionic wave fns used. Skipping ion_occ.
  | Found hydrogenic basis function :  2 p   1.800
  | Found hydrogenic basis function :  3 d   6.800
  | Found hydrogenic basis function :  3 s   5.800
  Species N                   : Missing cutoff potential type.
  Defaulting to exp(1/x)/(1-x)^2 type cutoff potential.
  Species N : No 'logarithmic' tag. Using default grid for free atom:
  | Default logarithmic grid data [bohr] : 0.1000E-03 0.1000E+03 0.1012E+01
  Species N : On-site basis accuracy parameter (for Gram-Schmidt orthonormalisation) not specified.
  Using default value basis_acc =  0.1000000E-03.
  Species N                   : Using default innermost maximum threshold i_radial=  2 for radial functions.
  Species N                   : Default cutoff onset for free atom density etc. : 0.35000000E+01 AA.
  Species N                   : Basic radial grid will be enhanced according to radial_multiplier =   1, to contain    35 grid points.
 
  Reading configuration options for species O                   .
  | Found nuclear charge :   8.0000
  | Found atomic mass :    15.9994000000000      amu
  | Found l_max for Hartree potential  :   4
  | Found cutoff potl. onset [A], width [A], scale factor :    3.50000    1.50000    1.00000
  | Threshold for basis-dependent cutoff potential is   0.100000E-03
  | Found data for basic radial integration grid :    36 points, outermost radius =    5.000 A
  | Found multiplier for basic radial grid :   1
  | Found angular grid specification: user-specified.
  | Specified grid contains     5 separate shells.
  | Check grid settings after all constraints further below.
  | Found free-atom valence shell :  2 s   2.000
  | Found free-atom valence shell :  2 p   4.000
  | No ionic wave fns used. Skipping ion_occ.
  | No ionic wave fns used. Skipping ion_occ.
  | Found hydrogenic basis function :  2 p   1.800
  | Found hydrogenic basis function :  3 d   7.600
  | Found hydrogenic basis function :  3 s   6.400
  Species O                   : Missing cutoff potential type.
  Defaulting to exp(1/x)/(1-x)^2 type cutoff potential.
  Species O : No 'logarithmic' tag. Using default grid for free atom:
  | Default logarithmic grid data [bohr] : 0.1000E-03 0.1000E+03 0.1012E+01
  Species O : On-site basis accuracy parameter (for Gram-Schmidt orthonormalisation) not specified.
  Using default value basis_acc =  0.1000000E-03.
  Species O                   : Using default innermost maximum threshold i_radial=  2 for radial functions.
  Species O                   : Default cutoff onset for free atom density etc. : 0.35000000E+01 AA.
  Species O                   : Basic radial grid will be enhanced according to radial_multiplier =   1, to contain    36 grid points.
 
  Finished reading input file 'control.in'. Consistency checks are next.
 
  MPI_IN_PLACE appears to work with this MPI implementation.
  | Keeping use_mpi_in_place .true. (see manual).
  Target number of points in a grid batch is not set. Defaulting to  100
  Method for grid partitioning is not set. Defaulting to parallel hash+maxmin partitioning.
  Batch size limit is not set. Defaulting to    200
  By default, will store active basis functions for each batch.
  If in need of memory, prune_basis_once .false. can be used to disable this option.
  communication_type for Hartree potential was not specified.
  Defaulting to calc_hartree .
  Pulay mixer: Number of initial linear mixing iterations not set.
  Defaulting to    0 iterations.
  Work space size for distributed Hartree potential not set.
  Defaulting to   0.200000E+03 MB.
  Algorithm-dependent basis array size parameters:
  | n_max_pulay                         :       10
  Presetting      1001 iterations before the initial mixing cycle
  is restarted anyway using the sc_init_iter criterion / keyword.
  Presetting a factor      1.000 between actual scf density residual
  and density convergence criterion sc_accuracy_rho below which sc_init_iter
  takes no effect.
  Geometry relaxation not requested: no relaxation will be performed.
  Handling of forces: Unphysical translation and rotation will be removed from forces.
  No accuracy limit for integral partition fn. given. Defaulting to  0.1000E-14.
  No threshold value for u(r) in integrations given. Defaulting to  0.1000E-05.
  No accuracy for occupation numbers given. Defaulting to  0.1000E-12.
  No threshold value for occupation numbers given. Defaulting to  0.0000E+00.
  No accuracy for fermi level given. Defaulting to  0.1000E-19.
  Maximum # of iterations to find E_F not set. Defaulting to  200.
  Preferred method for the eigenvalue solver ('KS_method') not specified in 'control.in'.
  Defaulting to serial version, 'lapack_fast'.
  Will not use alltoall communication since running on < 1024 CPUs.
  Threshold for basis singularities not set.
  Default threshold for basis singularities:  0.1000E-04
  partition_type (choice of integration weights) for integrals was not specified.
  | Using a version of the partition function of Stratmann and coworkers ('stratmann_smoother').
  | At each grid point, the set of atoms used to build the partition table is smoothly restricted to
  | only those atoms whose free-atom density would be non-zero at that grid point.
  Partitioning for Hartree potential was not defined. Using partition_type for integrals.
  | Adjusted default value of keyword multip_moments_threshold to:       0.10000000E-11
  | This value may affect high angular momentum components of the Hartree potential in periodic systems.
  No q(lm)/r^(l+1) cutoff set for long-range Hartree potential.
  | Using default value of  0.100000E-09 .
  | Verify using the multipole_threshold keyword.
  Defaulting to new monopole extrapolation.
  Density update method: automatic selection selected.
------------------------------------------------------------


------------------------------------------------------------
          Reading geometry description geometry.in.
------------------------------------------------------------
  Input structure read successfully.
  The structure contains       13 atoms,  and a total of         48.000 electrons.

  Input geometry:
  | No unit cell requested.
  | Atomic structure:
  |       Atom                x [A]            y [A]            z [A]
  |    1: Species C             0.00000000        0.00000000        0.00000000
  |    2: Species H             1.09300000        0.00000000        0.00000000
  |    3: Species N            -0.47961000        0.00000000       -1.41207000
  |    4: Species H            -0.27100000        0.90831000       -1.82836000
  |    5: Species H             0.00145000       -0.73895000       -1.92066000
  |    6: Species C            -0.49584000        1.26211000        0.72868000
  |    7: Species H            -1.58789000        1.28919000        0.74431000
  |    8: Species H            -0.13407000        1.27425000        1.75947000
  |    9: Species H            -0.13407000        2.16087000        0.22380000
  |   10: Species C            -0.39425000       -1.28861000        0.74398000
  |   11: Species O            -0.10189000       -1.56493000        1.88303000
  |   12: Species O            -1.10210000       -2.13717000        0.06896000
  |   13: Species H            -0.40870000       -2.45097000       -0.53578000
  |

  | The smallest distance between any two atoms is         0.97210312 AA.
  |
  | The first atom of this pair is atom number                     12 .
  | The second atom of this pair is atom number                    13 .

  Number of empty states per atom not set in control.in - providing a guess from actual geometry.
  | Total number of empty states used during s.c.f. cycle:       29
  If you use a very high smearing, use empty_states (per atom!) in control.in to increase this value.

  Structure-dependent array size parameters: 
  | Maximum number of distinct radial functions  :       21
  | Maximum number of basis functions            :      119
  | Number of Kohn-Sham states (occupied + empty):       53
------------------------------------------------------------

------------------------------------------------------------
          Preparing all fixed parts of the calculation.
------------------------------------------------------------
  Determining machine precision:
    2.225073858507201E-308
  Setting up grids for atomic and cluster calculations.

  Creating wave function, potential, and density for free atoms.

  Species: H

  List of occupied orbitals and eigenvalues:
    n    l              occ      energy [Ha]    energy [eV]
    1    0           1.0000        -0.237589        -6.4651


  Species: C

  List of occupied orbitals and eigenvalues:
    n    l              occ      energy [Ha]    energy [eV]
    1    0           2.0000       -10.038835      -273.1706
    2    0           2.0000        -0.502696       -13.6791
    2    1           2.0000        -0.191971        -5.2238


  Species: N

  List of occupied orbitals and eigenvalues:
    n    l              occ      energy [Ha]    energy [eV]
    1    0           2.0000       -14.128000      -384.4424
    2    0           2.0000        -0.681077       -18.5330
    2    1           3.0000        -0.259788        -7.0692


  Species: O

  List of occupied orbitals and eigenvalues:
    n    l              occ      energy [Ha]    energy [eV]
    1    0           2.0000       -18.898188      -514.2459
    2    0           2.0000        -0.878505       -23.9053
    2    1           4.0000        -0.331779        -9.0282

  Creating fixed part of basis set: Ionic, confined, hydrogenic.
 
  H                    hydrogenic:
 
  List of hydrogenic basis orbitals: 
    n    l      effective z      eigenvalue [eV]  inner max. [A]     outer max. [A]     outer radius [A]   
    2    0         2.100000       -14.9728           0.193243           1.317208           4.583499
    2    1         3.500000       -41.6669           0.602369           0.602369           3.723403
 
 
  C                    hydrogenic:
 
  List of hydrogenic basis orbitals: 
    n    l      effective z      eigenvalue [eV]  inner max. [A]     outer max. [A]     outer radius [A]   
    2    1         1.700000        -9.7616           1.230570           1.230570           4.607917
    3    2         6.000000       -54.4224           0.792453           0.792453           3.883070
    2    0         4.900000       -81.6679           0.082559           0.562749           3.078220
 
 
  N                    hydrogenic:
 
  List of hydrogenic basis orbitals: 
    n    l      effective z      eigenvalue [eV]  inner max. [A]     outer max. [A]     outer radius [A]   
    2    1         1.800000       -10.9749           1.177451           1.177451           4.573712
    3    2         6.800000       -69.9026           0.704619           0.704619           3.538137
    3    0         5.800000       -50.8545           0.067388           1.191934           4.250239
 
 
  O                    hydrogenic:
 
  List of hydrogenic basis orbitals: 
    n    l      effective z      eigenvalue [eV]  inner max. [A]     outer max. [A]     outer radius [A]   
    2    1         1.800000       -10.9749           1.164242           1.164242           4.578029
    3    2         7.600000       -87.3180           0.624125           0.624125           3.251020
    3    0         6.400000       -61.9207           0.061167           1.081902           4.001998
 

  Adding cutoff potential to free-atom effective potential.
  Creating atomic-like basis functions for current effective potential.

  Species H                   :

  List of atomic basis orbitals and eigenvalues:
    n    l      energy [Ha]    energy [eV]    outer radius [A]
    1    0        -0.237589        -6.4651       4.527807


  Species C                   :

  List of atomic basis orbitals and eigenvalues:
    n    l      energy [Ha]    energy [eV]    outer radius [A]
    1    0       -10.038835      -273.1706       1.934409
    2    0        -0.502696       -13.6791       4.496620
    2    1        -0.191971        -5.2238       4.551928


  Species N                   :

  List of atomic basis orbitals and eigenvalues:
    n    l      energy [Ha]    energy [eV]    outer radius [A]
    1    0       -14.128000      -384.4424       1.637919
    2    0        -0.681077       -18.5330       4.463241
    2    1        -0.259788        -7.0692       4.518138


  Species O                   :

  List of atomic basis orbitals and eigenvalues:
    n    l      energy [Ha]    energy [eV]    outer radius [A]
    1    0       -18.898188      -514.2459       1.415765
    2    0        -0.878505       -23.9053       4.413171
    2    1        -0.331779        -9.0282       4.522403

  Assembling full basis from fixed parts.
  | Species H :   atomic orbital   1 s accepted.
  | Species H :    hydro orbital   2 s accepted.
  | Species H :    hydro orbital   2 p accepted.
  | Species C :   atomic orbital   1 s accepted.
  | Species C :    hydro orbital   2 s accepted.
  | Species C :   atomic orbital   2 s accepted.
  | Species C :   atomic orbital   2 p accepted.
  | Species C :    hydro orbital   2 p accepted.
  | Species C :    hydro orbital   3 d accepted.
  | Species N :   atomic orbital   1 s accepted.
  | Species N :    hydro orbital   3 s accepted.
  | Species N :   atomic orbital   2 s accepted.
  | Species N :   atomic orbital   2 p accepted.
  | Species N :    hydro orbital   2 p accepted.
  | Species N :    hydro orbital   3 d accepted.
  | Species O :   atomic orbital   1 s accepted.
  | Species O :    hydro orbital   3 s accepted.
  | Species O :   atomic orbital   2 s accepted.
  | Species O :   atomic orbital   2 p accepted.
  | Species O :    hydro orbital   2 p accepted.
  | Species O :    hydro orbital   3 d accepted.
 
  Basis size parameters after reduction:
  | Total number of radial functions:       21
  | Total number of basis functions :      119
 
  Per-task memory consumption for arrays in subroutine allocate_ext:
  |           5.250512MB.
  Testing on-site integration grid accuracy.
  |  Species  Function  <phi|h_atom|phi> (log., in eV)  <phi|h_atom|phi> (rad., in eV)
           1        1                 -6.4663192853                 -6.4651273558
           1        2                 13.7111246313                 13.7170609718
           1        3                 25.2673269279                 25.2674696378
           2        4               -273.1705927641               -273.1705631568
           2        5                -10.7109323383                -10.7107120029
           2        6                 17.4381822266                 17.4352413244
           2        7                 -5.2255326521                 -5.2270484734
           2        8                  8.6835629259                  8.6603288385
           2        9                 27.4952418996                 27.4953360207
           3       10               -384.4424306495               -384.4423701208
           3       11                 12.5842251816                 12.5842222903
           3       12                -15.7264628251                -15.7264433455
           3       13                 -7.0696854293                 -7.0701769954
           3       14                  8.8090390882                  8.7901077751
           3       15                 35.9586762123                 35.9588528632
           4       16               -514.2458688638               -514.2457643834
           4       17                 15.1795651126                 15.1795290741
           4       18                -21.5359799773                -21.5360846186
           4       19                 -9.0283069236                 -9.0284644067
           4       20                  8.3027758564                  8.2834874195
           4       21                 45.8339351984                 45.8338762259

  Preparing densities etc. for the partition functions (integrals / Hartree potential).

  Preparations completed.
  max(cpu_time)          :      0.150 s.
  Wall clock time (cpu1) :      0.151 s.
------------------------------------------------------------

------------------------------------------------------------
          Begin self-consistency loop: Initialization.

          Date     :  20200710, Time     :  152450.310
------------------------------------------------------------

  Initializing index lists of integration centers etc. from given atomic structure:
  | Number of centers in hartree potential         :        13
  | Number of centers in hartree multipole         :        13
  | Number of centers in electron density summation:        13
  | Number of centers in basis integrals           :        13
  | Number of centers in integrals                 :        13
  | Number of centers in hamiltonian               :        13
  Partitioning the integration grid into batches with parallel hashing+maxmin method.
  | Number of batches:      955
  | Maximal batch size:     138
  | Minimal batch size:      66
  | Average batch size:      72.928
  | Standard deviation of batch sizes:      17.594

  Integration load balanced across     1 MPI tasks.
  Work distribution over tasks is as follows:
  Task     0 has      69646 integration points.
  Initializing partition tables, free-atom densities, potentials, etc. across the integration grid (initialize_grid_storage).
  | initialize_grid_storage: Actual outermost partition radius vs. multipole_radius_free
  | (-- VB: in principle, multipole_radius_free should be larger, hence this output)
  | Species        1: Confinement radius =              4.999999999999999 AA, multipole_radius_free =              5.054417573612229 AA.
  | Species        1: outer_partition_radius set to              5.054417573612229 AA .
  | Species        2: Confinement radius =              4.999999999999999 AA, multipole_radius_free =              5.019602836301480 AA.
  | Species        2: outer_partition_radius set to              5.019602836301480 AA .
  | Species        3: Confinement radius =              4.999999999999999 AA, multipole_radius_free =              5.043624274424571 AA.
  | Species        3: outer_partition_radius set to              5.043624274424571 AA .
  | Species        4: Confinement radius =              4.999999999999999 AA, multipole_radius_free =              5.048384829883283 AA.
  | Species        4: outer_partition_radius set to              5.048384829883283 AA .
  | Original list of interatomic distances with          13 x         13 entries is created.
  | Net number of integration points:    69646
  | of which are non-zero points    :    59509
  Renormalizing the initial density to the exact electron count on the 3D integration grid.
  | Initial density: Formal number of electrons (from input files) :      48.0000000000
  | Integrated number of electrons on 3D grid     :      47.9999645760
  | Charge integration error                      :      -0.0000354240
  | Normalization factor for density and gradient :       1.0000007380
  Obtaining max. number of non-zero basis functions in each batch (get_n_compute_maxes).
  | Maximal number of non-zero basis functions:      119 in task     0
  Selecting the method for density update.
  Loop over occupied states selected for charge density update.
  Allocating        0.050 MB for KS_eigenvector
  Integrating Hamiltonian matrix: batch-based integration.
  Time summed over all CPUs for integration: real work        0.493 s, elapsed        0.493 s
  Integrating overlap matrix.
  Time summed over all CPUs for integration: real work        0.218 s, elapsed        0.218 s

  Updating Kohn-Sham eigenvalues and eigenvectors using ELSI and the ELPA eigensolver.
  Overlap matrix is nonsingular
  | Lowest eigenvalue of overlap  :  0.47E-02
  | Highest eigenvalue of overlap :  0.61E+01
  Finished singularity check of overlap matrix
  | Time :     0.002 s
  Finished Cholesky decomposition
  | Time :     0.000 s
  Finished transformation to standard eigenproblem
  | Time :     0.000 s
  Starting LAPACK eigensolver
  Finished solving standard eigenproblem
  | Time :     0.002 s
  Finished back-transformation of eigenvectors
  | Time :     0.000 s

  Obtaining occupation numbers and chemical potential using ELSI.
  | Chemical potential (Fermi level):    -9.27052829eV
  Writing Kohn-Sham eigenvalues.

  State    Occupation    Eigenvalue [Ha]    Eigenvalue [eV]
      1       2.00000         -19.007590         -517.22284
      2       2.00000         -18.977216         -516.39633
      3       2.00000         -14.245934         -387.65160
      4       2.00000         -10.166720         -276.65052
      5       2.00000         -10.141416         -275.96198
      6       2.00000         -10.131946         -275.70429
      7       2.00000          -1.182492          -32.17725
      8       2.00000          -1.098422          -29.88957
      9       2.00000          -0.991248          -26.97323
     10       2.00000          -0.860703          -23.42092
     11       2.00000          -0.754482          -20.53049
     12       2.00000          -0.680699          -18.52277
     13       2.00000          -0.630623          -17.16013
     14       2.00000          -0.598096          -16.27502
     15       2.00000          -0.589163          -16.03195
     16       2.00000          -0.575662          -15.66455
     17       2.00000          -0.556690          -15.14832
     18       2.00000          -0.524631          -14.27593
     19       2.00000          -0.513072          -13.96141
     20       2.00000          -0.508642          -13.84085
     21       2.00000          -0.461404          -12.55545
     22       2.00000          -0.425821          -11.58719
     23       2.00000          -0.406030          -11.04865
     24       2.00000          -0.383190          -10.42714
     25       0.00000          -0.161137           -4.38477
     26       0.00000          -0.073132           -1.99003
     27       0.00000          -0.027392           -0.74538
     28       0.00000          -0.025177           -0.68511
     29       0.00000           0.003022            0.08224
     30       0.00000           0.012030            0.32736
     31       0.00000           0.016831            0.45799
     32       0.00000           0.038338            1.04322
     33       0.00000           0.044695            1.21622
     34       0.00000           0.072084            1.96151
     35       0.00000           0.077592            2.11139
     36       0.00000           0.131790            3.58618
     37       0.00000           0.163455            4.44782
     38       0.00000           0.199064            5.41680
     39       0.00000           0.218787            5.95349
     40       0.00000           0.223269            6.07547
     41       0.00000           0.242205            6.59074
     42       0.00000           0.274977            7.48249
     43       0.00000           0.284094            7.73059
     44       0.00000           0.297214            8.08760
     45       0.00000           0.340355            9.26153
     46       0.00000           0.354531            9.64727
     47       0.00000           0.372492           10.13603
     48       0.00000           0.415496           11.30622
     49       0.00000           0.445518           12.12316
     50       0.00000           0.466680           12.69901
     51       0.00000           0.481799           13.11042
     52       0.00000           0.532734           14.49643
     53       0.00000           0.577359           15.71073

  Highest occupied state (VBM) at    -10.42713550 eV
  | Occupation number:      2.00000000

  Lowest unoccupied state (CBM) at    -4.38476839 eV
  | Occupation number:      0.00000000

  Overall HOMO-LUMO gap:      6.04236711 eV.
  Calculating total energy contributions from superposition of free atom densities.

  Total energy components:
  | Sum of eigenvalues            :        -188.82378986 Ha       -5138.15674852 eV
  | XC energy correction          :         -41.78652382 Ha       -1137.06916665 eV
  | XC potential correction       :          53.71707294 Ha        1461.71592605 eV
  | Free-atom electrostatic energy:        -146.86268467 Ha       -3996.33698123 eV
  | Hartree energy correction     :           0.00000000 Ha           0.00000000 eV
  | vdW energy correction         :           0.00000000 Ha           0.00000000 eV
  | Entropy correction            :           0.00000000 Ha           0.00000000 eV
  | ---------------------------
  | Total energy                  :        -323.75592541 Ha       -8809.84697036 eV
  | Total energy, T -> 0          :        -323.75592541 Ha       -8809.84697036 eV  <-- do not rely on this value for anything but (periodic) metals
  | Electronic free energy        :        -323.75592541 Ha       -8809.84697036 eV

  Derived energy quantities:
  | Kinetic energy                :         320.49495163 Ha        8721.11135899 eV
  | Electrostatic energy          :        -602.46435321 Ha      -16393.88916269 eV
  | Energy correction for multipole
  | error in Hartree potential    :           0.00000000 Ha           0.00000000 eV
  | Sum of eigenvalues per atom                           :        -395.24282681 eV
  | Total energy (T->0) per atom                          :        -677.68053618 eV  <-- do not rely on this value for anything but (periodic) metals
  | Electronic free energy per atom                       :        -677.68053618 eV
  Initialize hartree_potential_storage
  Max. number of atoms included in rho_multipole:           13

  End scf initialization - timings             :  max(cpu_time)    wall_clock(cpu1)
  | Time for scf. initialization               :        1.146 s           1.156 s
  | Boundary condition initialization          :        0.000 s           0.000 s
  | Integration                                :        0.703 s           0.712 s
  | Solution of K.-S. eqns.                    :        0.004 s           0.004 s
  | Grid partitioning                          :        0.111 s           0.112 s
  | Preloading free-atom quantities on grid    :        0.002 s           0.003 s
  | Free-atom superposition energy             :        0.084 s           0.084 s
  | Total energy evaluation                    :        0.000 s           0.000 s

  Partial memory accounting:
  | Current value for overall tracked memory usage on task 0  :           0.165 MB
  | Peak value for overall tracked memory usage on task 0     :           0.676 MB after allocating wave
  | Largest tracked array allocation on task 0 so far         :           0.131 MB  when allocating H_times_psi
  Note:  These values currently only include a subset of arrays which are explicitly tracked.
  The "true" memory usage will be greater.
------------------------------------------------------------

------------------------------------------------------------
          Begin self-consistency iteration #    1

  Date     :  20200710, Time     :  152451.466
------------------------------------------------------------
  Evaluating new KS density.
  Integration grid: deviation in total charge (<rho> - N_e) =   7.105427E-15
  Pulay mixing of updated and previous charge densities.

  Evaluating partitioned Hartree potential by multipole expansion.
  | Analytical far-field extrapolation by fixed multipoles:
  | Hartree multipole sum: apparent total charge =  -0.141660E-03
  Summing up the Hartree potential.
  Time summed over all CPUs for potential: real work        0.282 s, elapsed        0.282 s
  | RMS charge density error from multipole expansion :   0.591618E-02

  Integrating Hamiltonian matrix: batch-based integration.
  Time summed over all CPUs for integration: real work        0.495 s, elapsed        0.495 s

  Updating Kohn-Sham eigenvalues and eigenvectors using ELSI and the ELPA eigensolver.
  Finished Cholesky decomposition
  | Time :     0.000 s
  Finished transformation to standard eigenproblem
  | Time :     0.000 s
  Starting LAPACK eigensolver
  Finished solving standard eigenproblem
  | Time :     0.002 s
  Finished back-transformation of eigenvectors
  | Time :     0.000 s

  Obtaining occupation numbers and chemical potential using ELSI.
  | Chemical potential (Fermi level):    -8.19554634eV
  Writing Kohn-Sham eigenvalues.

  State    Occupation    Eigenvalue [Ha]    Eigenvalue [eV]
      1       2.00000         -18.894391         -514.14255
      2       2.00000         -18.837594         -512.59703
      3       2.00000         -14.099168         -383.65789
      4       2.00000         -10.116044         -275.27155
      5       2.00000         -10.064366         -273.86534
      6       2.00000         -10.031846         -272.98041
      7       2.00000          -1.130329          -30.75782
      8       2.00000          -1.034025          -28.13726
      9       2.00000          -0.923945          -25.14183
     10       2.00000          -0.795548          -21.64795
     11       2.00000          -0.702540          -19.11709
     12       2.00000          -0.635143          -17.28311
     13       2.00000          -0.573528          -15.60650
     14       2.00000          -0.540748          -14.71451
     15       2.00000          -0.530637          -14.43936
     16       2.00000          -0.522312          -14.21283
     17       2.00000          -0.490644          -13.35110
     18       2.00000          -0.465181          -12.65822
     19       2.00000          -0.449708          -12.23718
     20       2.00000          -0.447071          -12.16541
     21       2.00000          -0.399735          -10.87734
     22       2.00000          -0.366536           -9.97394
     23       2.00000          -0.332922           -9.05926
     24       2.00000          -0.313102           -8.51993
     25       0.00000          -0.124526           -3.38852
     26       0.00000          -0.055079           -1.49877
     27       0.00000          -0.002025           -0.05509
     28       0.00000           0.015500            0.42178
     29       0.00000           0.038982            1.06075
     30       0.00000           0.041361            1.12548
     31       0.00000           0.057586            1.56699
     32       0.00000           0.070887            1.92893
     33       0.00000           0.084952            2.31166
     34       0.00000           0.110852            3.01644
     35       0.00000           0.116773            3.17755
     36       0.00000           0.160399            4.36469
     37       0.00000           0.189822            5.16533
     38       0.00000           0.229164            6.23587
     39       0.00000           0.252117            6.86046
     40       0.00000           0.259708            7.06702
     41       0.00000           0.279750            7.61239
     42       0.00000           0.309184            8.41331
     43       0.00000           0.320299            8.71578
     44       0.00000           0.330975            9.00628
     45       0.00000           0.379607           10.32964
     46       0.00000           0.393341           10.70337
     47       0.00000           0.414997           11.29265
     48       0.00000           0.450363           12.25501
     49       0.00000           0.482404           13.12688
     50       0.00000           0.502442           13.67215
     51       0.00000           0.519874           14.14650
     52       0.00000           0.566261           15.40874
     53       0.00000           0.613239           16.68709

  Highest occupied state (VBM) at     -8.51992781 eV
  | Occupation number:      2.00000000

  Lowest unoccupied state (CBM) at    -3.38851555 eV
  | Occupation number:      0.00000000

  Overall HOMO-LUMO gap:      5.13141226 eV.

  Total energy components:
  | Sum of eigenvalues            :        -185.39412598 Ha       -5044.83084606 eV
  | XC energy correction          :         -42.11618895 Ha       -1146.03981107 eV
  | XC potential correction       :          54.14583303 Ha        1473.38308158 eV
  | Free-atom electrostatic energy:        -146.86268467 Ha       -3996.33698123 eV
  | Hartree energy correction     :          -3.34269160 Ha         -90.95926636 eV
  | vdW energy correction         :           0.00000000 Ha           0.00000000 eV
  | Entropy correction            :           0.00000000 Ha           0.00000000 eV
  | ---------------------------
  | Total energy                  :        -323.56985816 Ha       -8804.78382314 eV
  | Total energy, T -> 0          :        -323.56985816 Ha       -8804.78382314 eV  <-- do not rely on this value for anything but (periodic) metals
  | Electronic free energy        :        -323.56985816 Ha       -8804.78382314 eV

  Derived energy quantities:
  | Kinetic energy                :         322.29621026 Ha        8770.12610027 eV
  | Electrostatic energy          :        -603.74987948 Ha      -16428.87011234 eV
  | Energy correction for multipole
  | error in Hartree potential    :           0.01187565 Ha           0.32315299 eV
  | Sum of eigenvalues per atom                           :        -388.06391124 eV
  | Total energy (T->0) per atom                          :        -677.29106332 eV  <-- do not rely on this value for anything but (periodic) metals
  | Electronic free energy per atom                       :        -677.29106332 eV

  Self-consistency convergence accuracy:
  | Change of charge density      :  0.5892E+00
  | Change of sum of eigenvalues  :  0.9333E+02 eV
  | Change of total energy        :  0.5063E+01 eV

  End self-consistency iteration #     1       :  max(cpu_time)    wall_clock(cpu1)
  | Time for this iteration                    :        1.185 s           1.188 s
  | Charge density update                      :        0.392 s           0.393 s
  | Density mixing                             :        0.005 s           0.005 s
  | Hartree multipole update                   :        0.009 s           0.009 s
  | Hartree multipole summation                :        0.283 s           0.284 s
  | Integration                                :        0.494 s           0.495 s
  | Solution of K.-S. eqns.                    :        0.002 s           0.002 s
  | Total energy evaluation                    :        0.000 s           0.000 s

  Partial memory accounting:
  | Current value for overall tracked memory usage on task 0  :           0.165 MB
  | Peak value for overall tracked memory usage on task 0     :           0.691 MB after allocating gradient_basis_wave
  | Largest tracked array allocation on task 0 so far         :           0.394 MB  when allocating gradient_basis_wave
  Note:  These values currently only include a subset of arrays which are explicitly tracked.
  The "true" memory usage will be greater.
------------------------------------------------------------

------------------------------------------------------------
          Begin self-consistency iteration #    2

  Date     :  20200710, Time     :  152452.655
------------------------------------------------------------
  Evaluating new KS density.
  Integration grid: deviation in total charge (<rho> - N_e) =  -6.394885E-14
  Pulay mixing of updated and previous charge densities.

  Evaluating partitioned Hartree potential by multipole expansion.
  | Analytical far-field extrapolation by fixed multipoles:
  | Hartree multipole sum: apparent total charge =  -0.275164E-03
  Summing up the Hartree potential.
  Time summed over all CPUs for potential: real work        0.282 s, elapsed        0.282 s
  | RMS charge density error from multipole expansion :   0.139383E-01

  Integrating Hamiltonian matrix: batch-based integration.
  Time summed over all CPUs for integration: real work        0.493 s, elapsed        0.493 s

  Updating Kohn-Sham eigenvalues and eigenvectors using ELSI and the ELPA eigensolver.
  Finished Cholesky decomposition
  | Time :     0.000 s
  Finished transformation to standard eigenproblem
  | Time :     0.000 s
  Starting LAPACK eigensolver
  Finished solving standard eigenproblem
  | Time :     0.001 s
  Finished back-transformation of eigenvectors
  | Time :     0.000 s

  Obtaining occupation numbers and chemical potential using ELSI.
  | Chemical potential (Fermi level):    -2.77342890eV
  Highest occupied state (VBM) at     -6.61285510 eV
  | Occupation number:      2.00000000

  Lowest unoccupied state (CBM) at    -2.14510983 eV
  | Occupation number:      0.00000000

  Overall HOMO-LUMO gap:      4.46774528 eV.

  Checking to see if s.c.f. parameters should be adjusted.

  Total energy components:
  | Sum of eigenvalues            :        -181.85258746 Ha       -4948.46067977 eV
  | XC energy correction          :         -42.47025217 Ha       -1155.67436154 eV
  | XC potential correction       :          54.60472490 Ha        1485.87016486 eV
  | Free-atom electrostatic energy:        -146.86268467 Ha       -3996.33698123 eV
  | Hartree energy correction     :          -6.90961603 Ha        -188.02021842 eV
  | vdW energy correction         :           0.00000000 Ha           0.00000000 eV
  | Entropy correction            :           0.00000000 Ha           0.00000000 eV
  | ---------------------------
  | Total energy                  :        -323.49041542 Ha       -8802.62207610 eV
  | Total energy, T -> 0          :        -323.49041542 Ha       -8802.62207610 eV  <-- do not rely on this value for anything but (periodic) metals
  | Electronic free energy        :        -323.49041542 Ha       -8802.62207610 eV

  Derived energy quantities:
  | Kinetic energy                :         323.58975269 Ha        8805.32518072 eV
  | Electrostatic energy          :        -604.60991594 Ha      -16452.27289528 eV
  | Energy correction for multipole
  | error in Hartree potential    :           0.02590170 Ha           0.70482120 eV
  | Sum of eigenvalues per atom                           :        -380.65082152 eV
  | Total energy (T->0) per atom                          :        -677.12477508 eV  <-- do not rely on this value for anything but (periodic) metals
  | Electronic free energy per atom                       :        -677.12477508 eV

  Self-consistency convergence accuracy:
  | Change of charge density      :  0.3682E+00
  | Change of sum of eigenvalues  :  0.9637E+02 eV
  | Change of total energy        :  0.2162E+01 eV

  End self-consistency iteration #     2       :  max(cpu_time)    wall_clock(cpu1)
  | Time for this iteration                    :        1.176 s           1.180 s
  | Charge density update                      :        0.384 s           0.385 s
  | Density mixing                             :        0.007 s           0.007 s
  | Hartree multipole update                   :        0.008 s           0.009 s
  | Hartree multipole summation                :        0.282 s           0.283 s
  | Integration                                :        0.492 s           0.493 s
  | Solution of K.-S. eqns.                    :        0.002 s           0.002 s
  | Total energy evaluation                    :        0.000 s           0.001 s

  Partial memory accounting:
  | Current value for overall tracked memory usage on task 0  :           0.166 MB
  | Peak value for overall tracked memory usage on task 0     :           0.691 MB after allocating gradient_basis_wave
  | Largest tracked array allocation on task 0 so far         :           0.394 MB  when allocating gradient_basis_wave
  Note:  These values currently only include a subset of arrays which are explicitly tracked.
  The "true" memory usage will be greater.
------------------------------------------------------------

------------------------------------------------------------
          Begin self-consistency iteration #    3

  Date     :  20200710, Time     :  152453.836
------------------------------------------------------------
  Evaluating new KS density.
  Integration grid: deviation in total charge (<rho> - N_e) =  -4.973799E-14
  Pulay mixing of updated and previous charge densities.

  Evaluating partitioned Hartree potential by multipole expansion.
  | Analytical far-field extrapolation by fixed multipoles:
  | Hartree multipole sum: apparent total charge =  -0.371170E-03
  Summing up the Hartree potential.
  Time summed over all CPUs for potential: real work        0.282 s, elapsed        0.282 s
  | RMS charge density error from multipole expansion :   0.220336E-01

  Integrating Hamiltonian matrix: batch-based integration.
  Time summed over all CPUs for integration: real work        0.493 s, elapsed        0.493 s

  Updating Kohn-Sham eigenvalues and eigenvectors using ELSI and the ELPA eigensolver.
  Finished Cholesky decomposition
  | Time :     0.000 s
  Finished transformation to standard eigenproblem
  | Time :     0.000 s
  Starting LAPACK eigensolver
  Finished solving standard eigenproblem
  | Time :     0.001 s
  Finished back-transformation of eigenvectors
  | Time :     0.000 s

  Obtaining occupation numbers and chemical potential using ELSI.
  | Chemical potential (Fermi level):    -2.07555710eV
  Highest occupied state (VBM) at     -5.92904671 eV
  | Occupation number:      2.00000000

  Lowest unoccupied state (CBM) at    -1.45521531 eV
  | Occupation number:      0.00000000

  Overall HOMO-LUMO gap:      4.47383141 eV.

  Total energy components:
  | Sum of eigenvalues            :        -180.53359010 Ha       -4912.56893548 eV
  | XC energy correction          :         -42.62345127 Ha       -1159.84312116 eV
  | XC potential correction       :          54.80001277 Ha        1491.18421815 eV
  | Free-atom electrostatic energy:        -146.86268467 Ha       -3996.33698123 eV
  | Hartree energy correction     :          -8.25690654 Ha        -224.68185865 eV
  | vdW energy correction         :           0.00000000 Ha           0.00000000 eV
  | Entropy correction            :           0.00000000 Ha           0.00000000 eV
  | ---------------------------
  | Total energy                  :        -323.47661981 Ha       -8802.24667837 eV
  | Total energy, T -> 0          :        -323.47661981 Ha       -8802.24667837 eV  <-- do not rely on this value for anything but (periodic) metals
  | Electronic free energy        :        -323.47661981 Ha       -8802.24667837 eV

  Derived energy quantities:
  | Kinetic energy                :         323.18206875 Ha        8794.23153633 eV
  | Electrostatic energy          :        -604.03523729 Ha      -16436.63509353 eV
  | Energy correction for multipole
  | error in Hartree potential    :           0.03671967 Ha           0.99919298 eV
  | Sum of eigenvalues per atom                           :        -377.88991811 eV
  | Total energy (T->0) per atom                          :        -677.09589834 eV  <-- do not rely on this value for anything but (periodic) metals
  | Electronic free energy per atom                       :        -677.09589834 eV

  Self-consistency convergence accuracy:
  | Change of charge density      :  0.2086E+00
  | Change of sum of eigenvalues  :  0.3589E+02 eV
  | Change of total energy        :  0.3754E+00 eV

  End self-consistency iteration #     3       :  max(cpu_time)    wall_clock(cpu1)
  | Time for this iteration                    :        1.178 s           1.181 s
  | Charge density update                      :        0.384 s           0.385 s
  | Density mixing                             :        0.008 s           0.008 s
  | Hartree multipole update                   :        0.009 s           0.009 s
  | Hartree multipole summation                :        0.282 s           0.283 s
  | Integration                                :        0.492 s           0.493 s
  | Solution of K.-S. eqns.                    :        0.002 s           0.002 s
  | Total energy evaluation                    :        0.000 s           0.000 s

  Partial memory accounting:
  | Current value for overall tracked memory usage on task 0  :           0.166 MB
  | Peak value for overall tracked memory usage on task 0     :           0.692 MB after allocating gradient_basis_wave
  | Largest tracked array allocation on task 0 so far         :           0.394 MB  when allocating gradient_basis_wave
  Note:  These values currently only include a subset of arrays which are explicitly tracked.
  The "true" memory usage will be greater.
------------------------------------------------------------

------------------------------------------------------------
          Begin self-consistency iteration #    4

  Date     :  20200710, Time     :  152455.018
------------------------------------------------------------
  Evaluating new KS density.
  Integration grid: deviation in total charge (<rho> - N_e) =  -7.105427E-15
  Pulay mixing of updated and previous charge densities.

  Evaluating partitioned Hartree potential by multipole expansion.
  | Analytical far-field extrapolation by fixed multipoles:
  | Hartree multipole sum: apparent total charge =  -0.402858E-03
  Summing up the Hartree potential.
  Time summed over all CPUs for potential: real work        0.282 s, elapsed        0.282 s
  | RMS charge density error from multipole expansion :   0.254211E-01

  Integrating Hamiltonian matrix: batch-based integration.
  Time summed over all CPUs for integration: real work        0.494 s, elapsed        0.494 s

  Updating Kohn-Sham eigenvalues and eigenvectors using ELSI and the ELPA eigensolver.
  Finished Cholesky decomposition
  | Time :     0.000 s
  Finished transformation to standard eigenproblem
  | Time :     0.000 s
  Starting LAPACK eigensolver
  Finished solving standard eigenproblem
  | Time :     0.002 s
  Finished back-transformation of eigenvectors
  | Time :     0.000 s

  Obtaining occupation numbers and chemical potential using ELSI.
  | Chemical potential (Fermi level):    -1.97568486eV
  Highest occupied state (VBM) at     -5.75209167 eV
  | Occupation number:      2.00000000

  Lowest unoccupied state (CBM) at    -1.35535468 eV
  | Occupation number:      0.00000000

  Overall HOMO-LUMO gap:      4.39673699 eV.

  Total energy components:
  | Sum of eigenvalues            :        -180.37978161 Ha       -4908.38359337 eV
  | XC energy correction          :         -42.66240498 Ha       -1160.90310557 eV
  | XC potential correction       :          54.84906006 Ha        1492.51886286 eV
  | Free-atom electrostatic energy:        -146.86268467 Ha       -3996.33698123 eV
  | Hartree energy correction     :          -8.41978744 Ha        -229.11407338 eV
  | vdW energy correction         :           0.00000000 Ha           0.00000000 eV
  | Entropy correction            :           0.00000000 Ha           0.00000000 eV
  | ---------------------------
  | Total energy                  :        -323.47559863 Ha       -8802.21889070 eV
  | Total energy, T -> 0          :        -323.47559863 Ha       -8802.21889070 eV  <-- do not rely on this value for anything but (periodic) metals
  | Electronic free energy        :        -323.47559863 Ha       -8802.21889070 eV

  Derived energy quantities:
  | Kinetic energy                :         322.81128902 Ha        8784.14210655 eV
  | Electrostatic energy          :        -603.62448267 Ha      -16425.45789167 eV
  | Energy correction for multipole
  | error in Hartree potential    :           0.04084066 Ha           1.11133096 eV
  | Sum of eigenvalues per atom                           :        -377.56796872 eV
  | Total energy (T->0) per atom                          :        -677.09376082 eV  <-- do not rely on this value for anything but (periodic) metals
  | Electronic free energy per atom                       :        -677.09376082 eV

  Self-consistency convergence accuracy:
  | Change of charge density      :  0.6650E-01
  | Change of sum of eigenvalues  :  0.4185E+01 eV
  | Change of total energy        :  0.2779E-01 eV

  End self-consistency iteration #     4       :  max(cpu_time)    wall_clock(cpu1)
  | Time for this iteration                    :        1.180 s           1.184 s
  | Charge density update                      :        0.385 s           0.386 s
  | Density mixing                             :        0.009 s           0.010 s
  | Hartree multipole update                   :        0.008 s           0.008 s
  | Hartree multipole summation                :        0.282 s           0.283 s
  | Integration                                :        0.493 s           0.494 s
  | Solution of K.-S. eqns.                    :        0.002 s           0.002 s
  | Total energy evaluation                    :        0.000 s           0.000 s

  Partial memory accounting:
  | Current value for overall tracked memory usage on task 0  :           0.166 MB
  | Peak value for overall tracked memory usage on task 0     :           0.692 MB after allocating gradient_basis_wave
  | Largest tracked array allocation on task 0 so far         :           0.394 MB  when allocating gradient_basis_wave
  Note:  These values currently only include a subset of arrays which are explicitly tracked.
  The "true" memory usage will be greater.
------------------------------------------------------------

------------------------------------------------------------
          Begin self-consistency iteration #    5

  Date     :  20200710, Time     :  152456.203
------------------------------------------------------------
  Evaluating new KS density.
  Integration grid: deviation in total charge (<rho> - N_e) =   4.263256E-14
  Pulay mixing of updated and previous charge densities.

  Evaluating partitioned Hartree potential by multipole expansion.
  | Analytical far-field extrapolation by fixed multipoles:
  | Hartree multipole sum: apparent total charge =  -0.396600E-03
  Summing up the Hartree potential.
  Time summed over all CPUs for potential: real work        0.283 s, elapsed        0.283 s
  | RMS charge density error from multipole expansion :   0.252084E-01

  Integrating Hamiltonian matrix: batch-based integration.
  Time summed over all CPUs for integration: real work        0.494 s, elapsed        0.494 s

  Updating Kohn-Sham eigenvalues and eigenvectors using ELSI and the ELPA eigensolver.
  Finished Cholesky decomposition
  | Time :     0.000 s
  Finished transformation to standard eigenproblem
  | Time :     0.000 s
  Starting LAPACK eigensolver
  Finished solving standard eigenproblem
  | Time :     0.002 s
  Finished back-transformation of eigenvectors
  | Time :     0.000 s

  Obtaining occupation numbers and chemical potential using ELSI.
  | Chemical potential (Fermi level):    -2.05733870eV
  Highest occupied state (VBM) at     -5.84527514 eV
  | Occupation number:      2.00000000

  Lowest unoccupied state (CBM) at    -1.45873888 eV
  | Occupation number:      0.00000000

  Overall HOMO-LUMO gap:      4.38653626 eV.

  Total energy components:
  | Sum of eigenvalues            :        -180.60487576 Ha       -4914.50871700 eV
  | XC energy correction          :         -42.63551538 Ha       -1160.17140241 eV
  | XC potential correction       :          54.81414280 Ha        1491.56871584 eV
  | Free-atom electrostatic energy:        -146.86268467 Ha       -3996.33698123 eV
  | Hartree energy correction     :          -8.18636415 Ha        -222.76230253 eV
  | vdW energy correction         :           0.00000000 Ha           0.00000000 eV
  | Entropy correction            :           0.00000000 Ha           0.00000000 eV
  | ---------------------------
  | Total energy                  :        -323.47529716 Ha       -8802.21068734 eV
  | Total energy, T -> 0          :        -323.47529716 Ha       -8802.21068734 eV  <-- do not rely on this value for anything but (periodic) metals
  | Electronic free energy        :        -323.47529716 Ha       -8802.21068734 eV

  Derived energy quantities:
  | Kinetic energy                :         322.67530044 Ha        8780.44166881 eV
  | Electrostatic energy          :        -603.51508222 Ha      -16422.48095373 eV
  | Energy correction for multipole
  | error in Hartree potential    :           0.04021957 Ha           1.09443008 eV
  | Sum of eigenvalues per atom                           :        -378.03913208 eV
  | Total energy (T->0) per atom                          :        -677.09312980 eV  <-- do not rely on this value for anything but (periodic) metals
  | Electronic free energy per atom                       :        -677.09312980 eV

  Self-consistency convergence accuracy:
  | Change of charge density      :  0.2088E-01
  | Change of sum of eigenvalues  : -0.6125E+01 eV
  | Change of total energy        :  0.8203E-02 eV

  End self-consistency iteration #     5       :  max(cpu_time)    wall_clock(cpu1)
  | Time for this iteration                    :        1.181 s           1.184 s
  | Charge density update                      :        0.384 s           0.385 s
  | Density mixing                             :        0.011 s           0.011 s
  | Hartree multipole update                   :        0.009 s           0.009 s
  | Hartree multipole summation                :        0.282 s           0.283 s
  | Integration                                :        0.493 s           0.494 s
  | Solution of K.-S. eqns.                    :        0.002 s           0.002 s
  | Total energy evaluation                    :        0.000 s           0.000 s

  Partial memory accounting:
  | Current value for overall tracked memory usage on task 0  :           0.166 MB
  | Peak value for overall tracked memory usage on task 0     :           0.692 MB after allocating gradient_basis_wave
  | Largest tracked array allocation on task 0 so far         :           0.394 MB  when allocating gradient_basis_wave
  Note:  These values currently only include a subset of arrays which are explicitly tracked.
  The "true" memory usage will be greater.
------------------------------------------------------------

------------------------------------------------------------
          Begin self-consistency iteration #    6

  Date     :  20200710, Time     :  152457.389
------------------------------------------------------------
  Evaluating new KS density.
  Integration grid: deviation in total charge (<rho> - N_e) =   6.394885E-14
  Pulay mixing of updated and previous charge densities.

  Evaluating partitioned Hartree potential by multipole expansion.
  | Analytical far-field extrapolation by fixed multipoles:
  | Hartree multipole sum: apparent total charge =  -0.401007E-03
  Summing up the Hartree potential.
  Time summed over all CPUs for potential: real work        0.282 s, elapsed        0.282 s
  | RMS charge density error from multipole expansion :   0.256773E-01

  Integrating Hamiltonian matrix: batch-based integration.
  Time summed over all CPUs for integration: real work        0.493 s, elapsed        0.493 s

  Updating Kohn-Sham eigenvalues and eigenvectors using ELSI and the ELPA eigensolver.
  Finished Cholesky decomposition
  | Time :     0.000 s
  Finished transformation to standard eigenproblem
  | Time :     0.000 s
  Starting LAPACK eigensolver
  Finished solving standard eigenproblem
  | Time :     0.001 s
  Finished back-transformation of eigenvectors
  | Time :     0.000 s

  Obtaining occupation numbers and chemical potential using ELSI.
  | Chemical potential (Fermi level):    -2.04900108eV
  Highest occupied state (VBM) at     -5.80305297 eV
  | Occupation number:      2.00000000

  Lowest unoccupied state (CBM) at    -1.45806818 eV
  | Occupation number:      0.00000000

  Overall HOMO-LUMO gap:      4.34498479 eV.

  Total energy components:
  | Sum of eigenvalues            :        -180.57513848 Ha       -4913.69952437 eV
  | XC energy correction          :         -42.63831730 Ha       -1160.24764645 eV
  | XC potential correction       :          54.81774617 Ha        1491.66676848 eV
  | Free-atom electrostatic energy:        -146.86268467 Ha       -3996.33698123 eV
  | Hartree energy correction     :          -8.21685971 Ha        -223.59212895 eV
  | vdW energy correction         :           0.00000000 Ha           0.00000000 eV
  | Entropy correction            :           0.00000000 Ha           0.00000000 eV
  | ---------------------------
  | Total energy                  :        -323.47525399 Ha       -8802.20951253 eV
  | Total energy, T -> 0          :        -323.47525399 Ha       -8802.20951253 eV  <-- do not rely on this value for anything but (periodic) metals
  | Electronic free energy        :        -323.47525399 Ha       -8802.20951253 eV

  Derived energy quantities:
  | Kinetic energy                :         322.61367949 Ha        8778.76487769 eV
  | Electrostatic energy          :        -603.45061618 Ha      -16420.72674377 eV
  | Energy correction for multipole
  | error in Hartree potential    :           0.04069864 Ha           1.10746636 eV
  | Sum of eigenvalues per atom                           :        -377.97688649 eV
  | Total energy (T->0) per atom                          :        -677.09303943 eV  <-- do not rely on this value for anything but (periodic) metals
  | Electronic free energy per atom                       :        -677.09303943 eV

  Self-consistency convergence accuracy:
  | Change of charge density      :  0.1070E-01
  | Change of sum of eigenvalues  :  0.8092E+00 eV
  | Change of total energy        :  0.1175E-02 eV

  End self-consistency iteration #     6       :  max(cpu_time)    wall_clock(cpu1)
  | Time for this iteration                    :        1.182 s           1.185 s
  | Charge density update                      :        0.385 s           0.386 s
  | Density mixing                             :        0.012 s           0.012 s
  | Hartree multipole update                   :        0.009 s           0.009 s
  | Hartree multipole summation                :        0.282 s           0.283 s
  | Integration                                :        0.492 s           0.493 s
  | Solution of K.-S. eqns.                    :        0.002 s           0.002 s
  | Total energy evaluation                    :        0.000 s           0.000 s

  Partial memory accounting:
  | Current value for overall tracked memory usage on task 0  :           0.166 MB
  | Peak value for overall tracked memory usage on task 0     :           0.692 MB after allocating gradient_basis_wave
  | Largest tracked array allocation on task 0 so far         :           0.394 MB  when allocating gradient_basis_wave
  Note:  These values currently only include a subset of arrays which are explicitly tracked.
  The "true" memory usage will be greater.
------------------------------------------------------------

------------------------------------------------------------
          Begin self-consistency iteration #    7

  Date     :  20200710, Time     :  152458.576
------------------------------------------------------------
  Evaluating new KS density.
  Integration grid: deviation in total charge (<rho> - N_e) =   6.394885E-14
  Pulay mixing of updated and previous charge densities.

  Evaluating partitioned Hartree potential by multipole expansion.
  | Analytical far-field extrapolation by fixed multipoles:
  | Hartree multipole sum: apparent total charge =  -0.401562E-03
  Summing up the Hartree potential.
  Time summed over all CPUs for potential: real work        0.282 s, elapsed        0.282 s
  | RMS charge density error from multipole expansion :   0.257707E-01

  Integrating Hamiltonian matrix: batch-based integration.
  Time summed over all CPUs for integration: real work        0.493 s, elapsed        0.493 s

  Updating Kohn-Sham eigenvalues and eigenvectors using ELSI and the ELPA eigensolver.
  Finished Cholesky decomposition
  | Time :     0.000 s
  Finished transformation to standard eigenproblem
  | Time :     0.000 s
  Starting LAPACK eigensolver
  Finished solving standard eigenproblem
  | Time :     0.001 s
  Finished back-transformation of eigenvectors
  | Time :     0.000 s

[...]
  |   Hirshfeld dipole moment :      0.05728061
  |   Hirshfeld second moments:      0.01534011      -0.03137227      -0.01751415
  |                                 -0.03137227      -0.02324634       0.00623623
  |                                 -0.01751415       0.00623623      -0.01747871
  ----------------------------------------------------------------------
  | Atom    12: O
  |   Hirshfeld charge        :     -0.16205943
  |   Free atom volume        :     23.61338643
  |   Hirshfeld volume        :     21.14403077
  |   Hirshfeld dipole vector :      0.03307290       0.02600197      -0.00029946
  |   Hirshfeld dipole moment :      0.04207147
  |   Hirshfeld second moments:      0.05198785      -0.01833124      -0.02379758
  |                                 -0.01833124       0.04942788       0.04431129
  |                                 -0.02379758       0.04431129       0.05283092
  ----------------------------------------------------------------------
  | Atom    13: H
  |   Hirshfeld charge        :      0.17944816
  |   Free atom volume        :      9.95071624
  |   Hirshfeld volume        :      6.17603710
  |   Hirshfeld dipole vector :      0.08594940      -0.05382299      -0.07729208
  |   Hirshfeld dipole moment :      0.12750796
  |   Hirshfeld second moments:      0.11811142      -0.00105629       0.00211439
  |                                 -0.00105629       0.11421458       0.01188775
  |                                  0.00211439       0.01188775       0.11270466
  ----------------------------------------------------------------------


  Total energy components:
  | Sum of eigenvalues            :        -180.57692497 Ha       -4913.74813710 eV
  | XC energy correction          :         -42.63486399 Ha       -1160.15367722 eV
  | XC potential correction       :          54.81335617 Ha        1491.54731045 eV
  | Free-atom electrostatic energy:        -146.86268467 Ha       -3996.33698123 eV
  | Hartree energy correction     :          -8.21411363 Ha        -223.51740429 eV
  | vdW energy correction         :          -0.00309047 Ha          -0.08409603 eV
  | Entropy correction            :           0.00000000 Ha           0.00000000 eV
  | ---------------------------
  | Total energy                  :        -323.47832156 Ha       -8802.29298543 eV
  | Total energy, T -> 0          :        -323.47832156 Ha       -8802.29298543 eV  <-- do not rely on this value for anything but (periodic) metals
  | Electronic free energy        :        -323.47832156 Ha       -8802.29298543 eV

  Derived energy quantities:
  | Kinetic energy                :         322.57745860 Ha        8777.77925705 eV
  | Electrostatic energy          :        -603.41782570 Ha      -16419.83446922 eV
  | Energy correction for multipole
  | error in Hartree potential    :           0.04074605 Ha           1.10875642 eV
  | Sum of eigenvalues per atom                           :        -377.98062593 eV
  | Total energy (T->0) per atom                          :        -677.09946042 eV  <-- do not rely on this value for anything but (periodic) metals
  | Electronic free energy per atom                       :        -677.09946042 eV

  atomic forces [eV/Ang]:
  -----------------------
  atom #    1
   Hellmann-Feynman              :  0.122133E+01  0.117928E+00  0.103004E+01
   Ionic forces                  :  0.000000E+00  0.000000E+00  0.000000E+00
   Multipole                     :  0.191388E+00  0.234595E+00 -0.345744E+00
   Pulay + GGA                   : -0.146138E+01  0.277360E-01 -0.121489E+01
   Van der Waals                 :  0.209262E-02  0.397805E-02 -0.537222E-03
   ----------------------------------------------------------------
   Total forces(   1)            : -0.465625E-01  0.384237E+00 -0.531137E+00
  atom #    2
   Hellmann-Feynman              :  0.490602E+00  0.424775E-01  0.384728E+00
   Ionic forces                  :  0.000000E+00  0.000000E+00  0.000000E+00
   Multipole                     :  0.141286E+00  0.287142E-01 -0.422673E-01
   Pulay + GGA                   : -0.117257E+00  0.258056E-01  0.169430E-01
   Van der Waals                 :  0.831530E-02 -0.646614E-02 -0.167534E-02
   ----------------------------------------------------------------
   Total forces(   2)            :  0.522945E+00  0.905312E-01  0.357728E+00
  atom #    3
   Hellmann-Feynman              : -0.124523E+02 -0.191343E+01  0.124286E+01
   Ionic forces                  :  0.000000E+00  0.000000E+00  0.000000E+00
   Multipole                     : -0.622160E-01  0.744602E-01 -0.872027E+00
   Pulay + GGA                   :  0.121595E+02  0.179567E+01  0.542446E+00
   Van der Waals                 :  0.330398E-02 -0.388458E-03 -0.996252E-02
   ----------------------------------------------------------------
   Total forces(   3)            : -0.351705E+00 -0.436916E-01  0.903319E+00
  atom #    4
   Hellmann-Feynman              :  0.282443E+00  0.116836E-01 -0.133257E+00
   Ionic forces                  :  0.000000E+00  0.000000E+00  0.000000E+00
   Multipole                     :  0.295988E-01  0.401534E-01 -0.101905E+00
   Pulay + GGA                   : -0.131695E+00 -0.176244E+00  0.773401E-01
   Van der Waals                 : -0.441620E-02 -0.638197E-02 -0.408351E-02
   ----------------------------------------------------------------
   Total forces(   4)            :  0.175931E+00 -0.130789E+00 -0.161905E+00
  atom #    5
   Hellmann-Feynman              :  0.223794E+00  0.506844E-01 -0.348188E+00
   Ionic forces                  :  0.000000E+00  0.000000E+00  0.000000E+00
   Multipole                     :  0.450928E-01 -0.237568E-01 -0.111389E+00
   Pulay + GGA                   : -0.166167E+00  0.162833E+00  0.605971E-01
   Van der Waals                 :  0.137589E-02  0.917937E-02 -0.932764E-02
   ----------------------------------------------------------------
   Total forces(   5)            :  0.104096E+00  0.198939E+00 -0.408308E+00
  atom #    6
   Hellmann-Feynman              : -0.375967E+00 -0.494230E+00  0.383901E+00
   Ionic forces                  :  0.000000E+00  0.000000E+00  0.000000E+00
   Multipole                     : -0.757972E-01  0.669594E+00  0.245760E+00
   Pulay + GGA                   :  0.516643E+00 -0.635079E+00 -0.620473E+00
   Van der Waals                 : -0.262376E-02  0.370569E-02 -0.213575E-02
   ----------------------------------------------------------------
   Total forces(   6)            :  0.622548E-01 -0.456010E+00  0.705207E-02
  atom #    7
   Hellmann-Feynman              : -0.205995E+00 -0.409048E-01 -0.515738E-01
   Ionic forces                  :  0.000000E+00  0.000000E+00  0.000000E+00
   Multipole                     : -0.122318E+00  0.467842E-01  0.318862E-01
   Pulay + GGA                   :  0.118821E+00 -0.160587E-01 -0.224071E-01
   Van der Waals                 : -0.760239E-03  0.219243E-02  0.240731E-02
   ----------------------------------------------------------------
   Total forces(   7)            : -0.210252E+00 -0.798689E-02 -0.396874E-01
  atom #    8
   Hellmann-Feynman              :  0.990452E-01 -0.551375E-01  0.985447E-01
   Ionic forces                  :  0.000000E+00  0.000000E+00  0.000000E+00
   Multipole                     :  0.145288E-01  0.668645E-01  0.128804E+00
   Pulay + GGA                   : -0.468087E-01 -0.439897E-01 -0.102715E+00
   Van der Waals                 : -0.249749E-02  0.115527E-01  0.105266E-02
   ----------------------------------------------------------------
   Total forces(   8)            :  0.642678E-01 -0.207099E-01  0.125686E+00
  atom #    9
   Hellmann-Feynman              :  0.120267E+00  0.774651E-01 -0.197557E+00
   Ionic forces                  :  0.000000E+00  0.000000E+00  0.000000E+00
   Multipole                     :  0.218989E-01  0.129283E+00 -0.105269E-02
   Pulay + GGA                   : -0.413781E-01 -0.642164E-01  0.774073E-01
   Van der Waals                 : -0.159551E-02  0.672908E-02  0.875003E-02
   ----------------------------------------------------------------
   Total forces(   9)            :  0.991921E-01  0.149261E+00 -0.112452E+00
  atom #   10
   Hellmann-Feynman              :  0.319936E+01  0.487558E+01  0.168615E+01
   Ionic forces                  :  0.000000E+00  0.000000E+00  0.000000E+00
   Multipole                     :  0.160958E-01 -0.114477E+00  0.312524E+00
   Pulay + GGA                   : -0.216149E+01 -0.255582E+01  0.173765E+00
   Van der Waals                 :  0.176845E-02 -0.108850E-01  0.209600E-02
   ----------------------------------------------------------------
   Total forces(  10)            :  0.105573E+01  0.219439E+01  0.217453E+01
  atom #   11
   Hellmann-Feynman              :  0.420956E+01 -0.248742E+01  0.136799E+02
   Ionic forces                  :  0.000000E+00  0.000000E+00  0.000000E+00
   Multipole                     :  0.446955E-01 -0.587314E+00  0.750191E+00
   Pulay + GGA                   : -0.368694E+01  0.397640E+01 -0.133984E+02
   Van der Waals                 : -0.261045E-02 -0.105524E-01  0.636120E-02
   ----------------------------------------------------------------
   Total forces(  11)            :  0.564699E+00  0.891115E+00  0.103810E+01
  atom #   12
   Hellmann-Feynman              : -0.142908E+02 -0.618387E+01 -0.503521E+00
   Ionic forces                  :  0.000000E+00  0.000000E+00  0.000000E+00
   Multipole                     : -0.999820E+00 -0.135880E+01 -0.148838E+00
   Pulay + GGA                   :  0.138908E+02  0.500166E+01 -0.169868E+01
   Van der Waals                 : -0.208949E-02  0.372055E-02  0.817741E-02
   ----------------------------------------------------------------
   Total forces(  12)            : -0.140199E+01 -0.253729E+01 -0.234286E+01
  atom #   13
   Hellmann-Feynman              : -0.344461E+00 -0.734659E+00 -0.128733E+01
   Ionic forces                  :  0.000000E+00  0.000000E+00  0.000000E+00
   Multipole                     :  0.490641E-01 -0.426835E-01 -0.232298E-01
   Pulay + GGA                   : -0.340726E+00  0.689951E-01  0.295759E+00
   Van der Waals                 : -0.263122E-03 -0.638401E-02 -0.112263E-02
   ----------------------------------------------------------------
   Total forces(  13)            : -0.636386E+00 -0.714732E+00 -0.101592E+01

  Timings for VdW correction (Tkatchenko-Scheffler 2009 or later):
  | CPU time:        0.090 s, Wall clock time:        0.090 s.
  Removing unitary transformations (pure translations, rotations) from forces on atoms.
  Atomic forces before filtering:
  | Net force on center of mass :   0.221893E-02 -0.272894E-02 -0.584764E-02 eV/A
  | Net torque on center of mass:   0.326041E-02  0.100091E-02  0.101030E-01 eV
  Atomic forces after filtering:
  | Net force on center of mass :   0.356812E-15  0.267609E-15 -0.178406E-15 eV/A
  | Net torque on center of mass:  -0.221860E-14  0.483843E-15  0.377634E-15 eV

  Energy and forces in a compact form:
  | Total energy uncorrected      :         -0.880229298542821E+04 eV
  | Total energy corrected        :         -0.880229298542821E+04 eV  <-- do not rely on this value for anything but (periodic) metals
  | Electronic free energy        :         -0.880229298542821E+04 eV
  Total atomic forces (unitary forces cleaned) [eV/Ang]:
  |   1         -0.466973119592416E-01          0.384339901197361E+00         -0.530672373434014E+00
  |   2          0.522810491216957E+00          0.902651060231632E-01          0.358270970770826E+00
  |   3         -0.351739423165285E+00         -0.435244592250673E-01          0.903749629899497E+00
  |   4          0.176232793425656E+00         -0.130721337749458E+00         -0.161522605603134E+00
  |   5          0.103847974644168E+00          0.198908746997934E+00         -0.407791555630766E+00
  |   6          0.624945848854300E-01         -0.455689184568064E+00          0.739406491687040E-02
  |   7         -0.210003873566240E+00         -0.729561964565574E-02         -0.394249408108052E-01
  |   8          0.644383134021321E-01         -0.204392958069873E-01          0.126052680687185E+00
  |   9          0.997713765270416E-01          0.149424688718677E+00         -0.112146598959958E+00
  |  10          0.105510429915496E+01          0.219468078014332E+01          0.217505762466030E+01
  |  11          0.563901670991093E+00          0.891383239476773E+00          0.103866865107938E+01
  |  12         -0.140285057333382E+01         -0.253680506386546E+01         -0.234232241314389E+01
  |  13         -0.637310322222844E+00         -0.714527501696543E+00         -0.101531313443150E+01

  ------------------------------------ 
  Start decomposition of the XC Energy 
  ------------------------------------ 
  X and C from original XC functional choice 
  Hartree-Fock Energy :          0.000000000 Ha              0.000000000 eV
  X Energy            :        -41.035032818 Ha          -1116.620055968 eV
  C Energy            :         -1.599831175 Ha            -43.533621252 eV
  Total XC Energy     :        -42.634863993 Ha          -1160.153677220 eV
  ------------------------------------ 
  LDA X and C from self-consistent density 
  X Energy LDA        :        -37.252441880 Ha          -1013.690519557 eV
  C Energy LDA        :         -3.138324746 Ha            -85.398161337 eV
  ------------------------------------ 
  End decomposition of the XC Energy 
  ------------------------------------ 

------------------------------------------------------------

------------------------------------------------------------------------------
  Final output of selected total energy values:

  The following output summarizes some interesting total energy values
  at the end of a run (AFTER all relaxation, molecular dynamics, etc.).

  | Total energy of the DFT / Hartree-Fock s.c.f. calculation      :          -8802.292985428 eV
  | Final zero-broadening corrected energy (caution - metals only) :          -8802.292985428 eV
  | For reference only, the value of 1 Hartree used in FHI-aims is :             27.211384500 eV

  Before relying on these values, please be sure to understand exactly which
  total energy value is referred to by a given number. Different objects may
  all carry the same name 'total energy'. Definitions:

  Total energy of the DFT / Hartree-Fock s.c.f. calculation:
  | Note that this energy does not include ANY quantities calculated after the
  | s.c.f. cycle, in particular not ANY RPA, MP2, etc. many-body perturbation terms.

  Final zero-broadening corrected energy:
  | For metallic systems only, a broadening of the occupation numbers at the Fermi
  | level can be extrapolated back to zero broadening by an electron-gas inspired
  | formula. For all systems that are not real metals, this value can be
  | meaningless and should be avoided.

------------------------------------------------------------------------------
  Methods described in the following list of references were used in this FHI-aims run.
  If you publish the results, please make sure to cite these reference if they apply.
  FHI-aims is an academic code, and for our developers (often, Ph.D. students
  and postdocs), scientific credit in the community is essential.
  Thank you for helping us!

  For any use of FHI-aims, please cite:

    Volker Blum, Ralf Gehrke, Felix Hanke, Paula Havu, Ville Havu,
    Xinguo Ren, Karsten Reuter, and Matthias Scheffler
    'Ab initio molecular simulations with numeric atom-centered orbitals'
    Computer Physics Communications 180, 2175-2196 (2009)
    http://dx.doi.org/10.1016/j.cpc.2009.06.022


  The scalable eigensolver library ELPA was used in your run.
  ELPA is essential especially for large systems on hundreds or thousands of CPUs.
  For ELPA, please cite:

    Andreas Marek, Volker Blum, Rainer Johanni, Ville Havu, Bruno Lang,
    Thomas Auckenthaler, Alexander Heinecke, Hans-Joachim Bungartz, and Hermann Lederer,
    'The ELPA Library - Scalable Parallel Eigenvalue Solutions
    for Electronic Structure Theory and Computational Science'
    The Journal of Physics: Condensed Matter 26, 213201 (2014).
    http://dx.doi.org/10.1088/0953-8984/26/21/213201


  The ELSI infrastructure was used in your run to solve the Kohn-Sham electronic structure.
  Please check out http://elsi-interchange.org to learn more.
  If scalability is important for your project, please acknowledge ELSI by citing:

    V. W-z. Yu, F. Corsetti, A. Garcia, W. P. Huhn, M. Jacquelin, W. Jia,
    B. Lange, L. Lin, J. Lu, W. Mi, A. Seifitokaldani, A. Vazquez-Mayagoitia,
    C. Yang, H. Yang, and V. Blum
    'ELSI: A unified software interface for Kohn-Sham electronic structure solvers'
    Computer Physics Communications 222, 267-285 (2018).
    http://dx.doi.org/10.1016/j.cpc.2017.09.007


  For the real-space grid partitioning and parallelization used in this calculation, please cite:

    Ville Havu, Volker Blum, Paula Havu, and Matthias Scheffler,
    'Efficient O(N) integration for all-electron electronic structure calculation'
    'using numerically tabulated basis functions'
    Journal of Computational Physics 228, 8367-8379 (2009).
    http://dx.doi.org/10.1016/j.jcp.2009.08.008

  Of course, there are many other important community references, e.g., those cited in the
  above references. Our list is limited to references that describe implementations in the
  FHI-aims code. The reason is purely practical (length of this list) - please credit others as well.

------------------------------------------------------------
          Leaving FHI-aims.
          Date     :  20200710, Time     :  152512.839

          Computational steps:
          | Number of self-consistency cycles          :           16
          | Number of SCF (re)initializations          :            1

          Detailed time accounting                     :  max(cpu_time)    wall_clock(cpu1)
          | Total time                                 :       22.597 s          22.700 s
          | Preparation time                           :        0.150 s           0.151 s
          | Boundary condition initalization           :        0.000 s           0.000 s
          | Grid partitioning                          :        0.111 s           0.112 s
          | Preloading free-atom quantities on grid    :        0.002 s           0.003 s
          | Free-atom superposition energy             :        0.084 s           0.084 s
          | Total time for integrations                :        8.588 s           8.614 s
          | Total time for solution of K.-S. equations :        0.036 s           0.041 s
          | Total time for density & force components  :        7.112 s           7.147 s
          | Total time for mixing                      :        0.216 s           0.216 s
          | Total time for Hartree multipole update    :        0.140 s           0.143 s
          | Total time for Hartree multipole sum       :        5.754 s           5.766 s
          | Total time for total energy evaluation     :        0.003 s           0.001 s
          | Total time for vdW correction              :        0.090 s           0.090 s

          Partial memory accounting:
          | Residual value for overall tracked memory usage across tasks :           0.000 MB (should be 0.000 MB)
          | Peak values for overall tracked memory usage (after allocating hessian_basis_wave):
          |   Minimum:        1.612 MB (on task 1)
          |   Maximum:        1.612 MB (on task 1)
          |   Average:        1.612 MB
          | Largest tracked array allocation (hessian_basis_wave):
          |   Minimum:        0.788 MB (on task 1)
          |   Maximum:        0.788 MB (on task 1)
          |   Average:        0.788 MB
          Note:  These values currently only include a subset of arrays which are explicitly tracked.
          The "true" memory usage will be greater.

          Have a nice day.
------------------------------------------------------------
