  MPI-parallelism will be employed.
------------------------------------------------------------
          Invoking FHI-aims ...
          Version 171221_1
          Compiled on 2019/09/09 at 14:39:39 on host puhti-login2.bullx.

          When using FHI-aims, please cite the following reference:

          Volker Blum, Ralf Gehrke, Felix Hanke, Paula Havu,
          Ville Havu, Xinguo Ren, Karsten Reuter, and Matthias Scheffler,
          'Ab Initio Molecular Simulations with Numeric Atom-Centered Orbitals',
          Computer Physics Communications 180, 2175-2196 (2009)

          For any questions about FHI-aims, please visit the aimsclub website
          with its forums and wiki. Contributions to both the forums and the
          wiki are warmly encouraged - they are for you, and everyone is welcome there.

------------------------------------------------------------



  Date     :  20200602, Time     :  141715.337
  Time zero on CPU 1             :   0.277620000000000E-01  s.
  Internal wall clock time zero  :           360339435.337  s.

  FHI-aims created a unique identifier for this run for later identification
  aims_uuid : B36A6765-7184-46A7-A9EF-B99581D685CD

  Using       20 parallel tasks.
  Task        0 on host r07c01.bullx reporting.
  Task        1 on host r07c01.bullx reporting.
  Task        2 on host r07c01.bullx reporting.
  Task        3 on host r07c01.bullx reporting.
  Task        4 on host r07c01.bullx reporting.
  Task        5 on host r07c01.bullx reporting.
  Task        6 on host r07c01.bullx reporting.
  Task        7 on host r07c01.bullx reporting.
  Task        8 on host r07c01.bullx reporting.
  Task        9 on host r07c01.bullx reporting.
  Task       10 on host r07c01.bullx reporting.
  Task       11 on host r07c01.bullx reporting.
  Task       12 on host r07c01.bullx reporting.
  Task       13 on host r07c01.bullx reporting.
  Task       14 on host r07c01.bullx reporting.
  Task       15 on host r07c01.bullx reporting.
  Task       16 on host r07c01.bullx reporting.
  Task       17 on host r07c01.bullx reporting.
  Task       18 on host r07c01.bullx reporting.
  Task       19 on host r07c01.bullx reporting.

  Performing system and environment tests:
  | Environment variable OMP_NUM_THREADS correctly set to 1.
  | Stacksize not measured: no C compiler
  | Checking for scalapack...
  | Testing pdtran()...
  | All pdtran() tests passed.

  Obtaining array dimensions for all initial allocations:
  
  -----------------------------------------------------------------------
  Parsing control.in (first pass over file, find array dimensions only).
  The contents of control.in will be repeated verbatim below
  unless switched off by setting 'verbatim_writeout .false.' .
  in the first line of control.in .
  -----------------------------------------------------------------------
  
  #########################################################################################
  #
  #  Volker Blum, FHI 2009 : Test run input file control.in for simple H2O
  #
  #########################################################################################
  #
  #  Physical model
  #
    xc                 pbe
    vdw_correction_hirshfeld
    spin               none
    relativistic       none
    charge             0.
  #
  #  SCF convergence
  #
    occupation_type    gaussian 0.01
    mixer              pulay
      n_max_pulay        10
      charge_mix_param   0.2
    sc_accuracy_rho    1E-5
    sc_accuracy_eev    1E-3
    sc_accuracy_etot   1E-6
    sc_accuracy_forces 1E-4
    sc_iter_limit      100
  #
  #  Relaxation
  #
  #  relax_geometry   bfgs 1.e-3
  #
  ################################################################################
  #
  #  FHI-aims code project
  #  VB, Fritz-Haber Institut, 2009
  #
  #  Suggested "light" defaults for H atom (to be pasted into control.in file)
  #  Be sure to double-check any results obtained with these settings for post-processing,
  #  e.g., with the "tight" defaults and larger basis sets.
  #
  ################################################################################
    species        H
  #     global species definitions
      nucleus             1
      mass                1.00794
  #
      l_hartree           4
  #
      cut_pot             3.5  1.5  1.0
      basis_dep_cutoff    1e-4
  #
      radial_base         24 5.0
      radial_multiplier   1
      angular_grids       specified
        division   0.2421   50
        division   0.3822  110
        division   0.4799  194
        division   0.5341  302
  #      division   0.5626  434
  #      division   0.5922  590
  #      division   0.6542  770
  #      division   0.6868 1202
  #      outer_grid  770
        outer_grid  302
  ################################################################################
  #
  #  Definition of "minimal" basis
  #
  ################################################################################
  #     valence basis states
      valence      1  s   1.
  #     ion occupancy
      ion_occ      1  s   0.5
  ################################################################################
  #
  #  Suggested additional basis functions. For production calculations,
  #  uncomment them one after another (the most important basis functions are
  #  listed first).
  #
  #  Basis constructed for dimers: 0.5 A, 0.7 A, 1.0 A, 1.5 A, 2.5 A
  #
  ################################################################################
  #  "First tier" - improvements: -1014.90 meV to -62.69 meV
       hydro 2 s 2.1
       hydro 2 p 3.5
  #  "Second tier" - improvements: -12.89 meV to -1.83 meV
  #     hydro 1 s 0.85
  #     hydro 2 p 3.7
  #     hydro 2 s 1.2
  #     hydro 3 d 7
  #  "Third tier" - improvements: -0.25 meV to -0.12 meV
  #     hydro 4 f 11.2
  #     hydro 3 p 4.8
  #     hydro 4 d 9
  #     hydro 3 s 3.2
  ################################################################################
  #
  #  FHI-aims code project
  #  VB, Fritz-Haber Institut, 2009
  #
  #  Suggested "light" defaults for C atom (to be pasted into control.in file)
  #  Be sure to double-check any results obtained with these settings for post-processing,
  #  e.g., with the "tight" defaults and larger basis sets.
  #
  ################################################################################
    species        C
  #     global species definitions
      nucleus             6
      mass                12.0107
  #
      l_hartree           4
  #
      cut_pot             3.5  1.5  1.0
      basis_dep_cutoff    1e-4
  #
      radial_base         34 5.0
      radial_multiplier   1
      angular_grids specified
        division   0.3326   50
        division   0.5710  110
        division   0.7727  194
        division   0.8772  302
  #      division   0.9334  434
  #      division   0.9625  590
  #      division   0.9924  770
  #      division   1.0230  974
  #      division   1.4589 1202
  #     outer_grid  974
       outer_grid 302
  ################################################################################
  #
  #  Definition of "minimal" basis
  #
  ################################################################################
  #     valence basis states
      valence      2  s   2.
      valence      2  p   2.
  #     ion occupancy
      ion_occ      2  s   1.
      ion_occ      2  p   1.
  ################################################################################
  #
  #  Suggested additional basis functions. For production calculations,
  #  uncomment them one after another (the most important basis functions are
  #  listed first).
  #
  #  Constructed for dimers: 1.0 A, 1.25 A, 1.5 A, 2.0 A, 3.0 A
  #
  ################################################################################
  #  "First tier" - improvements: -1214.57 meV to -155.61 meV
       hydro 2 p 1.7
       hydro 3 d 6
       hydro 2 s 4.9
  #  "Second tier" - improvements: -67.75 meV to -5.23 meV
  #     hydro 4 f 9.8
  #     hydro 3 p 5.2
  #     hydro 3 s 4.3
  #     hydro 5 g 14.4
  #     hydro 3 d 6.2
  #  "Third tier" - improvements: -2.43 meV to -0.60 meV
  #     hydro 2 p 5.6
  #     hydro 2 s 1.4
  #     hydro 3 d 4.9
  #     hydro 4 f 11.2
  #  "Fourth tier" - improvements: -0.39 meV to -0.18 meV
  #     hydro 2 p 2.1
  #     hydro 5 g 16.4
  #     hydro 4 d 13.2
  #     hydro 3 s 13.6
  #     hydro 4 f 17.6
  #  Further basis functions - improvements: -0.08 meV and below
  #     hydro 3 s 2
  #     hydro 3 p 6
  #     hydro 4 d 20
  ################################################################################
  #
  #  FHI-aims code project
  #  VB, Fritz-Haber Institut, 2009
  #
  #  Suggested "light" defaults for N atom (to be pasted into control.in file)
  #  Be sure to double-check any results obtained with these settings for post-processing,
  #  e.g., with the "tight" defaults and larger basis sets.
  #
  ################################################################################
    species        N
  #     global species definitions
      nucleus             7
      mass                14.0067
  #
      l_hartree           4
  #
      cut_pot             3.5  1.5  1.0
      basis_dep_cutoff    1e-4
  #
      radial_base         35 5.0
      radial_multiplier   1
      angular_grids       specified
        division   0.2599   50
        division   0.4601  110
        division   0.5885  194
        division   0.6503  302
  #      division   0.6939  434
  #      division   0.7396  590
  #      division   0.7632  770
  #      division   0.8122  974
  #      division   1.1604 1202
  #      outer_grid  974
        outer_grid  302
  ################################################################################
  #
  #  Definition of "minimal" basis
  #
  ################################################################################
  #     valence basis states
      valence      2  s   2.
      valence      2  p   3.
  #     ion occupancy
      ion_occ      2  s   1.
      ion_occ      2  p   2.
  ################################################################################
  #
  #  Suggested additional basis functions. For production calculations,
  #  uncomment them one after another (the most important basis functions are
  #  listed first).
  #
  #  Constructed for dimers: 1.0 A, 1.1 A, 1.5 A, 2.0 A, 3.0 A
  #
  ################################################################################
  #  "First tier" - improvements: -1193.42 meV to -220.60 meV
       hydro 2 p 1.8
       hydro 3 d 6.8
       hydro 3 s 5.8
  #  "Second tier" - improvements: -80.21 meV to -6.86 meV
  #     hydro 4 f 10.8
  #     hydro 3 p 5.8
  #     hydro 1 s 0.8
  #     hydro 5 g 16
  #     hydro 3 d 4.9
  #  "Third tier" - improvements: -4.29 meV to -0.53 meV
  #     hydro 3 s 16
  #     ionic 2 p auto
  #     hydro 3 d 6.6
  #     hydro 4 f 11.6
  #  "Fourth tier" - improvements: -0.75 meV to -0.25 meV
  #     hydro 2 p 4.5
  #     hydro 2 s 2.4
  #     hydro 5 g 14.4
  #     hydro 4 d 14.4
  #     hydro 4 f 16.8
  # Further basis functions - -0.21 meV and below
  #     hydro 3 p 14.8
  #     hydro 3 s 4.4
  #     hydro 3 d 19.6
  #     hydro 5 g 12.8
  ################################################################################
  #
  #  FHI-aims code project
  #  VB, Fritz-Haber Institut, 2009
  #
  #  Suggested "light" defaults for O atom (to be pasted into control.in file)
  #  Be sure to double-check any results obtained with these settings for post-processing,
  #  e.g., with the "tight" defaults and larger basis sets.
  #
  ################################################################################
    species        O
  #     global species definitions
      nucleus             8
      mass                15.9994
  #
      l_hartree           4
  #
      cut_pot             3.5  1.5  1.0
      basis_dep_cutoff    1e-4
  #
      radial_base         36 5.0
      radial_multiplier   1
       angular_grids specified
        division   0.2659   50
        division   0.4451  110
        division   0.6052  194
        division   0.7543  302
  #      division   0.8014  434
  #      division   0.8507  590
  #      division   0.8762  770
  #      division   0.9023  974
  #      division   1.2339 1202
  #      outer_grid 974
        outer_grid 302
  ################################################################################
  #
  #  Definition of "minimal" basis
  #
  ################################################################################
  #     valence basis states
      valence      2  s   2.
      valence      2  p   4.
  #     ion occupancy
      ion_occ      2  s   1.
      ion_occ      2  p   3.
  ################################################################################
  #
  #  Suggested additional basis functions. For production calculations,
  #  uncomment them one after another (the most important basis functions are
  #  listed first).
  #
  #  Constructed for dimers: 1.0 A, 1.208 A, 1.5 A, 2.0 A, 3.0 A
  #
  ################################################################################
  #  "First tier" - improvements: -699.05 meV to -159.38 meV
       hydro 2 p 1.8
       hydro 3 d 7.6
       hydro 3 s 6.4
  #  "Second tier" - improvements: -49.91 meV to -5.39 meV
  #     hydro 4 f 11.6
  #     hydro 3 p 6.2
  #     hydro 3 d 5.6
  #     hydro 5 g 17.6
  #     hydro 1 s 0.75
  #  "Third tier" - improvements: -2.83 meV to -0.50 meV
  #     ionic 2 p auto
  #     hydro 4 f 10.8
  #     hydro 4 d 4.7
  #     hydro 2 s 6.8
  #  "Fourth tier" - improvements: -0.40 meV to -0.12 meV
  #     hydro 3 p 5
  #     hydro 3 s 3.3
  #     hydro 5 g 15.6
  #     hydro 4 f 17.6
  #     hydro 4 d 14
  # Further basis functions - -0.08 meV and below
  #     hydro 3 s 2.1
  #     hydro 4 d 11.6
  #     hydro 3 p 16
  #     hydro 2 s 17.2
  
  -----------------------------------------------------------------------
  Completed first pass over input file control.in .
  -----------------------------------------------------------------------
  
  
  -----------------------------------------------------------------------
  Parsing geometry.in (first pass over file, find array dimensions only).
  The contents of geometry.in will be repeated verbatim below
  unless switched off by setting 'verbatim_writeout .false.' .
  in the first line of geometry.in .
  -----------------------------------------------------------------------
  
  atom  0.00000 0.00000 0.00000 C
  atom  1.09300 0.00000 0.00000 H
  atom  -0.47961 0.00000 -1.41207 N
  atom  -1.07076 0.81942 -1.55672 H
  atom  0.32746 0.03465 -2.03139 H
  atom  -0.49584 1.26211 0.72868 C
  atom  -0.05791 2.15751 0.28143 H
  atom  -1.58367 1.33816 0.66236 H
  atom  -0.21444 1.22863 1.78378 H
  atom  -0.39425 -1.28861 0.74398 C
  atom  0.27385 -2.29194 0.82292 O
  atom  -1.54897 -1.27254 1.32975 O
  atom  -1.24578 -1.09481 2.23610 H
  
  -----------------------------------------------------------------------
  Completed first pass over input file geometry.in .
  -----------------------------------------------------------------------
  

  Basic array size parameters:
  | Number of species                 :        4
  | Number of atoms                   :       13
  | Max. basis fn. angular momentum   :        2
  | Max. atomic/ionic basis occupied n:        2
  | Max. number of basis fn. types    :        2
  | Max. radial fns per species/type  :        3
  | Max. logarithmic grid size        :     1301
  | Max. radial integration grid size :       36
  | Max. angular integration grid size:      302
  | Max. angular grid division number :        8
  | Radial grid for Hartree potential :     1301
  | Number of spin channels           :        1

------------------------------------------------------------
          Reading file control.in.
------------------------------------------------------------
  XC: Using PBE gradient-corrected functionals.
  Spin treatment: No spin polarisation.
  Non-relativistic treatment of kinetic energy.
  Charge =   0.000000E+00: Neutral system requested explicitly.
  Occupation type: Gaussian broadening, width =   0.100000E-01 eV.
  Using pulay charge density mixing.
  Pulay mixing - number of memorized iterations:   10
  Charge density mixing - mixing parameter:     0.2000
  Convergence accuracy of self-consistent charge density:  0.1000E-04
  Convergence accuracy of sum of eigenvalues:  0.1000E-02
  Convergence accuracy of total energy:  0.1000E-05
  Convergence accuracy of forces:  0.1000E-03
  Maximum number of s.-c. iterations  :   100
 
  Reading configuration options for species H                   .
  | Found nuclear charge :   1.0000
  | Found atomic mass :    1.00794000000000      amu
  | Found l_max for Hartree potential  :   4
  | Found cutoff potl. onset [A], width [A], scale factor :    3.50000    1.50000    1.00000
  | Threshold for basis-dependent cutoff potential is   0.100000E-03
  | Found data for basic radial integration grid :    24 points, outermost radius =    5.000 A
  | Found multiplier for basic radial grid :   1
  | Found angular grid specification: user-specified.
  | Specified grid contains     5 separate shells.
  | Check grid settings after all constraints further below.
  | Found free-atom valence shell :  1 s   1.000
  | No ionic wave fns used. Skipping ion_occ.
  | Found hydrogenic basis function :  2 s   2.100
  | Found hydrogenic basis function :  2 p   3.500
  Species H                   : Missing cutoff potential type.
  Defaulting to exp(1/x)/(1-x)^2 type cutoff potential.
  Species H : No 'logarithmic' tag. Using default grid for free atom:
  | Default logarithmic grid data [bohr] : 0.1000E-03 0.1000E+03 0.1012E+01
  Species H : On-site basis accuracy parameter (for Gram-Schmidt orthonormalisation) not specified.
  Using default value basis_acc =  0.1000000E-03.
  Species H                   : Using default innermost maximum threshold i_radial=  2 for radial functions.
  Species H                   : Default cutoff onset for free atom density etc. : 0.35000000E+01 AA.
  Species H                   : Basic radial grid will be enhanced according to radial_multiplier =   1, to contain    24 grid points.
 
  Reading configuration options for species C                   .
  | Found nuclear charge :   6.0000
  | Found atomic mass :    12.0107000000000      amu
  | Found l_max for Hartree potential  :   4
  | Found cutoff potl. onset [A], width [A], scale factor :    3.50000    1.50000    1.00000
  | Threshold for basis-dependent cutoff potential is   0.100000E-03
  | Found data for basic radial integration grid :    34 points, outermost radius =    5.000 A
  | Found multiplier for basic radial grid :   1
  | Found angular grid specification: user-specified.
  | Specified grid contains     5 separate shells.
  | Check grid settings after all constraints further below.
  | Found free-atom valence shell :  2 s   2.000
  | Found free-atom valence shell :  2 p   2.000
  | No ionic wave fns used. Skipping ion_occ.
  | No ionic wave fns used. Skipping ion_occ.
  | Found hydrogenic basis function :  2 p   1.700
  | Found hydrogenic basis function :  3 d   6.000
  | Found hydrogenic basis function :  2 s   4.900
  Species C                   : Missing cutoff potential type.
  Defaulting to exp(1/x)/(1-x)^2 type cutoff potential.
  Species C : No 'logarithmic' tag. Using default grid for free atom:
  | Default logarithmic grid data [bohr] : 0.1000E-03 0.1000E+03 0.1012E+01
  Species C : On-site basis accuracy parameter (for Gram-Schmidt orthonormalisation) not specified.
  Using default value basis_acc =  0.1000000E-03.
  Species C                   : Using default innermost maximum threshold i_radial=  2 for radial functions.
  Species C                   : Default cutoff onset for free atom density etc. : 0.35000000E+01 AA.
  Species C                   : Basic radial grid will be enhanced according to radial_multiplier =   1, to contain    34 grid points.
 
  Reading configuration options for species N                   .
  | Found nuclear charge :   7.0000
  | Found atomic mass :    14.0067000000000      amu
  | Found l_max for Hartree potential  :   4
  | Found cutoff potl. onset [A], width [A], scale factor :    3.50000    1.50000    1.00000
  | Threshold for basis-dependent cutoff potential is   0.100000E-03
  | Found data for basic radial integration grid :    35 points, outermost radius =    5.000 A
  | Found multiplier for basic radial grid :   1
  | Found angular grid specification: user-specified.
  | Specified grid contains     5 separate shells.
  | Check grid settings after all constraints further below.
  | Found free-atom valence shell :  2 s   2.000
  | Found free-atom valence shell :  2 p   3.000
  | No ionic wave fns used. Skipping ion_occ.
  | No ionic wave fns used. Skipping ion_occ.
  | Found hydrogenic basis function :  2 p   1.800
  | Found hydrogenic basis function :  3 d   6.800
  | Found hydrogenic basis function :  3 s   5.800
  Species N                   : Missing cutoff potential type.
  Defaulting to exp(1/x)/(1-x)^2 type cutoff potential.
  Species N : No 'logarithmic' tag. Using default grid for free atom:
  | Default logarithmic grid data [bohr] : 0.1000E-03 0.1000E+03 0.1012E+01
  Species N : On-site basis accuracy parameter (for Gram-Schmidt orthonormalisation) not specified.
  Using default value basis_acc =  0.1000000E-03.
  Species N                   : Using default innermost maximum threshold i_radial=  2 for radial functions.
  Species N                   : Default cutoff onset for free atom density etc. : 0.35000000E+01 AA.
  Species N                   : Basic radial grid will be enhanced according to radial_multiplier =   1, to contain    35 grid points.
 
  Reading configuration options for species O                   .
  | Found nuclear charge :   8.0000
  | Found atomic mass :    15.9994000000000      amu
  | Found l_max for Hartree potential  :   4
  | Found cutoff potl. onset [A], width [A], scale factor :    3.50000    1.50000    1.00000
  | Threshold for basis-dependent cutoff potential is   0.100000E-03
  | Found data for basic radial integration grid :    36 points, outermost radius =    5.000 A
  | Found multiplier for basic radial grid :   1
  | Found angular grid specification: user-specified.
  | Specified grid contains     5 separate shells.
  | Check grid settings after all constraints further below.
  | Found free-atom valence shell :  2 s   2.000
  | Found free-atom valence shell :  2 p   4.000
  | No ionic wave fns used. Skipping ion_occ.
  | No ionic wave fns used. Skipping ion_occ.
  | Found hydrogenic basis function :  2 p   1.800
  | Found hydrogenic basis function :  3 d   7.600
  | Found hydrogenic basis function :  3 s   6.400
  Species O                   : Missing cutoff potential type.
  Defaulting to exp(1/x)/(1-x)^2 type cutoff potential.
  Species O : No 'logarithmic' tag. Using default grid for free atom:
  | Default logarithmic grid data [bohr] : 0.1000E-03 0.1000E+03 0.1012E+01
  Species O : On-site basis accuracy parameter (for Gram-Schmidt orthonormalisation) not specified.
  Using default value basis_acc =  0.1000000E-03.
  Species O                   : Using default innermost maximum threshold i_radial=  2 for radial functions.
  Species O                   : Default cutoff onset for free atom density etc. : 0.35000000E+01 AA.
  Species O                   : Basic radial grid will be enhanced according to radial_multiplier =   1, to contain    36 grid points.
 
  Finished reading input file 'control.in'. Consistency checks are next.
 
  MPI_IN_PLACE appears to work with this MPI implementation.
  | Keeping use_mpi_in_place .true. (see manual).
  Target number of points in a grid batch is not set. Defaulting to  100
  Method for grid partitioning is not set. Defaulting to parallel hash+maxmin partitioning.
  Batch size limit is not set. Defaulting to    200
  By default, will store active basis functions for each batch.
  If in need of memory, prune_basis_once .false. can be used to disable this option.
  communication_type for Hartree potential was not specified.
  Defaulting to calc_hartree .
  Pulay mixer: Number of initial linear mixing iterations not set.
  Defaulting to    0 iterations.
  Work space size for distributed Hartree potential not set.
  Defaulting to   0.200000E+03 MB.
  Algorithm-dependent basis array size parameters:
  | n_max_pulay                         :       10
  Presetting      1001 iterations before the initial mixing cycle
  is restarted anyway using the sc_init_iter criterion / keyword.
  Presetting a factor      1.000 between actual scf density residual
  and density convergence criterion sc_accuracy_rho below which sc_init_iter
  takes no effect.
  Geometry relaxation not requested: no relaxation will be performed.
  Handling of forces: Unphysical translation and rotation will be removed from forces.
  No accuracy limit for integral partition fn. given. Defaulting to  0.1000E-14.
  No threshold value for u(r) in integrations given. Defaulting to  0.1000E-05.
  No accuracy for occupation numbers given. Defaulting to  0.1000E-12.
  No threshold value for occupation numbers given. Defaulting to  0.0000E+00.
  No accuracy for fermi level given. Defaulting to  0.1000E-19.
  Maximum # of iterations to find E_F not set. Defaulting to  200.
  Preferred method for the eigenvalue solver ('KS_method') not specified in 'control.in'.
  Calling BLACS routine to test compilation state
  Since ScaLAPACK support is enabled, defaulting to 'elsi'.
  Will not use alltoall communication since running on < 1024 CPUs.
  Threshold for basis singularities not set.
  Default threshold for basis singularities:  0.1000E-04
  partition_type (choice of integration weights) for integrals was not specified.
  | Using a version of the partition function of Stratmann and coworkers ('stratmann_smoother').
  | At each grid point, the set of atoms used to build the partition table is smoothly restricted to
  | only those atoms whose free-atom density would be non-zero at that grid point.
  Partitioning for Hartree potential was not defined. Using partition_type for integrals.
  | Adjusted default value of keyword multip_moments_threshold to:       0.10000000E-11
  | This value may affect high angular momentum components of the Hartree potential in periodic systems.
  No q(lm)/r^(l+1) cutoff set for long-range Hartree potential.
  | Using default value of  0.100000E-09 .
  | Verify using the multipole_threshold keyword.
  Defaulting to new monopole extrapolation.
  Density update method: automatic selection selected.
------------------------------------------------------------


------------------------------------------------------------
          Reading geometry description geometry.in.
------------------------------------------------------------
  Input structure read successfully.
  The structure contains       13 atoms,  and a total of         48.000 electrons.

  Input geometry:
  | No unit cell requested.
  | Atomic structure:
  |       Atom                x [A]            y [A]            z [A]
  |    1: Species C             0.00000000        0.00000000        0.00000000
  |    2: Species H             1.09300000        0.00000000        0.00000000
  |    3: Species N            -0.47961000        0.00000000       -1.41207000
  |    4: Species H            -1.07076000        0.81942000       -1.55672000
  |    5: Species H             0.32746000        0.03465000       -2.03139000
  |    6: Species C            -0.49584000        1.26211000        0.72868000
  |    7: Species H            -0.05791000        2.15751000        0.28143000
  |    8: Species H            -1.58367000        1.33816000        0.66236000
  |    9: Species H            -0.21444000        1.22863000        1.78378000
  |   10: Species C            -0.39425000       -1.28861000        0.74398000
  |   11: Species O             0.27385000       -2.29194000        0.82292000
  |   12: Species O            -1.54897000       -1.27254000        1.32975000
  |   13: Species H            -1.24578000       -1.09481000        2.23610000
  |

  | The smallest distance between any two atoms is         0.97210208 AA.
  |
  | The first atom of this pair is atom number                     12 .
  | The second atom of this pair is atom number                    13 .

  Number of empty states per atom not set in control.in - providing a guess from actual geometry.
  | Total number of empty states used during s.c.f. cycle:       29
  If you use a very high smearing, use empty_states (per atom!) in control.in to increase this value.

  Structure-dependent array size parameters: 
  | Maximum number of distinct radial functions  :       21
  | Maximum number of basis functions            :      119
  | Number of Kohn-Sham states (occupied + empty):       53
------------------------------------------------------------

------------------------------------------------------------
          Preparing all fixed parts of the calculation.
------------------------------------------------------------
  Determining machine precision:
    2.225073858507201E-308
  Setting up grids for atomic and cluster calculations.

  Creating wave function, potential, and density for free atoms.

  Species: H

  List of occupied orbitals and eigenvalues:
    n    l              occ      energy [Ha]    energy [eV]
    1    0           1.0000        -0.237589        -6.4651


  Species: C

  List of occupied orbitals and eigenvalues:
    n    l              occ      energy [Ha]    energy [eV]
    1    0           2.0000       -10.038835      -273.1706
    2    0           2.0000        -0.502696       -13.6791
    2    1           2.0000        -0.191971        -5.2238


  Species: N

  List of occupied orbitals and eigenvalues:
    n    l              occ      energy [Ha]    energy [eV]
    1    0           2.0000       -14.128000      -384.4424
    2    0           2.0000        -0.681077       -18.5330
    2    1           3.0000        -0.259788        -7.0692


  Species: O

  List of occupied orbitals and eigenvalues:
    n    l              occ      energy [Ha]    energy [eV]
    1    0           2.0000       -18.898188      -514.2459
    2    0           2.0000        -0.878505       -23.9053
    2    1           4.0000        -0.331779        -9.0282

  Creating fixed part of basis set: Ionic, confined, hydrogenic.
 
  H                    hydrogenic:
 
  List of hydrogenic basis orbitals: 
    n    l      effective z      eigenvalue [eV]  inner max. [A]     outer max. [A]     outer radius [A]   
    2    0         2.100000       -14.9728           0.193243           1.317208           4.583499
    2    1         3.500000       -41.6669           0.602369           0.602369           3.723403
 
 
  C                    hydrogenic:
 
  List of hydrogenic basis orbitals: 
    n    l      effective z      eigenvalue [eV]  inner max. [A]     outer max. [A]     outer radius [A]   
    2    1         1.700000        -9.7616           1.230570           1.230570           4.607917
    3    2         6.000000       -54.4224           0.792453           0.792453           3.883070
    2    0         4.900000       -81.6679           0.082559           0.562749           3.078220
 
 
  N                    hydrogenic:
 
  List of hydrogenic basis orbitals: 
    n    l      effective z      eigenvalue [eV]  inner max. [A]     outer max. [A]     outer radius [A]   
    2    1         1.800000       -10.9749           1.177451           1.177451           4.573712
    3    2         6.800000       -69.9026           0.704619           0.704619           3.538137
    3    0         5.800000       -50.8545           0.067388           1.191934           4.250239
 
 
  O                    hydrogenic:
 
  List of hydrogenic basis orbitals: 
    n    l      effective z      eigenvalue [eV]  inner max. [A]     outer max. [A]     outer radius [A]   
    2    1         1.800000       -10.9749           1.164242           1.164242           4.578029
    3    2         7.600000       -87.3180           0.624125           0.624125           3.251020
    3    0         6.400000       -61.9207           0.061167           1.081902           4.001998
 

  Adding cutoff potential to free-atom effective potential.
  Creating atomic-like basis functions for current effective potential.

  Species H                   :

  List of atomic basis orbitals and eigenvalues:
    n    l      energy [Ha]    energy [eV]    outer radius [A]
    1    0        -0.237589        -6.4651       4.527807


  Species C                   :

  List of atomic basis orbitals and eigenvalues:
    n    l      energy [Ha]    energy [eV]    outer radius [A]
    1    0       -10.038835      -273.1706       1.934409
    2    0        -0.502696       -13.6791       4.496620
    2    1        -0.191971        -5.2238       4.551928


  Species N                   :

  List of atomic basis orbitals and eigenvalues:
    n    l      energy [Ha]    energy [eV]    outer radius [A]
    1    0       -14.128000      -384.4424       1.637919
    2    0        -0.681077       -18.5330       4.463241
    2    1        -0.259788        -7.0692       4.518138


  Species O                   :

  List of atomic basis orbitals and eigenvalues:
    n    l      energy [Ha]    energy [eV]    outer radius [A]
    1    0       -18.898188      -514.2459       1.415765
    2    0        -0.878505       -23.9053       4.413171
    2    1        -0.331779        -9.0282       4.522403

  Assembling full basis from fixed parts.
  | Species H :   atomic orbital   1 s accepted.
  | Species H :    hydro orbital   2 s accepted.
  | Species H :    hydro orbital   2 p accepted.
  | Species C :   atomic orbital   1 s accepted.
  | Species C :    hydro orbital   2 s accepted.
  | Species C :   atomic orbital   2 s accepted.
  | Species C :   atomic orbital   2 p accepted.
  | Species C :    hydro orbital   2 p accepted.
  | Species C :    hydro orbital   3 d accepted.
  | Species N :   atomic orbital   1 s accepted.
  | Species N :    hydro orbital   3 s accepted.
  | Species N :   atomic orbital   2 s accepted.
  | Species N :   atomic orbital   2 p accepted.
  | Species N :    hydro orbital   2 p accepted.
  | Species N :    hydro orbital   3 d accepted.
  | Species O :   atomic orbital   1 s accepted.
  | Species O :    hydro orbital   3 s accepted.
  | Species O :   atomic orbital   2 s accepted.
  | Species O :   atomic orbital   2 p accepted.
  | Species O :    hydro orbital   2 p accepted.
  | Species O :    hydro orbital   3 d accepted.
 
  Basis size parameters after reduction:
  | Total number of radial functions:       21
  | Total number of basis functions :      119
 
  Per-task memory consumption for arrays in subroutine allocate_ext:
  |           5.250512MB.
  Testing on-site integration grid accuracy.
  |  Species  Function  <phi|h_atom|phi> (log., in eV)  <phi|h_atom|phi> (rad., in eV)
           1        1                 -6.4663192853                 -6.4651273558
           1        2                 13.7111246313                 13.7170609718
           1        3                 25.2673269279                 25.2674696378
           2        4               -273.1705927641               -273.1705631568
           2        5                -10.7109323383                -10.7107120029
           2        6                 17.4381822266                 17.4352413244
           2        7                 -5.2255326521                 -5.2270484734
           2        8                  8.6835629259                  8.6603288385
           2        9                 27.4952418996                 27.4953360207
           3       10               -384.4424306495               -384.4423701208
           3       11                 12.5842251816                 12.5842222903
           3       12                -15.7264628251                -15.7264433455
           3       13                 -7.0696854293                 -7.0701769954
           3       14                  8.8090390882                  8.7901077751
           3       15                 35.9586762123                 35.9588528632
           4       16               -514.2458688638               -514.2457643834
           4       17                 15.1795651126                 15.1795290741
           4       18                -21.5359799773                -21.5360846186
           4       19                 -9.0283069236                 -9.0284644067
           4       20                  8.3027758564                  8.2834874195
           4       21                 45.8339351984                 45.8338762259

  Preparing densities etc. for the partition functions (integrals / Hartree potential).

  Preparations completed.
  max(cpu_time)          :      0.165 s.
  Wall clock time (cpu1) :      0.165 s.
------------------------------------------------------------

------------------------------------------------------------
          Begin self-consistency loop: Initialization.

          Date     :  20200602, Time     :  141715.539
------------------------------------------------------------

  Initializing index lists of integration centers etc. from given atomic structure:
  | Number of centers in hartree potential         :        13
  | Number of centers in hartree multipole         :        13
  | Number of centers in electron density summation:        13
  | Number of centers in basis integrals           :        13
  | Number of centers in integrals                 :        13
  | Number of centers in hamiltonian               :        13
  * Using 20 tasks for Scalapack Eigenvalue solver.
  Detailed listing of tasks and assigned k-points:
  (for non-periodic systems, the "k-point" denotes an internal label only)
   Task     0 k-point     1 on r07c01.bullx
   Task     1 k-point     1 on r07c01.bullx
   Task     2 k-point     1 on r07c01.bullx
   Task     3 k-point     1 on r07c01.bullx
   Task     4 k-point     1 on r07c01.bullx
   Task     5 k-point     1 on r07c01.bullx
   Task     6 k-point     1 on r07c01.bullx
   Task     7 k-point     1 on r07c01.bullx
   Task     8 k-point     1 on r07c01.bullx
   Task     9 k-point     1 on r07c01.bullx
   Task    10 k-point     1 on r07c01.bullx
   Task    11 k-point     1 on r07c01.bullx
   Task    12 k-point     1 on r07c01.bullx
   Task    13 k-point     1 on r07c01.bullx
   Task    14 k-point     1 on r07c01.bullx
   Task    15 k-point     1 on r07c01.bullx
   Task    16 k-point     1 on r07c01.bullx
   Task    17 k-point     1 on r07c01.bullx
   Task    18 k-point     1 on r07c01.bullx
   Task    19 k-point     1 on r07c01.bullx
  Tasks:    20 split into      5 X      4 BLACS grid
  Calculating block size based on n_basis =          119  max_nprow =            5  max_npcol =            4
  ScaLAPACK block size set to:           16
  Allocating        0.008 MB for ovlp
  Allocating        0.008 MB for ham
  Allocating        0.008 MB for eigenvec
  Required Scalapack workspace - INTEGER:            1  REAL:             1
  Partitioning the integration grid into batches with parallel hashing+maxmin method.
  | Number of batches:      821
  | Maximal batch size:     185
  | Minimal batch size:      54
  | Average batch size:      84.831
  | Standard deviation of batch sizes:      16.831

  Integration load balanced across    20 MPI tasks.
  Work distribution over tasks is as follows:
  Task     0 has       3421 integration points.
  Task     1 has       3469 integration points.
  Task     2 has       3562 integration points.
  Task     3 has       3434 integration points.
  Task     4 has       3518 integration points.
  Task     5 has       3438 integration points.
  Task     6 has       3524 integration points.
  Task     7 has       3592 integration points.
  Task     8 has       3548 integration points.
  Task     9 has       3489 integration points.
  Task    10 has       3488 integration points.
  Task    11 has       3418 integration points.
  Task    12 has       3520 integration points.
  Task    13 has       3490 integration points.
  Task    14 has       3429 integration points.
  Task    15 has       3479 integration points.
  Task    16 has       3481 integration points.
  Task    17 has       3483 integration points.
  Task    18 has       3422 integration points.
  Task    19 has       3441 integration points.
  Initializing partition tables, free-atom densities, potentials, etc. across the integration grid (initialize_grid_storage).
  | initialize_grid_storage: Actual outermost partition radius vs. multipole_radius_free
  | (-- VB: in principle, multipole_radius_free should be larger, hence this output)
  | Species        1: Confinement radius =              4.999999999999999 AA, multipole_radius_free =              5.054417573612229 AA.
  | Species        1: outer_partition_radius set to              5.054417573612229 AA .
  | Species        2: Confinement radius =              4.999999999999999 AA, multipole_radius_free =              5.019602836301480 AA.
  | Species        2: outer_partition_radius set to              5.019602836301480 AA .
  | Species        3: Confinement radius =              4.999999999999999 AA, multipole_radius_free =              5.043624274424571 AA.
  | Species        3: outer_partition_radius set to              5.043624274424571 AA .
  | Species        4: Confinement radius =              4.999999999999999 AA, multipole_radius_free =              5.048384829883283 AA.
  | Species        4: outer_partition_radius set to              5.048384829883283 AA .
  | Original list of interatomic distances with          13 x         13 entries is created.
  | Net number of integration points:    69646
  | of which are non-zero points    :    59469
  Renormalizing the initial density to the exact electron count on the 3D integration grid.
  | Initial density: Formal number of electrons (from input files) :      48.0000000000
  | Integrated number of electrons on 3D grid     :      47.9998786430
  | Charge integration error                      :      -0.0001213570
  | Normalization factor for density and gradient :       1.0000025283
  Obtaining max. number of non-zero basis functions in each batch (get_n_compute_maxes).
  | Maximal number of non-zero basis functions:      118 in task     0
  | Maximal number of non-zero basis functions:      118 in task     1
  | Maximal number of non-zero basis functions:      118 in task     2
  | Maximal number of non-zero basis functions:      119 in task     3
  | Maximal number of non-zero basis functions:      118 in task     4
  | Maximal number of non-zero basis functions:      118 in task     5
  | Maximal number of non-zero basis functions:      119 in task     6
  | Maximal number of non-zero basis functions:      118 in task     7
  | Maximal number of non-zero basis functions:      118 in task     8
  | Maximal number of non-zero basis functions:      119 in task     9
  | Maximal number of non-zero basis functions:      119 in task    10
  | Maximal number of non-zero basis functions:      119 in task    11
  | Maximal number of non-zero basis functions:      118 in task    12
  | Maximal number of non-zero basis functions:      118 in task    13
  | Maximal number of non-zero basis functions:      118 in task    14
  | Maximal number of non-zero basis functions:      118 in task    15
  | Maximal number of non-zero basis functions:      119 in task    16
  | Maximal number of non-zero basis functions:      118 in task    17
  | Maximal number of non-zero basis functions:      118 in task    18
  | Maximal number of non-zero basis functions:      118 in task    19
  Selecting the method for density update.
  Loop over occupied states selected for charge density update.
  Allocating        0.050 MB for KS_eigenvector
  Integrating Hamiltonian matrix: batch-based integration.
  Time summed over all CPUs for integration: real work        0.517 s, elapsed        0.557 s
  Integrating overlap matrix.
  Time summed over all CPUs for integration: real work        0.213 s, elapsed        0.227 s
  Deallocating overlap matrix.

  Updating Kohn-Sham eigenvalues and eigenvectors using ELSI and the ELPA eigensolver.
  ELPA settings:
  | ELPA solver          1
  | Time full => band           :     0.001 s
  | Time band => tridiagonal    :     0.001 s
  | Time solve tridiagonal      :     0.001 s
  Overlap matrix is nonsingular
  | Lowest eigenvalue of overlap  :  0.42E-02
  | Highest eigenvalue of overlap :  0.62E+01
  Finished singularity check of overlap matrix
  | Time :     0.003 s
  Finished Cholesky decomposition
  | Time :     0.002 s
  Finished transformation to standard eigenproblem
  | Time :     0.001 s
  Starting ELPA eigensolver
  | Time full => tridiagonal    :     0.002 s
  | Time solve tridiagonal      :     0.000 s
  | Time ev tridiagonal => full :     0.000 s
  Finished solving standard eigenproblem
  | Time :     0.003 s
  Finished back-transformation of eigenvectors
  | Time :     0.000 s

  Obtaining occupation numbers and chemical potential using ELSI.
  | Chemical potential (Fermi level):   -10.07985689eV
  Writing Kohn-Sham eigenvalues.

  State    Occupation    Eigenvalue [Ha]    Eigenvalue [eV]
      1       2.00000         -19.007661         -517.22478
      2       2.00000         -18.977364         -516.40034
      3       2.00000         -14.245726         -387.64592
      4       2.00000         -10.166980         -276.65761
      5       2.00000         -10.141297         -275.95873
      6       2.00000         -10.131887         -275.70267
      7       2.00000          -1.183918          -32.21604
      8       2.00000          -1.096232          -29.82998
      9       2.00000          -0.991844          -26.98944
     10       2.00000          -0.859839          -23.39740
     11       2.00000          -0.757891          -20.62326
     12       2.00000          -0.681791          -18.55249
     13       2.00000          -0.620398          -16.88189
     14       2.00000          -0.607132          -16.52090
     15       2.00000          -0.587585          -15.98901
     16       2.00000          -0.576873          -15.69751
     17       2.00000          -0.557727          -15.17652
     18       2.00000          -0.524912          -14.28359
     19       2.00000          -0.522103          -14.20716
     20       2.00000          -0.488499          -13.29273
     21       2.00000          -0.461462          -12.55702
     22       2.00000          -0.437566          -11.90679
     23       2.00000          -0.403513          -10.98014
     24       2.00000          -0.380220          -10.34631
     25       0.00000          -0.170081           -4.62815
     26       0.00000          -0.061999           -1.68709
     27       0.00000          -0.036226           -0.98575
     28       0.00000          -0.022168           -0.60322
     29       0.00000          -0.005544           -0.15085
     30       0.00000           0.007364            0.20039
     31       0.00000           0.018504            0.50352
     32       0.00000           0.032807            0.89271
     33       0.00000           0.062821            1.70944
     34       0.00000           0.077327            2.10418
     35       0.00000           0.086836            2.36293
     36       0.00000           0.117500            3.19734
     37       0.00000           0.161969            4.40740
     38       0.00000           0.210515            5.72842
     39       0.00000           0.216553            5.89272
     40       0.00000           0.225916            6.14748
     41       0.00000           0.242728            6.60497
     42       0.00000           0.268457            7.30508
     43       0.00000           0.284263            7.73519
     44       0.00000           0.320005            8.70779
     45       0.00000           0.340723            9.27154
     46       0.00000           0.348577            9.48527
     47       0.00000           0.365298            9.94028
     48       0.00000           0.408132           11.10584
     49       0.00000           0.413494           11.25175
     50       0.00000           0.486045           13.22597
     51       0.00000           0.506421           13.78042
     52       0.00000           0.530733           14.44198
     53       0.00000           0.546157           14.86170

  Highest occupied state (VBM) at    -10.34630679 eV
  | Occupation number:      2.00000000

  Lowest unoccupied state (CBM) at    -4.62814585 eV
  | Occupation number:      0.00000000

  Overall HOMO-LUMO gap:      5.71816095 eV.
  Calculating total energy contributions from superposition of free atom densities.

  Total energy components:
  | Sum of eigenvalues            :        -188.82083906 Ha       -5138.07645329 eV
  | XC energy correction          :         -41.78615514 Ha       -1137.05913432 eV
  | XC potential correction       :          53.71644335 Ha        1461.69879404 eV
  | Free-atom electrostatic energy:        -146.86193927 Ha       -3996.31669802 eV
  | Hartree energy correction     :           0.00000000 Ha           0.00000000 eV
  | vdW energy correction         :           0.00000000 Ha           0.00000000 eV
  | Entropy correction            :          -0.00000000 Ha          -0.00000000 eV
  | ---------------------------
  | Total energy                  :        -323.75249012 Ha       -8809.75349158 eV
  | Total energy, T -> 0          :        -323.75249012 Ha       -8809.75349158 eV  <-- do not rely on this value for anything but (periodic) metals
  | Electronic free energy        :        -323.75249012 Ha       -8809.75349158 eV

  Derived energy quantities:
  | Kinetic energy                :         320.49790170 Ha        8721.19163462 eV
  | Electrostatic energy          :        -602.46423668 Ha      -16393.88599187 eV
  | Energy correction for multipole
  | error in Hartree potential    :           0.00000000 Ha           0.00000000 eV
  | Sum of eigenvalues per atom                           :        -395.23665025 eV
  | Total energy (T->0) per atom                          :        -677.67334551 eV  <-- do not rely on this value for anything but (periodic) metals
  | Electronic free energy per atom                       :        -677.67334551 eV
  Initialize hartree_potential_storage
  Max. number of atoms included in rho_multipole:           13

  End scf initialization - timings             :  max(cpu_time)    wall_clock(cpu1)
  | Time for scf. initialization               :        0.093 s           0.094 s
  | Boundary condition initialization          :        0.000 s           0.001 s
  | Integration                                :        0.040 s           0.040 s
  | Solution of K.-S. eqns.                    :        0.009 s           0.010 s
  | Grid partitioning                          :        0.020 s           0.020 s
  | Preloading free-atom quantities on grid    :        0.003 s           0.003 s
  | Free-atom superposition energy             :        0.005 s           0.004 s
  | Total energy evaluation                    :        0.000 s           0.001 s

  Partial memory accounting:
  | Current value for overall tracked memory usage on task 0  :           0.133 MB
  | Peak value for overall tracked memory usage on task 0     :           0.828 MB after allocating wave
  | Largest tracked array allocation on task 0 so far         :           0.175 MB  when allocating H_times_psi
  Note:  These values currently only include a subset of arrays which are explicitly tracked.
  The "true" memory usage will be greater.
------------------------------------------------------------

------------------------------------------------------------
          Begin self-consistency iteration #    1

  Date     :  20200602, Time     :  141715.633
------------------------------------------------------------
  Evaluating new KS density.
  Integration grid: deviation in total charge (<rho> - N_e) =   2.131628E-14
  Pulay mixing of updated and previous charge densities.

  Evaluating partitioned Hartree potential by multipole expansion.
  | Analytical far-field extrapolation by fixed multipoles:
  | Hartree multipole sum: apparent total charge =  -0.228793E-03
  Summing up the Hartree potential.
  Time summed over all CPUs for potential: real work        0.419 s, elapsed        0.430 s
  | RMS charge density error from multipole expansion :   0.593433E-02

  Integrating Hamiltonian matrix: batch-based integration.
  Time summed over all CPUs for integration: real work        0.504 s, elapsed        0.543 s

  Updating Kohn-Sham eigenvalues and eigenvectors using ELSI and the ELPA eigensolver.
  ELPA settings:
  | ELPA solver          1
  Finished transformation to standard eigenproblem
  | Time :     0.000 s
  Starting ELPA eigensolver
  | Time full => tridiagonal    :     0.002 s
  | Time solve tridiagonal      :     0.000 s
  | Time ev tridiagonal => full :     0.000 s
  Finished solving standard eigenproblem
  | Time :     0.003 s
  Finished back-transformation of eigenvectors
  | Time :     0.000 s

  Obtaining occupation numbers and chemical potential using ELSI.
  | Chemical potential (Fermi level):    -4.80171173eV
  Writing Kohn-Sham eigenvalues.

  State    Occupation    Eigenvalue [Ha]    Eigenvalue [eV]
      1       2.00000         -18.892420         -514.08890
      2       2.00000         -18.839209         -512.64097
      3       2.00000         -14.096081         -383.57389
      4       2.00000         -10.114126         -275.21936
      5       2.00000         -10.061597         -273.78999
      6       2.00000         -10.036148         -273.09749
      7       2.00000          -1.130655          -30.76669
      8       2.00000          -1.031571          -28.07048
      9       2.00000          -0.921061          -25.06334
     10       2.00000          -0.796335          -21.66938
     11       2.00000          -0.705762          -19.20477
     12       2.00000          -0.634844          -17.27498
     13       2.00000          -0.558388          -15.19450
     14       2.00000          -0.554246          -15.08181
     15       2.00000          -0.530579          -14.43778
     16       2.00000          -0.510155          -13.88202
     17       2.00000          -0.498403          -13.56224
     18       2.00000          -0.466181          -12.68544
     19       2.00000          -0.461493          -12.55787
     20       2.00000          -0.431984          -11.75487
     21       2.00000          -0.399067          -10.85916
     22       2.00000          -0.375219          -10.21022
     23       2.00000          -0.330965           -9.00600
     24       2.00000          -0.308426           -8.39270
     25       0.00000          -0.130569           -3.55297
     26       0.00000          -0.041731           -1.13556
     27       0.00000          -0.013634           -0.37101
     28       0.00000           0.012644            0.34407
     29       0.00000           0.030054            0.81781
     30       0.00000           0.048752            1.32661
     31       0.00000           0.052273            1.42243
     32       0.00000           0.060942            1.65832
     33       0.00000           0.109154            2.97022
     34       0.00000           0.119304            3.24643
     35       0.00000           0.125424            3.41295
     36       0.00000           0.145203            3.95119
     37       0.00000           0.191147            5.20137
     38       0.00000           0.239709            6.52282
     39       0.00000           0.250014            6.80322
     40       0.00000           0.258886            7.04466
     41       0.00000           0.275979            7.50978
     42       0.00000           0.305967            8.32580
     43       0.00000           0.319348            8.68990
     44       0.00000           0.356329            9.69622
     45       0.00000           0.378717           10.30542
     46       0.00000           0.387278           10.53836
     47       0.00000           0.405733           11.04056
     48       0.00000           0.445802           12.13090
     49       0.00000           0.454246           12.36065
     50       0.00000           0.523578           14.24728
     51       0.00000           0.541888           14.74554
     52       0.00000           0.565310           15.38286
     53       0.00000           0.584352           15.90102

  Highest occupied state (VBM) at     -8.39270065 eV
  | Occupation number:      2.00000000

  Lowest unoccupied state (CBM) at    -3.55296727 eV
  | Occupation number:      0.00000000

  Overall HOMO-LUMO gap:      4.83973338 eV.

  Total energy components:
  | Sum of eigenvalues            :        -185.36982924 Ha       -5044.16969824 eV
  | XC energy correction          :         -42.11669248 Ha       -1146.05351297 eV
  | XC potential correction       :          54.14638203 Ha        1473.39802065 eV
  | Free-atom electrostatic energy:        -146.86193927 Ha       -3996.31669802 eV
  | Hartree energy correction     :          -3.36590111 Ha         -91.59082941 eV
  | vdW energy correction         :           0.00000000 Ha           0.00000000 eV
  | Entropy correction            :           0.00000000 Ha           0.00000000 eV
  | ---------------------------
  | Total energy                  :        -323.56798009 Ha       -8804.73271799 eV
  | Total energy, T -> 0          :        -323.56798009 Ha       -8804.73271799 eV  <-- do not rely on this value for anything but (periodic) metals
  | Electronic free energy        :        -323.56798009 Ha       -8804.73271799 eV

  Derived energy quantities:
  | Kinetic energy                :         322.30412118 Ha        8770.34136730 eV
  | Electrostatic energy          :        -603.75540878 Ha      -16429.02057232 eV
  | Energy correction for multipole
  | error in Hartree potential    :           0.01226513 Ha           0.33375120 eV
  | Sum of eigenvalues per atom                           :        -388.01305371 eV
  | Total energy (T->0) per atom                          :        -677.28713215 eV  <-- do not rely on this value for anything but (periodic) metals
  | Electronic free energy per atom                       :        -677.28713215 eV

  Self-consistency convergence accuracy:
  | Change of charge density      :  0.5902E+00
  | Change of sum of eigenvalues  :  0.9391E+02 eV
  | Change of total energy        :  0.5021E+01 eV

  End self-consistency iteration #     1       :  max(cpu_time)    wall_clock(cpu1)
  | Time for this iteration                    :        0.078 s           0.078 s
  | Charge density update                      :        0.022 s           0.022 s
  | Density mixing                             :        0.000 s           0.001 s
  | Hartree multipole update                   :        0.001 s           0.001 s
  | Hartree multipole summation                :        0.022 s           0.022 s
  | Integration                                :        0.028 s           0.028 s
  | Solution of K.-S. eqns.                    :        0.004 s           0.003 s
  | Total energy evaluation                    :        0.000 s           0.000 s

  Partial memory accounting:
  | Current value for overall tracked memory usage on task 0  :           0.133 MB
  | Peak value for overall tracked memory usage on task 0     :           0.831 MB after allocating gradient_basis_wave
  | Largest tracked array allocation on task 0 so far         :           0.524 MB  when allocating gradient_basis_wave
  Note:  These values currently only include a subset of arrays which are explicitly tracked.
  The "true" memory usage will be greater.
------------------------------------------------------------

------------------------------------------------------------
          Begin self-consistency iteration #    2

  Date     :  20200602, Time     :  141715.715
------------------------------------------------------------
  Evaluating new KS density.
  Integration grid: deviation in total charge (<rho> - N_e) =   7.105427E-15
  Pulay mixing of updated and previous charge densities.

  Evaluating partitioned Hartree potential by multipole expansion.
  | Analytical far-field extrapolation by fixed multipoles:
  | Hartree multipole sum: apparent total charge =  -0.364587E-03
  Summing up the Hartree potential.
  Time summed over all CPUs for potential: real work        0.418 s, elapsed        0.429 s
  | RMS charge density error from multipole expansion :   0.140402E-01

  Integrating Hamiltonian matrix: batch-based integration.
  Time summed over all CPUs for integration: real work        0.503 s, elapsed        0.543 s

  Updating Kohn-Sham eigenvalues and eigenvectors using ELSI and the ELPA eigensolver.
  ELPA settings:
  | ELPA solver          1
  Finished transformation to standard eigenproblem
  | Time :     0.000 s
  Starting ELPA eigensolver
  | Time full => tridiagonal    :     0.002 s
  | Time solve tridiagonal      :     0.000 s
  | Time ev tridiagonal => full :     0.000 s
  Finished solving standard eigenproblem
  | Time :     0.002 s
  Finished back-transformation of eigenvectors
  | Time :     0.000 s

  Obtaining occupation numbers and chemical potential using ELSI.
  | Chemical potential (Fermi level):    -3.45460635eV
  Highest occupied state (VBM) at     -6.42311516 eV
  | Occupation number:      2.00000000

  Lowest unoccupied state (CBM) at    -2.25199769 eV
  | Occupation number:      0.00000000

  Overall HOMO-LUMO gap:      4.17111747 eV.

  Checking to see if s.c.f. parameters should be adjusted.

  Total energy components:
  | Sum of eigenvalues            :        -181.76019271 Ha       -4945.94649060 eV
  | XC energy correction          :         -42.47648776 Ha       -1155.84404053 eV
  | XC potential correction       :          54.61278817 Ha        1486.08957748 eV
  | Free-atom electrostatic energy:        -146.86193927 Ha       -3996.31669802 eV
  | Hartree energy correction     :          -7.00220354 Ha        -190.53965285 eV
  | vdW energy correction         :           0.00000000 Ha           0.00000000 eV
  | Entropy correction            :           0.00000000 Ha           0.00000000 eV
  | ---------------------------
  | Total energy                  :        -323.48803511 Ha       -8802.55730452 eV
  | Total energy, T -> 0          :        -323.48803511 Ha       -8802.55730452 eV  <-- do not rely on this value for anything but (periodic) metals
  | Electronic free energy        :        -323.48803511 Ha       -8802.55730452 eV

  Derived energy quantities:
  | Kinetic energy                :         323.62190257 Ha        8806.20002337 eV
  | Electrostatic energy          :        -604.63344992 Ha      -16452.91328735 eV
  | Energy correction for multipole
  | error in Hartree potential    :           0.02693032 Ha           0.73281119 eV
  | Sum of eigenvalues per atom                           :        -380.45742235 eV
  | Total energy (T->0) per atom                          :        -677.11979266 eV  <-- do not rely on this value for anything but (periodic) metals
  | Electronic free energy per atom                       :        -677.11979266 eV

  Self-consistency convergence accuracy:
  | Change of charge density      :  0.3701E+00
  | Change of sum of eigenvalues  :  0.9822E+02 eV
  | Change of total energy        :  0.2175E+01 eV

  End self-consistency iteration #     2       :  max(cpu_time)    wall_clock(cpu1)
  | Time for this iteration                    :        0.077 s           0.077 s
  | Charge density update                      :        0.022 s           0.021 s
  | Density mixing                             :        0.001 s           0.001 s
  | Hartree multipole update                   :        0.001 s           0.001 s
  | Hartree multipole summation                :        0.022 s           0.022 s
  | Integration                                :        0.028 s           0.028 s
  | Solution of K.-S. eqns.                    :        0.003 s           0.003 s
  | Total energy evaluation                    :        0.000 s           0.000 s

  Partial memory accounting:
  | Current value for overall tracked memory usage on task 0  :           0.134 MB
  | Peak value for overall tracked memory usage on task 0     :           0.831 MB after allocating gradient_basis_wave
  | Largest tracked array allocation on task 0 so far         :           0.524 MB  when allocating gradient_basis_wave
  Note:  These values currently only include a subset of arrays which are explicitly tracked.
  The "true" memory usage will be greater.
------------------------------------------------------------

------------------------------------------------------------
          Begin self-consistency iteration #    3

  Date     :  20200602, Time     :  141715.796
------------------------------------------------------------
  Evaluating new KS density.
  Integration grid: deviation in total charge (<rho> - N_e) =   1.421085E-14
  Pulay mixing of updated and previous charge densities.

  Evaluating partitioned Hartree potential by multipole expansion.
  | Analytical far-field extrapolation by fixed multipoles:
  | Hartree multipole sum: apparent total charge =  -0.458123E-03
  Summing up the Hartree potential.
  Time summed over all CPUs for potential: real work        0.418 s, elapsed        0.429 s
  | RMS charge density error from multipole expansion :   0.220303E-01

  Integrating Hamiltonian matrix: batch-based integration.
  Time summed over all CPUs for integration: real work        0.504 s, elapsed        0.548 s

  Updating Kohn-Sham eigenvalues and eigenvectors using ELSI and the ELPA eigensolver.
  ELPA settings:
  | ELPA solver          1
  Finished transformation to standard eigenproblem
  | Time :     0.000 s
  Starting ELPA eigensolver
  | Time full => tridiagonal    :     0.002 s
  | Time solve tridiagonal      :     0.000 s
  | Time ev tridiagonal => full :     0.000 s
  Finished solving standard eigenproblem
  | Time :     0.003 s
  Finished back-transformation of eigenvectors
  | Time :     0.000 s

  Obtaining occupation numbers and chemical potential using ELSI.
  | Chemical potential (Fermi level):    -2.77855645eV
  Highest occupied state (VBM) at     -5.77490706 eV
  | Occupation number:      2.00000000

  Lowest unoccupied state (CBM) at    -1.58222324 eV
  | Occupation number:      0.00000000

  Overall HOMO-LUMO gap:      4.19268381 eV.

  Total energy components:
  | Sum of eigenvalues            :        -180.47161240 Ha       -4910.88243642 eV
  | XC energy correction          :         -42.62613688 Ha       -1159.91620037 eV
  | XC potential correction       :          54.80353210 Ha        1491.27998388 eV
  | Free-atom electrostatic energy:        -146.86193927 Ha       -3996.31669802 eV
  | Hartree energy correction     :          -8.31856186 Ha        -226.35958523 eV
  | vdW energy correction         :           0.00000000 Ha           0.00000000 eV
  | Entropy correction            :           0.00000000 Ha           0.00000000 eV
  | ---------------------------
  | Total energy                  :        -323.47471832 Ha       -8802.19493614 eV
  | Total energy, T -> 0          :        -323.47471832 Ha       -8802.19493614 eV  <-- do not rely on this value for anything but (periodic) metals
  | Electronic free energy        :        -323.47471832 Ha       -8802.19493614 eV

  Derived energy quantities:
  | Kinetic energy                :         323.19469915 Ha        8794.57522692 eV
  | Electrostatic energy          :        -604.04328059 Ha      -16436.85396270 eV
  | Energy correction for multipole
  | error in Hartree potential    :           0.03798548 Ha           1.03363759 eV
  | Sum of eigenvalues per atom                           :        -377.76018742 eV
  | Total energy (T->0) per atom                          :        -677.09191816 eV  <-- do not rely on this value for anything but (periodic) metals
  | Electronic free energy per atom                       :        -677.09191816 eV

  Self-consistency convergence accuracy:
  | Change of charge density      :  0.2080E+00
  | Change of sum of eigenvalues  :  0.3506E+02 eV
  | Change of total energy        :  0.3624E+00 eV

  End self-consistency iteration #     3       :  max(cpu_time)    wall_clock(cpu1)
  | Time for this iteration                    :        0.077 s           0.076 s
  | Charge density update                      :        0.022 s           0.021 s
  | Density mixing                             :        0.001 s           0.000 s
  | Hartree multipole update                   :        0.001 s           0.002 s
  | Hartree multipole summation                :        0.022 s           0.022 s
  | Integration                                :        0.028 s           0.027 s
  | Solution of K.-S. eqns.                    :        0.004 s           0.004 s
  | Total energy evaluation                    :        0.000 s           0.000 s

  Partial memory accounting:
  | Current value for overall tracked memory usage on task 0  :           0.134 MB
  | Peak value for overall tracked memory usage on task 0     :           0.832 MB after allocating gradient_basis_wave
  | Largest tracked array allocation on task 0 so far         :           0.524 MB  when allocating gradient_basis_wave
  Note:  These values currently only include a subset of arrays which are explicitly tracked.
  The "true" memory usage will be greater.
------------------------------------------------------------

------------------------------------------------------------
          Begin self-consistency iteration #    4

  Date     :  20200602, Time     :  141715.877
------------------------------------------------------------
  Evaluating new KS density.
  Integration grid: deviation in total charge (<rho> - N_e) =  -1.421085E-14
  Pulay mixing of updated and previous charge densities.

  Evaluating partitioned Hartree potential by multipole expansion.
  | Analytical far-field extrapolation by fixed multipoles:
  | Hartree multipole sum: apparent total charge =  -0.489071E-03
  Summing up the Hartree potential.
  Time summed over all CPUs for potential: real work        0.410 s, elapsed        0.423 s
  | RMS charge density error from multipole expansion :   0.253793E-01

  Integrating Hamiltonian matrix: batch-based integration.
  Time summed over all CPUs for integration: real work        0.503 s, elapsed        0.544 s

  Updating Kohn-Sham eigenvalues and eigenvectors using ELSI and the ELPA eigensolver.
  ELPA settings:
  | ELPA solver          1
  Finished transformation to standard eigenproblem
  | Time :     0.000 s
  Starting ELPA eigensolver
  | Time full => tridiagonal    :     0.002 s
  | Time solve tridiagonal      :     0.000 s
  | Time ev tridiagonal => full :     0.000 s
  Finished solving standard eigenproblem
  | Time :     0.003 s
  Finished back-transformation of eigenvectors
  | Time :     0.000 s

  Obtaining occupation numbers and chemical potential using ELSI.
  | Chemical potential (Fermi level):    -2.66752713eV
  Highest occupied state (VBM) at     -5.60412177 eV
  | Occupation number:      2.00000000

  Lowest unoccupied state (CBM) at    -1.48318220 eV
  | Occupation number:      0.00000000

  Overall HOMO-LUMO gap:      4.12093957 eV.

  Total energy components:
  | Sum of eigenvalues            :        -180.32336580 Ha       -4906.84844109 eV
  | XC energy correction          :         -42.66404281 Ha       -1160.94767322 eV
  | XC potential correction       :          54.85123709 Ha        1492.57810284 eV
  | Free-atom electrostatic energy:        -146.86193927 Ha       -3996.31669802 eV
  | Hartree energy correction     :          -8.47565578 Ha        -230.63432838 eV
  | vdW energy correction         :           0.00000000 Ha           0.00000000 eV
  | Entropy correction            :           0.00000000 Ha           0.00000000 eV
  | ---------------------------
  | Total energy                  :        -323.47376657 Ha       -8802.16903787 eV
  | Total energy, T -> 0          :        -323.47376657 Ha       -8802.16903787 eV  <-- do not rely on this value for anything but (periodic) metals
  | Electronic free energy        :        -323.47376657 Ha       -8802.16903787 eV

  Derived energy quantities:
  | Kinetic energy                :         322.81889951 Ha        8784.34919850 eV
  | Electrostatic energy          :        -603.62862328 Ha      -16425.57056315 eV
  | Energy correction for multipole
  | error in Hartree potential    :           0.04218989 Ha           1.14804523 eV
  | Sum of eigenvalues per atom                           :        -377.44988008 eV
  | Total energy (T->0) per atom                          :        -677.08992599 eV  <-- do not rely on this value for anything but (periodic) metals
  | Electronic free energy per atom                       :        -677.08992599 eV

  Self-consistency convergence accuracy:
  | Change of charge density      :  0.6619E-01
  | Change of sum of eigenvalues  :  0.4034E+01 eV
  | Change of total energy        :  0.2590E-01 eV

  End self-consistency iteration #     4       :  max(cpu_time)    wall_clock(cpu1)
  | Time for this iteration                    :        0.076 s           0.075 s
  | Charge density update                      :        0.021 s           0.020 s
  | Density mixing                             :        0.001 s           0.001 s
  | Hartree multipole update                   :        0.001 s           0.001 s
  | Hartree multipole summation                :        0.022 s           0.022 s
  | Integration                                :        0.027 s           0.027 s
  | Solution of K.-S. eqns.                    :        0.004 s           0.004 s
  | Total energy evaluation                    :        0.000 s           0.000 s

  Partial memory accounting:
  | Current value for overall tracked memory usage on task 0  :           0.134 MB
  | Peak value for overall tracked memory usage on task 0     :           0.832 MB after allocating gradient_basis_wave
  | Largest tracked array allocation on task 0 so far         :           0.524 MB  when allocating gradient_basis_wave
  Note:  These values currently only include a subset of arrays which are explicitly tracked.
  The "true" memory usage will be greater.
------------------------------------------------------------

------------------------------------------------------------
          Begin self-consistency iteration #    5

  Date     :  20200602, Time     :  141715.957
------------------------------------------------------------
  Evaluating new KS density.
  Integration grid: deviation in total charge (<rho> - N_e) =   2.842171E-14
  Pulay mixing of updated and previous charge densities.

  Evaluating partitioned Hartree potential by multipole expansion.
  | Analytical far-field extrapolation by fixed multipoles:
  | Hartree multipole sum: apparent total charge =  -0.482648E-03
  Summing up the Hartree potential.
  Time summed over all CPUs for potential: real work        0.410 s, elapsed        0.422 s
  | RMS charge density error from multipole expansion :   0.251853E-01

  Integrating Hamiltonian matrix: batch-based integration.
  Time summed over all CPUs for integration: real work        0.504 s, elapsed        0.544 s

  Updating Kohn-Sham eigenvalues and eigenvectors using ELSI and the ELPA eigensolver.
  ELPA settings:
  | ELPA solver          1
  Finished transformation to standard eigenproblem
  | Time :     0.000 s
  Starting ELPA eigensolver
  | Time full => tridiagonal    :     0.002 s
  | Time solve tridiagonal      :     0.000 s
  | Time ev tridiagonal => full :     0.000 s
  Finished solving standard eigenproblem
  | Time :     0.002 s
  Finished back-transformation of eigenvectors
  | Time :     0.000 s

  Obtaining occupation numbers and chemical potential using ELSI.
  | Chemical potential (Fermi level):    -2.75263248eV
  Highest occupied state (VBM) at     -5.70676887 eV
  | Occupation number:      2.00000000

  Lowest unoccupied state (CBM) at    -1.59241043 eV
  | Occupation number:      0.00000000

  Overall HOMO-LUMO gap:      4.11435844 eV.

  Total energy components:
  | Sum of eigenvalues            :        -180.56063382 Ha       -4913.30483234 eV
  | XC energy correction          :         -42.63630076 Ha       -1160.19277353 eV
  | XC potential correction       :          54.81520811 Ha        1491.59770439 eV
  | Free-atom electrostatic energy:        -146.86193927 Ha       -3996.31669802 eV
  | Hartree energy correction     :          -8.22979445 Ha        -223.94410116 eV
  | vdW energy correction         :           0.00000000 Ha           0.00000000 eV
  | Entropy correction            :           0.00000000 Ha           0.00000000 eV
  | ---------------------------
  | Total energy                  :        -323.47346019 Ha       -8802.16070065 eV
  | Total energy, T -> 0          :        -323.47346019 Ha       -8802.16070065 eV  <-- do not rely on this value for anything but (periodic) metals
  | Electronic free energy        :        -323.47346019 Ha       -8802.16070065 eV

  Derived energy quantities:
  | Kinetic energy                :         322.67365745 Ha        8780.39696098 eV
  | Electrostatic energy          :        -603.51081688 Ha      -16422.36488810 eV
  | Energy correction for multipole
  | error in Hartree potential    :           0.04157175 Ha           1.13122476 eV
  | Sum of eigenvalues per atom                           :        -377.94652556 eV
  | Total energy (T->0) per atom                          :        -677.08928467 eV  <-- do not rely on this value for anything but (periodic) metals
  | Electronic free energy per atom                       :        -677.08928467 eV

  Self-consistency convergence accuracy:
  | Change of charge density      :  0.2023E-01
  | Change of sum of eigenvalues  : -0.6456E+01 eV
  | Change of total energy        :  0.8337E-02 eV

  End self-consistency iteration #     5       :  max(cpu_time)    wall_clock(cpu1)
  | Time for this iteration                    :        0.077 s           0.075 s
  | Charge density update                      :        0.022 s           0.020 s
  | Density mixing                             :        0.001 s           0.000 s
  | Hartree multipole update                   :        0.001 s           0.001 s
  | Hartree multipole summation                :        0.021 s           0.022 s
  | Integration                                :        0.028 s           0.027 s
  | Solution of K.-S. eqns.                    :        0.004 s           0.004 s
  | Total energy evaluation                    :        0.000 s           0.000 s

  Partial memory accounting:
  | Current value for overall tracked memory usage on task 0  :           0.134 MB
  | Peak value for overall tracked memory usage on task 0     :           0.832 MB after allocating gradient_basis_wave
  | Largest tracked array allocation on task 0 so far         :           0.524 MB  when allocating gradient_basis_wave
  Note:  These values currently only include a subset of arrays which are explicitly tracked.
  The "true" memory usage will be greater.
------------------------------------------------------------

------------------------------------------------------------
          Begin self-consistency iteration #    6

  Date     :  20200602, Time     :  141716.037
------------------------------------------------------------
  Evaluating new KS density.
  Integration grid: deviation in total charge (<rho> - N_e) =   1.421085E-14
  Pulay mixing of updated and previous charge densities.

[...]
  |   Hirshfeld dipole moment :      0.05839228
  |   Hirshfeld second moments:     -0.02934889       0.00320405       0.02837085
  |                                  0.00320405      -0.01895725       0.02356698
  |                                  0.02837085       0.02356698       0.01542206
  ----------------------------------------------------------------------
  | Atom    12: O
  |   Hirshfeld charge        :     -0.16797904
  |   Free atom volume        :     23.61338643
  |   Hirshfeld volume        :     20.99318166
  |   Hirshfeld dipole vector :      0.04234242       0.01028362      -0.00118227
  |   Hirshfeld dipole moment :      0.04358934
  |   Hirshfeld second moments:      0.03327671       0.00371684      -0.00533159
  |                                  0.00371684       0.02269436       0.01357393
  |                                 -0.00533159       0.01357393       0.10708197
  ----------------------------------------------------------------------
  | Atom    13: H
  |   Hirshfeld charge        :      0.18391720
  |   Free atom volume        :      9.95071624
  |   Hirshfeld volume        :      6.14532901
  |   Hirshfeld dipole vector :      0.02817937       0.02653426       0.12248643
  |   Hirshfeld dipole moment :      0.12845649
  |   Hirshfeld second moments:      0.11723144       0.00149621      -0.00373627
  |                                  0.00149621       0.10458938      -0.00127365
  |                                 -0.00373627      -0.00127365       0.12544088
  ----------------------------------------------------------------------


  Total energy components:
  | Sum of eigenvalues            :        -180.52001961 Ha       -4912.19966368 eV
  | XC energy correction          :         -42.63704644 Ha       -1160.21306456 eV
  | XC potential correction       :          54.81624652 Ha        1491.62596083 eV
  | Free-atom electrostatic energy:        -146.86193927 Ha       -3996.31669802 eV
  | Hartree energy correction     :          -8.27064531 Ha        -225.05570953 eV
  | vdW energy correction         :          -0.00342212 Ha          -0.09312049 eV
  | Entropy correction            :           0.00000000 Ha           0.00000000 eV
  | ---------------------------
  | Total energy                  :        -323.47682623 Ha       -8802.25229544 eV
  | Total energy, T -> 0          :        -323.47682623 Ha       -8802.25229544 eV  <-- do not rely on this value for anything but (periodic) metals
  | Electronic free energy        :        -323.47682623 Ha       -8802.25229544 eV

  Derived energy quantities:
  | Kinetic energy                :         322.58446263 Ha        8777.96984631 eV
  | Electrostatic energy          :        -603.42082031 Ha      -16419.91595671 eV
  | Energy correction for multipole
  | error in Hartree potential    :           0.04213277 Ha           1.14649090 eV
  | Sum of eigenvalues per atom                           :        -377.86151259 eV
  | Total energy (T->0) per atom                          :        -677.09633042 eV  <-- do not rely on this value for anything but (periodic) metals
  | Electronic free energy per atom                       :        -677.09633042 eV

  atomic forces [eV/Ang]:
  -----------------------
  atom #    1
   Hellmann-Feynman              :  0.152691E+01  0.407584E+00  0.164931E+01
   Ionic forces                  :  0.000000E+00  0.000000E+00  0.000000E+00
   Multipole                     :  0.162300E-01  0.545389E+00 -0.316828E+00
   Pulay + GGA                   : -0.151334E+01 -0.342490E+00 -0.178136E+01
   Van der Waals                 :  0.488236E-02  0.308752E-02 -0.727391E-02
   ----------------------------------------------------------------
   Total forces(   1)            :  0.346886E-01  0.613570E+00 -0.456158E+00
  atom #    2
   Hellmann-Feynman              :  0.196752E+00 -0.770300E-01 -0.193748E-01
   Ionic forces                  :  0.000000E+00  0.000000E+00  0.000000E+00
   Multipole                     :  0.202303E+00  0.567355E-01  0.163197E-01
   Pulay + GGA                   : -0.117927E+00 -0.318546E-01  0.190155E-01
   Van der Waals                 :  0.180711E-02 -0.385028E-02 -0.482829E-03
   ----------------------------------------------------------------
   Total forces(   2)            :  0.282936E+00 -0.559994E-01  0.154776E-01
  atom #    3
   Hellmann-Feynman              : -0.606599E+01 -0.934093E+01 -0.138963E+01
   Ionic forces                  :  0.000000E+00  0.000000E+00  0.000000E+00
   Multipole                     : -0.157882E+00  0.974373E-01 -0.841448E+00
   Pulay + GGA                   :  0.623769E+01  0.886048E+01  0.285625E+01
   Van der Waals                 :  0.154224E-02 -0.664982E-02 -0.103047E-01
   ----------------------------------------------------------------
   Total forces(   3)            :  0.153687E-01 -0.389666E+00  0.614869E+00
  atom #    4
   Hellmann-Feynman              :  0.928759E-01  0.109691E+00 -0.136434E+00
   Ionic forces                  :  0.000000E+00  0.000000E+00  0.000000E+00
   Multipole                     : -0.499558E-01  0.703408E-01 -0.884377E-01
   Pulay + GGA                   :  0.601268E-01 -0.223985E+00  0.304070E-01
   Van der Waals                 : -0.187694E-02 -0.643190E-02 -0.445651E-02
   ----------------------------------------------------------------
   Total forces(   4)            :  0.101170E+00 -0.503844E-01 -0.198922E+00
  atom #    5
   Hellmann-Feynman              :  0.662219E-02  0.155870E+00 -0.187132E+00
   Ionic forces                  :  0.000000E+00  0.000000E+00  0.000000E+00
   Multipole                     :  0.374824E-01  0.265545E-01 -0.116996E+00
   Pulay + GGA                   : -0.181948E+00 -0.996021E-01  0.128069E+00
   Van der Waals                 : -0.252430E-02  0.754233E-03  0.551980E-02
   ----------------------------------------------------------------
   Total forces(   5)            : -0.140368E+00  0.835762E-01 -0.170539E+00
  atom #    6
   Hellmann-Feynman              : -0.107222E+00 -0.970395E+00 -0.480734E+00
   Ionic forces                  :  0.000000E+00  0.000000E+00  0.000000E+00
   Multipole                     : -0.581928E-01  0.609494E+00  0.266229E+00
   Pulay + GGA                   :  0.345194E+00 -0.125800E+00  0.139356E+00
   Van der Waals                 :  0.590897E-02  0.994957E-02 -0.197534E-02
   ----------------------------------------------------------------
   Total forces(   6)            :  0.185688E+00 -0.476751E+00 -0.771247E-01
  atom #    7
   Hellmann-Feynman              :  0.180902E+00  0.978287E-01 -0.131311E+00
   Ionic forces                  :  0.000000E+00  0.000000E+00  0.000000E+00
   Multipole                     :  0.159081E-01  0.128870E+00 -0.138058E-02
   Pulay + GGA                   : -0.441014E-01 -0.104238E+00  0.545088E-01
   Van der Waals                 :  0.330243E-03  0.542200E-02  0.783985E-02
   ----------------------------------------------------------------
   Total forces(   7)            :  0.153039E+00  0.127883E+00 -0.703424E-01
  atom #    8
   Hellmann-Feynman              : -0.214575E+00 -0.389517E-01 -0.135931E-01
   Ionic forces                  :  0.000000E+00  0.000000E+00  0.000000E+00
   Multipole                     : -0.118368E+00  0.510004E-01  0.187607E-01
   Pulay + GGA                   :  0.101016E+00 -0.433476E-01  0.389953E-01
   Van der Waals                 : -0.348840E-02  0.124502E-01  0.639251E-02
   ----------------------------------------------------------------
   Total forces(   8)            : -0.235415E+00 -0.188487E-01  0.505553E-01
  atom #    9
   Hellmann-Feynman              :  0.450230E-01  0.360934E-01  0.280337E+00
   Ionic forces                  :  0.000000E+00  0.000000E+00  0.000000E+00
   Multipole                     :  0.973894E-02  0.610751E-01  0.115991E+00
   Pulay + GGA                   : -0.299886E-01  0.511048E-01 -0.112405E+00
   Van der Waals                 :  0.935434E-03  0.117771E-01  0.891274E-03
   ----------------------------------------------------------------
   Total forces(   9)            :  0.257088E-01  0.160050E+00  0.284814E+00
  atom #   10
   Hellmann-Feynman              :  0.530164E+01  0.182338E+01 -0.346646E+01
   Ionic forces                  :  0.000000E+00  0.000000E+00  0.000000E+00
   Multipole                     :  0.179098E+00 -0.288918E+00  0.287180E-01
   Pulay + GGA                   : -0.282301E+01 -0.200133E+01  0.106573E+01
   Van der Waals                 :  0.285992E-02 -0.110346E-01 -0.222432E-02
   ----------------------------------------------------------------
   Total forces(  10)            :  0.266059E+01 -0.477907E+00 -0.237424E+01
  atom #   11
   Hellmann-Feynman              :  0.874182E+01 -0.112110E+02  0.369137E+00
   Ionic forces                  :  0.000000E+00  0.000000E+00  0.000000E+00
   Multipole                     :  0.304807E+00 -0.945218E+00  0.346827E+00
   Pulay + GGA                   : -0.765851E+01  0.118644E+02 -0.115530E+01
   Van der Waals                 : -0.134761E-02  0.435454E-02 -0.133361E-02
   ----------------------------------------------------------------
   Total forces(  11)            :  0.138677E+01 -0.287476E+00 -0.440673E+00
  atom #   12
   Hellmann-Feynman              : -0.157422E+02 -0.557041E-01 -0.359620E+01
   Ionic forces                  :  0.000000E+00  0.000000E+00  0.000000E+00
   Multipole                     : -0.134624E+01 -0.440748E+00  0.636467E+00
   Pulay + GGA                   :  0.136043E+02  0.153707E+01  0.502421E+01
   Van der Waals                 : -0.203777E-02 -0.125551E-01  0.604351E-03
   ----------------------------------------------------------------
   Total forces(  12)            : -0.348616E+01  0.102806E+01  0.206508E+01
  atom #   13
   Hellmann-Feynman              : -0.825917E+00 -0.133062E+00  0.107679E+01
   Ionic forces                  :  0.000000E+00  0.000000E+00  0.000000E+00
   Multipole                     :  0.128396E-01  0.582629E-02  0.485805E-01
   Pulay + GGA                   : -0.162418E+00 -0.121420E+00 -0.376879E+00
   Van der Waals                 : -0.699126E-02 -0.727339E-02  0.680350E-02
   ----------------------------------------------------------------
   Total forces(  13)            : -0.982486E+00 -0.255929E+00  0.755293E+00

  Timings for VdW correction (Tkatchenko-Scheffler 2009 or later):
  | CPU time:        0.007 s, Wall clock time:        0.006 s.
  Removing unitary transformations (pure translations, rotations) from forces on atoms.
  Atomic forces before filtering:
  | Net force on center of mass :   0.152643E-02  0.179349E-03 -0.190707E-02 eV/A
  | Net torque on center of mass:  -0.874253E-02  0.655481E-02  0.357275E-02 eV
  Atomic forces after filtering:
  | Net force on center of mass :  -0.356812E-15 -0.267609E-15  0.356812E-15 eV/A
  | Net torque on center of mass:   0.944085E-15  0.000000E+00  0.755268E-15 eV

  Energy and forces in a compact form:
  | Total energy uncorrected      :         -0.880225229543910E+04 eV
  | Total energy corrected        :         -0.880225229543910E+04 eV  <-- do not rely on this value for anything but (periodic) metals
  | Electronic free energy        :         -0.880225229543910E+04 eV
  Total atomic forces (unitary forces cleaned) [eV/Ang]:
  |   1          0.346246391205555E-01          0.613567844240055E+00         -0.455933870619236E+00
  |   2          0.282872213949856E+00         -0.561422835737873E-01          0.159486137167005E-01
  |   3          0.156235335861627E-01         -0.389275992892567E+00          0.614984595677887E+00
  |   4          0.101562672458816E+00         -0.498847044691602E-01         -0.198746998890169E+00
  |   5         -0.139968823383211E+00          0.840074703960161E-01         -0.170232458397466E+00
  |   6          0.185621812204198E+00         -0.476860256078160E+00         -0.767166928828469E-01
  |   7          0.153189106949692E+00          0.127822448009045E+00         -0.696258408264711E-01
  |   8         -0.235456729871769E+00         -0.188028814432031E-01          0.507356049058994E-01
  |   9          0.254000075066352E-01          0.159657744186558E+00          0.285277426258876E+00
  |  10          0.266018914898401E+01         -0.478032905598239E+00         -0.237440650854356E+01
  |  11          0.138622539753707E+01         -0.287706403040039E+00         -0.440923634034572E+00
  |  12         -0.348668727369831E+01          0.102794500256525E+01          0.206465996641211E+01
  |  13         -0.983195705343708E+00         -0.256295082301767E+00          0.754979797222853E+00

  ------------------------------------ 
  Start decomposition of the XC Energy 
  ------------------------------------ 
  X and C from original XC functional choice 
  Hartree-Fock Energy :          0.000000000 Ha              0.000000000 eV
  X Energy            :        -41.037421223 Ha          -1116.685047789 eV
  C Energy            :         -1.599625214 Ha            -43.528016767 eV
  Total XC Energy     :        -42.637046438 Ha          -1160.213064556 eV
  ------------------------------------ 
  LDA X and C from self-consistent density 
  X Energy LDA        :        -37.254608514 Ha          -1013.749476663 eV
  C Energy LDA        :         -3.138370734 Ha            -85.399412747 eV
  ------------------------------------ 
  End decomposition of the XC Energy 
  ------------------------------------ 

------------------------------------------------------------

------------------------------------------------------------------------------
  Final output of selected total energy values:

  The following output summarizes some interesting total energy values
  at the end of a run (AFTER all relaxation, molecular dynamics, etc.).

  | Total energy of the DFT / Hartree-Fock s.c.f. calculation      :          -8802.252295439 eV
  | Final zero-broadening corrected energy (caution - metals only) :          -8802.252295439 eV
  | For reference only, the value of 1 Hartree used in FHI-aims is :             27.211384500 eV

  Before relying on these values, please be sure to understand exactly which
  total energy value is referred to by a given number. Different objects may
  all carry the same name 'total energy'. Definitions:

  Total energy of the DFT / Hartree-Fock s.c.f. calculation:
  | Note that this energy does not include ANY quantities calculated after the
  | s.c.f. cycle, in particular not ANY RPA, MP2, etc. many-body perturbation terms.

  Final zero-broadening corrected energy:
  | For metallic systems only, a broadening of the occupation numbers at the Fermi
  | level can be extrapolated back to zero broadening by an electron-gas inspired
  | formula. For all systems that are not real metals, this value can be
  | meaningless and should be avoided.

------------------------------------------------------------------------------
  Methods described in the following list of references were used in this FHI-aims run.
  If you publish the results, please make sure to cite these reference if they apply.
  FHI-aims is an academic code, and for our developers (often, Ph.D. students
  and postdocs), scientific credit in the community is essential.
  Thank you for helping us!

  For any use of FHI-aims, please cite:

    Volker Blum, Ralf Gehrke, Felix Hanke, Paula Havu, Ville Havu,
    Xinguo Ren, Karsten Reuter, and Matthias Scheffler
    'Ab initio molecular simulations with numeric atom-centered orbitals'
    Computer Physics Communications 180, 2175-2196 (2009)
    http://dx.doi.org/10.1016/j.cpc.2009.06.022


  The scalable eigensolver library ELPA was used in your run.
  ELPA is essential especially for large systems on hundreds or thousands of CPUs.
  For ELPA, please cite:

    Andreas Marek, Volker Blum, Rainer Johanni, Ville Havu, Bruno Lang,
    Thomas Auckenthaler, Alexander Heinecke, Hans-Joachim Bungartz, and Hermann Lederer,
    'The ELPA Library - Scalable Parallel Eigenvalue Solutions
    for Electronic Structure Theory and Computational Science'
    The Journal of Physics: Condensed Matter 26, 213201 (2014).
    http://dx.doi.org/10.1088/0953-8984/26/21/213201


  The ELSI infrastructure was used in your run to solve the Kohn-Sham electronic structure.
  Please check out http://elsi-interchange.org to learn more.
  If scalability is important for your project, please acknowledge ELSI by citing:

    V. W-z. Yu, F. Corsetti, A. Garcia, W. P. Huhn, M. Jacquelin, W. Jia,
    B. Lange, L. Lin, J. Lu, W. Mi, A. Seifitokaldani, A. Vazquez-Mayagoitia,
    C. Yang, H. Yang, and V. Blum
    'ELSI: A unified software interface for Kohn-Sham electronic structure solvers'
    Computer Physics Communications 222, 267-285 (2018).
    http://dx.doi.org/10.1016/j.cpc.2017.09.007


  For the real-space grid partitioning and parallelization used in this calculation, please cite:

    Ville Havu, Volker Blum, Paula Havu, and Matthias Scheffler,
    'Efficient O(N) integration for all-electron electronic structure calculation'
    'using numerically tabulated basis functions'
    Journal of Computational Physics 228, 8367-8379 (2009).
    http://dx.doi.org/10.1016/j.jcp.2009.08.008

  Of course, there are many other important community references, e.g., those cited in the
  above references. Our list is limited to references that describe implementations in the
  FHI-aims code. The reason is purely practical (length of this list) - please credit others as well.

------------------------------------------------------------
          Leaving FHI-aims.
          Date     :  20200602, Time     :  141716.990

          Computational steps:
          | Number of self-consistency cycles          :           15
          | Number of SCF (re)initializations          :            1

          Detailed time accounting                     :  max(cpu_time)    wall_clock(cpu1)
          | Total time                                 :        1.597 s           1.653 s
          | Preparation time                           :        0.165 s           0.165 s
          | Boundary condition initalization           :        0.000 s           0.001 s
          | Grid partitioning                          :        0.020 s           0.020 s
          | Preloading free-atom quantities on grid    :        0.003 s           0.003 s
          | Free-atom superposition energy             :        0.005 s           0.004 s
          | Total time for integrations                :        0.454 s           0.451 s
          | Total time for solution of K.-S. equations :        0.062 s           0.064 s
          | Total time for density & force components  :        0.380 s           0.364 s
          | Total time for mixing                      :        0.017 s           0.018 s
          | Total time for Hartree multipole update    :        0.018 s           0.016 s
          | Total time for Hartree multipole sum       :        0.402 s           0.404 s
          | Total time for total energy evaluation     :        0.002 s           0.003 s
          | Total time for vdW correction              :        0.007 s           0.006 s

          Partial memory accounting:
          | Residual value for overall tracked memory usage across tasks :           0.000 MB (should be 0.000 MB)
          | Peak values for overall tracked memory usage (after allocating hessian_basis_wave):
          |   Minimum:        2.041 MB (on task 16)
          |   Maximum:        2.071 MB (on task  7)
          |   Average:        2.053 MB
          | Largest tracked array allocation (hessian_basis_wave):
          |   Minimum:        1.048 MB (on task  1)
          |   Maximum:        1.057 MB (on task  4)
          |   Average:        1.051 MB
          Note:  These values currently only include a subset of arrays which are explicitly tracked.
          The "true" memory usage will be greater.

          Have a nice day.
------------------------------------------------------------
