  MPI-parallelism will be employed.
------------------------------------------------------------
          Invoking FHI-aims ...
          Version 171221_1
          Compiled on 2019/09/09 at 14:39:39 on host puhti-login2.bullx.

          When using FHI-aims, please cite the following reference:

          Volker Blum, Ralf Gehrke, Felix Hanke, Paula Havu,
          Ville Havu, Xinguo Ren, Karsten Reuter, and Matthias Scheffler,
          'Ab Initio Molecular Simulations with Numeric Atom-Centered Orbitals',
          Computer Physics Communications 180, 2175-2196 (2009)

          For any questions about FHI-aims, please visit the aimsclub website
          with its forums and wiki. Contributions to both the forums and the
          wiki are warmly encouraged - they are for you, and everyone is welcome there.

------------------------------------------------------------



  Date     :  20200616, Time     :  081520.411
  Time zero on CPU 1             :   0.255630000000000E-01  s.
  Internal wall clock time zero  :           361527320.411  s.

  FHI-aims created a unique identifier for this run for later identification
  aims_uuid : 2E53E5B9-2A54-41EB-A5BE-FC170C9D7BCA

  Using       20 parallel tasks.
  Task        0 on host r07c53.bullx reporting.
  Task        1 on host r07c53.bullx reporting.
  Task        2 on host r07c53.bullx reporting.
  Task        3 on host r07c53.bullx reporting.
  Task        4 on host r07c53.bullx reporting.
  Task        5 on host r07c53.bullx reporting.
  Task        6 on host r07c53.bullx reporting.
  Task        7 on host r07c53.bullx reporting.
  Task        8 on host r07c53.bullx reporting.
  Task        9 on host r07c53.bullx reporting.
  Task       10 on host r07c53.bullx reporting.
  Task       11 on host r07c53.bullx reporting.
  Task       12 on host r07c53.bullx reporting.
  Task       13 on host r07c53.bullx reporting.
  Task       14 on host r07c53.bullx reporting.
  Task       15 on host r07c53.bullx reporting.
  Task       16 on host r07c53.bullx reporting.
  Task       17 on host r07c53.bullx reporting.
  Task       18 on host r07c53.bullx reporting.
  Task       19 on host r07c53.bullx reporting.

  Performing system and environment tests:
  | Environment variable OMP_NUM_THREADS correctly set to 1.
  | Stacksize not measured: no C compiler
  | Checking for scalapack...
  | Testing pdtran()...
  | All pdtran() tests passed.

  Obtaining array dimensions for all initial allocations:
  
  -----------------------------------------------------------------------
  Parsing control.in (first pass over file, find array dimensions only).
  The contents of control.in will be repeated verbatim below
  unless switched off by setting 'verbatim_writeout .false.' .
  in the first line of control.in .
  -----------------------------------------------------------------------
  
  #########################################################################################
  #
  #  Volker Blum, FHI 2009 : Test run input file control.in for simple H2O
  #
  #########################################################################################
  #
  #  Physical model
  #
    xc                 pbe
    vdw_correction_hirshfeld
    spin               none
    relativistic       none
    charge             0.
  #
  #  SCF convergence
  #
    occupation_type    gaussian 0.01
    mixer              pulay
      n_max_pulay        10
      charge_mix_param   0.2
    sc_accuracy_rho    1E-5
    sc_accuracy_eev    1E-3
    sc_accuracy_etot   1E-6
    sc_accuracy_forces 1E-4
    sc_iter_limit      100
  #
  #  Relaxation
  #
  #  relax_geometry   bfgs 1.e-3
  #
  ################################################################################
  #
  #  FHI-aims code project
  #  VB, Fritz-Haber Institut, 2009
  #
  #  Suggested "light" defaults for H atom (to be pasted into control.in file)
  #  Be sure to double-check any results obtained with these settings for post-processing,
  #  e.g., with the "tight" defaults and larger basis sets.
  #
  ################################################################################
    species        H
  #     global species definitions
      nucleus             1
      mass                1.00794
  #
      l_hartree           4
  #
      cut_pot             3.5  1.5  1.0
      basis_dep_cutoff    1e-4
  #
      radial_base         24 5.0
      radial_multiplier   1
      angular_grids       specified
        division   0.2421   50
        division   0.3822  110
        division   0.4799  194
        division   0.5341  302
  #      division   0.5626  434
  #      division   0.5922  590
  #      division   0.6542  770
  #      division   0.6868 1202
  #      outer_grid  770
        outer_grid  302
  ################################################################################
  #
  #  Definition of "minimal" basis
  #
  ################################################################################
  #     valence basis states
      valence      1  s   1.
  #     ion occupancy
      ion_occ      1  s   0.5
  ################################################################################
  #
  #  Suggested additional basis functions. For production calculations,
  #  uncomment them one after another (the most important basis functions are
  #  listed first).
  #
  #  Basis constructed for dimers: 0.5 A, 0.7 A, 1.0 A, 1.5 A, 2.5 A
  #
  ################################################################################
  #  "First tier" - improvements: -1014.90 meV to -62.69 meV
       hydro 2 s 2.1
       hydro 2 p 3.5
  #  "Second tier" - improvements: -12.89 meV to -1.83 meV
  #     hydro 1 s 0.85
  #     hydro 2 p 3.7
  #     hydro 2 s 1.2
  #     hydro 3 d 7
  #  "Third tier" - improvements: -0.25 meV to -0.12 meV
  #     hydro 4 f 11.2
  #     hydro 3 p 4.8
  #     hydro 4 d 9
  #     hydro 3 s 3.2
  ################################################################################
  #
  #  FHI-aims code project
  #  VB, Fritz-Haber Institut, 2009
  #
  #  Suggested "light" defaults for C atom (to be pasted into control.in file)
  #  Be sure to double-check any results obtained with these settings for post-processing,
  #  e.g., with the "tight" defaults and larger basis sets.
  #
  ################################################################################
    species        C
  #     global species definitions
      nucleus             6
      mass                12.0107
  #
      l_hartree           4
  #
      cut_pot             3.5  1.5  1.0
      basis_dep_cutoff    1e-4
  #
      radial_base         34 5.0
      radial_multiplier   1
      angular_grids specified
        division   0.3326   50
        division   0.5710  110
        division   0.7727  194
        division   0.8772  302
  #      division   0.9334  434
  #      division   0.9625  590
  #      division   0.9924  770
  #      division   1.0230  974
  #      division   1.4589 1202
  #     outer_grid  974
       outer_grid 302
  ################################################################################
  #
  #  Definition of "minimal" basis
  #
  ################################################################################
  #     valence basis states
      valence      2  s   2.
      valence      2  p   2.
  #     ion occupancy
      ion_occ      2  s   1.
      ion_occ      2  p   1.
  ################################################################################
  #
  #  Suggested additional basis functions. For production calculations,
  #  uncomment them one after another (the most important basis functions are
  #  listed first).
  #
  #  Constructed for dimers: 1.0 A, 1.25 A, 1.5 A, 2.0 A, 3.0 A
  #
  ################################################################################
  #  "First tier" - improvements: -1214.57 meV to -155.61 meV
       hydro 2 p 1.7
       hydro 3 d 6
       hydro 2 s 4.9
  #  "Second tier" - improvements: -67.75 meV to -5.23 meV
  #     hydro 4 f 9.8
  #     hydro 3 p 5.2
  #     hydro 3 s 4.3
  #     hydro 5 g 14.4
  #     hydro 3 d 6.2
  #  "Third tier" - improvements: -2.43 meV to -0.60 meV
  #     hydro 2 p 5.6
  #     hydro 2 s 1.4
  #     hydro 3 d 4.9
  #     hydro 4 f 11.2
  #  "Fourth tier" - improvements: -0.39 meV to -0.18 meV
  #     hydro 2 p 2.1
  #     hydro 5 g 16.4
  #     hydro 4 d 13.2
  #     hydro 3 s 13.6
  #     hydro 4 f 17.6
  #  Further basis functions - improvements: -0.08 meV and below
  #     hydro 3 s 2
  #     hydro 3 p 6
  #     hydro 4 d 20
  ################################################################################
  #
  #  FHI-aims code project
  #  VB, Fritz-Haber Institut, 2009
  #
  #  Suggested "light" defaults for N atom (to be pasted into control.in file)
  #  Be sure to double-check any results obtained with these settings for post-processing,
  #  e.g., with the "tight" defaults and larger basis sets.
  #
  ################################################################################
    species        N
  #     global species definitions
      nucleus             7
      mass                14.0067
  #
      l_hartree           4
  #
      cut_pot             3.5  1.5  1.0
      basis_dep_cutoff    1e-4
  #
      radial_base         35 5.0
      radial_multiplier   1
      angular_grids       specified
        division   0.2599   50
        division   0.4601  110
        division   0.5885  194
        division   0.6503  302
  #      division   0.6939  434
  #      division   0.7396  590
  #      division   0.7632  770
  #      division   0.8122  974
  #      division   1.1604 1202
  #      outer_grid  974
        outer_grid  302
  ################################################################################
  #
  #  Definition of "minimal" basis
  #
  ################################################################################
  #     valence basis states
      valence      2  s   2.
      valence      2  p   3.
  #     ion occupancy
      ion_occ      2  s   1.
      ion_occ      2  p   2.
  ################################################################################
  #
  #  Suggested additional basis functions. For production calculations,
  #  uncomment them one after another (the most important basis functions are
  #  listed first).
  #
  #  Constructed for dimers: 1.0 A, 1.1 A, 1.5 A, 2.0 A, 3.0 A
  #
  ################################################################################
  #  "First tier" - improvements: -1193.42 meV to -220.60 meV
       hydro 2 p 1.8
       hydro 3 d 6.8
       hydro 3 s 5.8
  #  "Second tier" - improvements: -80.21 meV to -6.86 meV
  #     hydro 4 f 10.8
  #     hydro 3 p 5.8
  #     hydro 1 s 0.8
  #     hydro 5 g 16
  #     hydro 3 d 4.9
  #  "Third tier" - improvements: -4.29 meV to -0.53 meV
  #     hydro 3 s 16
  #     ionic 2 p auto
  #     hydro 3 d 6.6
  #     hydro 4 f 11.6
  #  "Fourth tier" - improvements: -0.75 meV to -0.25 meV
  #     hydro 2 p 4.5
  #     hydro 2 s 2.4
  #     hydro 5 g 14.4
  #     hydro 4 d 14.4
  #     hydro 4 f 16.8
  # Further basis functions - -0.21 meV and below
  #     hydro 3 p 14.8
  #     hydro 3 s 4.4
  #     hydro 3 d 19.6
  #     hydro 5 g 12.8
  ################################################################################
  #
  #  FHI-aims code project
  #  VB, Fritz-Haber Institut, 2009
  #
  #  Suggested "light" defaults for O atom (to be pasted into control.in file)
  #  Be sure to double-check any results obtained with these settings for post-processing,
  #  e.g., with the "tight" defaults and larger basis sets.
  #
  ################################################################################
    species        O
  #     global species definitions
      nucleus             8
      mass                15.9994
  #
      l_hartree           4
  #
      cut_pot             3.5  1.5  1.0
      basis_dep_cutoff    1e-4
  #
      radial_base         36 5.0
      radial_multiplier   1
       angular_grids specified
        division   0.2659   50
        division   0.4451  110
        division   0.6052  194
        division   0.7543  302
  #      division   0.8014  434
  #      division   0.8507  590
  #      division   0.8762  770
  #      division   0.9023  974
  #      division   1.2339 1202
  #      outer_grid 974
        outer_grid 302
  ################################################################################
  #
  #  Definition of "minimal" basis
  #
  ################################################################################
  #     valence basis states
      valence      2  s   2.
      valence      2  p   4.
  #     ion occupancy
      ion_occ      2  s   1.
      ion_occ      2  p   3.
  ################################################################################
  #
  #  Suggested additional basis functions. For production calculations,
  #  uncomment them one after another (the most important basis functions are
  #  listed first).
  #
  #  Constructed for dimers: 1.0 A, 1.208 A, 1.5 A, 2.0 A, 3.0 A
  #
  ################################################################################
  #  "First tier" - improvements: -699.05 meV to -159.38 meV
       hydro 2 p 1.8
       hydro 3 d 7.6
       hydro 3 s 6.4
  #  "Second tier" - improvements: -49.91 meV to -5.39 meV
  #     hydro 4 f 11.6
  #     hydro 3 p 6.2
  #     hydro 3 d 5.6
  #     hydro 5 g 17.6
  #     hydro 1 s 0.75
  #  "Third tier" - improvements: -2.83 meV to -0.50 meV
  #     ionic 2 p auto
  #     hydro 4 f 10.8
  #     hydro 4 d 4.7
  #     hydro 2 s 6.8
  #  "Fourth tier" - improvements: -0.40 meV to -0.12 meV
  #     hydro 3 p 5
  #     hydro 3 s 3.3
  #     hydro 5 g 15.6
  #     hydro 4 f 17.6
  #     hydro 4 d 14
  # Further basis functions - -0.08 meV and below
  #     hydro 3 s 2.1
  #     hydro 4 d 11.6
  #     hydro 3 p 16
  #     hydro 2 s 17.2
  
  -----------------------------------------------------------------------
  Completed first pass over input file control.in .
  -----------------------------------------------------------------------
  
  
  -----------------------------------------------------------------------
  Parsing geometry.in (first pass over file, find array dimensions only).
  The contents of geometry.in will be repeated verbatim below
  unless switched off by setting 'verbatim_writeout .false.' .
  in the first line of geometry.in .
  -----------------------------------------------------------------------
  
  atom  0.00000 0.00000 0.00000 C
  atom  1.09300 0.00000 0.00000 H
  atom  -0.47961 0.00000 -1.41207 N
  atom  -1.50029 0.00528 -1.41083 H
  atom  -0.12403 0.83220 -1.87804 H
  atom  -0.49584 1.26211 0.72868 C
  atom  0.31888 1.72126 1.29345 H
  atom  -0.87467 1.99305 0.01051 H
  atom  -1.30024 1.01000 1.42362 H
  atom  -0.39425 -1.28861 0.74398 C
  atom  -1.32434 -2.00817 0.46753 O
  atom  0.35175 -1.61003 1.75241 O
  atom  -0.12309 -2.41143 2.03038 H
  
  -----------------------------------------------------------------------
  Completed first pass over input file geometry.in .
  -----------------------------------------------------------------------
  

  Basic array size parameters:
  | Number of species                 :        4
  | Number of atoms                   :       13
  | Max. basis fn. angular momentum   :        2
  | Max. atomic/ionic basis occupied n:        2
  | Max. number of basis fn. types    :        2
  | Max. radial fns per species/type  :        3
  | Max. logarithmic grid size        :     1301
  | Max. radial integration grid size :       36
  | Max. angular integration grid size:      302
  | Max. angular grid division number :        8
  | Radial grid for Hartree potential :     1301
  | Number of spin channels           :        1

------------------------------------------------------------
          Reading file control.in.
------------------------------------------------------------
  XC: Using PBE gradient-corrected functionals.
  Spin treatment: No spin polarisation.
  Non-relativistic treatment of kinetic energy.
  Charge =   0.000000E+00: Neutral system requested explicitly.
  Occupation type: Gaussian broadening, width =   0.100000E-01 eV.
  Using pulay charge density mixing.
  Pulay mixing - number of memorized iterations:   10
  Charge density mixing - mixing parameter:     0.2000
  Convergence accuracy of self-consistent charge density:  0.1000E-04
  Convergence accuracy of sum of eigenvalues:  0.1000E-02
  Convergence accuracy of total energy:  0.1000E-05
  Convergence accuracy of forces:  0.1000E-03
  Maximum number of s.-c. iterations  :   100
 
  Reading configuration options for species H                   .
  | Found nuclear charge :   1.0000
  | Found atomic mass :    1.00794000000000      amu
  | Found l_max for Hartree potential  :   4
  | Found cutoff potl. onset [A], width [A], scale factor :    3.50000    1.50000    1.00000
  | Threshold for basis-dependent cutoff potential is   0.100000E-03
  | Found data for basic radial integration grid :    24 points, outermost radius =    5.000 A
  | Found multiplier for basic radial grid :   1
  | Found angular grid specification: user-specified.
  | Specified grid contains     5 separate shells.
  | Check grid settings after all constraints further below.
  | Found free-atom valence shell :  1 s   1.000
  | No ionic wave fns used. Skipping ion_occ.
  | Found hydrogenic basis function :  2 s   2.100
  | Found hydrogenic basis function :  2 p   3.500
  Species H                   : Missing cutoff potential type.
  Defaulting to exp(1/x)/(1-x)^2 type cutoff potential.
  Species H : No 'logarithmic' tag. Using default grid for free atom:
  | Default logarithmic grid data [bohr] : 0.1000E-03 0.1000E+03 0.1012E+01
  Species H : On-site basis accuracy parameter (for Gram-Schmidt orthonormalisation) not specified.
  Using default value basis_acc =  0.1000000E-03.
  Species H                   : Using default innermost maximum threshold i_radial=  2 for radial functions.
  Species H                   : Default cutoff onset for free atom density etc. : 0.35000000E+01 AA.
  Species H                   : Basic radial grid will be enhanced according to radial_multiplier =   1, to contain    24 grid points.
 
  Reading configuration options for species C                   .
  | Found nuclear charge :   6.0000
  | Found atomic mass :    12.0107000000000      amu
  | Found l_max for Hartree potential  :   4
  | Found cutoff potl. onset [A], width [A], scale factor :    3.50000    1.50000    1.00000
  | Threshold for basis-dependent cutoff potential is   0.100000E-03
  | Found data for basic radial integration grid :    34 points, outermost radius =    5.000 A
  | Found multiplier for basic radial grid :   1
  | Found angular grid specification: user-specified.
  | Specified grid contains     5 separate shells.
  | Check grid settings after all constraints further below.
  | Found free-atom valence shell :  2 s   2.000
  | Found free-atom valence shell :  2 p   2.000
  | No ionic wave fns used. Skipping ion_occ.
  | No ionic wave fns used. Skipping ion_occ.
  | Found hydrogenic basis function :  2 p   1.700
  | Found hydrogenic basis function :  3 d   6.000
  | Found hydrogenic basis function :  2 s   4.900
  Species C                   : Missing cutoff potential type.
  Defaulting to exp(1/x)/(1-x)^2 type cutoff potential.
  Species C : No 'logarithmic' tag. Using default grid for free atom:
  | Default logarithmic grid data [bohr] : 0.1000E-03 0.1000E+03 0.1012E+01
  Species C : On-site basis accuracy parameter (for Gram-Schmidt orthonormalisation) not specified.
  Using default value basis_acc =  0.1000000E-03.
  Species C                   : Using default innermost maximum threshold i_radial=  2 for radial functions.
  Species C                   : Default cutoff onset for free atom density etc. : 0.35000000E+01 AA.
  Species C                   : Basic radial grid will be enhanced according to radial_multiplier =   1, to contain    34 grid points.
 
  Reading configuration options for species N                   .
  | Found nuclear charge :   7.0000
  | Found atomic mass :    14.0067000000000      amu
  | Found l_max for Hartree potential  :   4
  | Found cutoff potl. onset [A], width [A], scale factor :    3.50000    1.50000    1.00000
  | Threshold for basis-dependent cutoff potential is   0.100000E-03
  | Found data for basic radial integration grid :    35 points, outermost radius =    5.000 A
  | Found multiplier for basic radial grid :   1
  | Found angular grid specification: user-specified.
  | Specified grid contains     5 separate shells.
  | Check grid settings after all constraints further below.
  | Found free-atom valence shell :  2 s   2.000
  | Found free-atom valence shell :  2 p   3.000
  | No ionic wave fns used. Skipping ion_occ.
  | No ionic wave fns used. Skipping ion_occ.
  | Found hydrogenic basis function :  2 p   1.800
  | Found hydrogenic basis function :  3 d   6.800
  | Found hydrogenic basis function :  3 s   5.800
  Species N                   : Missing cutoff potential type.
  Defaulting to exp(1/x)/(1-x)^2 type cutoff potential.
  Species N : No 'logarithmic' tag. Using default grid for free atom:
  | Default logarithmic grid data [bohr] : 0.1000E-03 0.1000E+03 0.1012E+01
  Species N : On-site basis accuracy parameter (for Gram-Schmidt orthonormalisation) not specified.
  Using default value basis_acc =  0.1000000E-03.
  Species N                   : Using default innermost maximum threshold i_radial=  2 for radial functions.
  Species N                   : Default cutoff onset for free atom density etc. : 0.35000000E+01 AA.
  Species N                   : Basic radial grid will be enhanced according to radial_multiplier =   1, to contain    35 grid points.
 
  Reading configuration options for species O                   .
  | Found nuclear charge :   8.0000
  | Found atomic mass :    15.9994000000000      amu
  | Found l_max for Hartree potential  :   4
  | Found cutoff potl. onset [A], width [A], scale factor :    3.50000    1.50000    1.00000
  | Threshold for basis-dependent cutoff potential is   0.100000E-03
  | Found data for basic radial integration grid :    36 points, outermost radius =    5.000 A
  | Found multiplier for basic radial grid :   1
  | Found angular grid specification: user-specified.
  | Specified grid contains     5 separate shells.
  | Check grid settings after all constraints further below.
  | Found free-atom valence shell :  2 s   2.000
  | Found free-atom valence shell :  2 p   4.000
  | No ionic wave fns used. Skipping ion_occ.
  | No ionic wave fns used. Skipping ion_occ.
  | Found hydrogenic basis function :  2 p   1.800
  | Found hydrogenic basis function :  3 d   7.600
  | Found hydrogenic basis function :  3 s   6.400
  Species O                   : Missing cutoff potential type.
  Defaulting to exp(1/x)/(1-x)^2 type cutoff potential.
  Species O : No 'logarithmic' tag. Using default grid for free atom:
  | Default logarithmic grid data [bohr] : 0.1000E-03 0.1000E+03 0.1012E+01
  Species O : On-site basis accuracy parameter (for Gram-Schmidt orthonormalisation) not specified.
  Using default value basis_acc =  0.1000000E-03.
  Species O                   : Using default innermost maximum threshold i_radial=  2 for radial functions.
  Species O                   : Default cutoff onset for free atom density etc. : 0.35000000E+01 AA.
  Species O                   : Basic radial grid will be enhanced according to radial_multiplier =   1, to contain    36 grid points.
 
  Finished reading input file 'control.in'. Consistency checks are next.
 
  MPI_IN_PLACE appears to work with this MPI implementation.
  | Keeping use_mpi_in_place .true. (see manual).
  Target number of points in a grid batch is not set. Defaulting to  100
  Method for grid partitioning is not set. Defaulting to parallel hash+maxmin partitioning.
  Batch size limit is not set. Defaulting to    200
  By default, will store active basis functions for each batch.
  If in need of memory, prune_basis_once .false. can be used to disable this option.
  communication_type for Hartree potential was not specified.
  Defaulting to calc_hartree .
  Pulay mixer: Number of initial linear mixing iterations not set.
  Defaulting to    0 iterations.
  Work space size for distributed Hartree potential not set.
  Defaulting to   0.200000E+03 MB.
  Algorithm-dependent basis array size parameters:
  | n_max_pulay                         :       10
  Presetting      1001 iterations before the initial mixing cycle
  is restarted anyway using the sc_init_iter criterion / keyword.
  Presetting a factor      1.000 between actual scf density residual
  and density convergence criterion sc_accuracy_rho below which sc_init_iter
  takes no effect.
  Geometry relaxation not requested: no relaxation will be performed.
  Handling of forces: Unphysical translation and rotation will be removed from forces.
  No accuracy limit for integral partition fn. given. Defaulting to  0.1000E-14.
  No threshold value for u(r) in integrations given. Defaulting to  0.1000E-05.
  No accuracy for occupation numbers given. Defaulting to  0.1000E-12.
  No threshold value for occupation numbers given. Defaulting to  0.0000E+00.
  No accuracy for fermi level given. Defaulting to  0.1000E-19.
  Maximum # of iterations to find E_F not set. Defaulting to  200.
  Preferred method for the eigenvalue solver ('KS_method') not specified in 'control.in'.
  Calling BLACS routine to test compilation state
  Since ScaLAPACK support is enabled, defaulting to 'elsi'.
  Will not use alltoall communication since running on < 1024 CPUs.
  Threshold for basis singularities not set.
  Default threshold for basis singularities:  0.1000E-04
  partition_type (choice of integration weights) for integrals was not specified.
  | Using a version of the partition function of Stratmann and coworkers ('stratmann_smoother').
  | At each grid point, the set of atoms used to build the partition table is smoothly restricted to
  | only those atoms whose free-atom density would be non-zero at that grid point.
  Partitioning for Hartree potential was not defined. Using partition_type for integrals.
  | Adjusted default value of keyword multip_moments_threshold to:       0.10000000E-11
  | This value may affect high angular momentum components of the Hartree potential in periodic systems.
  No q(lm)/r^(l+1) cutoff set for long-range Hartree potential.
  | Using default value of  0.100000E-09 .
  | Verify using the multipole_threshold keyword.
  Defaulting to new monopole extrapolation.
  Density update method: automatic selection selected.
------------------------------------------------------------


------------------------------------------------------------
          Reading geometry description geometry.in.
------------------------------------------------------------
  Input structure read successfully.
  The structure contains       13 atoms,  and a total of         48.000 electrons.

  Input geometry:
  | No unit cell requested.
  | Atomic structure:
  |       Atom                x [A]            y [A]            z [A]
  |    1: Species C             0.00000000        0.00000000        0.00000000
  |    2: Species H             1.09300000        0.00000000        0.00000000
  |    3: Species N            -0.47961000        0.00000000       -1.41207000
  |    4: Species H            -1.50029000        0.00528000       -1.41083000
  |    5: Species H            -0.12403000        0.83220000       -1.87804000
  |    6: Species C            -0.49584000        1.26211000        0.72868000
  |    7: Species H             0.31888000        1.72126000        1.29345000
  |    8: Species H            -0.87467000        1.99305000        0.01051000
  |    9: Species H            -1.30024000        1.01000000        1.42362000
  |   10: Species C            -0.39425000       -1.28861000        0.74398000
  |   11: Species O            -1.32434000       -2.00817000        0.46753000
  |   12: Species O             0.35175000       -1.61003000        1.75241000
  |   13: Species H            -0.12309000       -2.41143000        2.03038000
  |

  | The smallest distance between any two atoms is         0.97210200 AA.
  |
  | The first atom of this pair is atom number                     12 .
  | The second atom of this pair is atom number                    13 .

  Number of empty states per atom not set in control.in - providing a guess from actual geometry.
  | Total number of empty states used during s.c.f. cycle:       29
  If you use a very high smearing, use empty_states (per atom!) in control.in to increase this value.

  Structure-dependent array size parameters: 
  | Maximum number of distinct radial functions  :       21
  | Maximum number of basis functions            :      119
  | Number of Kohn-Sham states (occupied + empty):       53
------------------------------------------------------------

------------------------------------------------------------
          Preparing all fixed parts of the calculation.
------------------------------------------------------------
  Determining machine precision:
    2.225073858507201E-308
  Setting up grids for atomic and cluster calculations.

  Creating wave function, potential, and density for free atoms.

  Species: H

  List of occupied orbitals and eigenvalues:
    n    l              occ      energy [Ha]    energy [eV]
    1    0           1.0000        -0.237589        -6.4651


  Species: C

  List of occupied orbitals and eigenvalues:
    n    l              occ      energy [Ha]    energy [eV]
    1    0           2.0000       -10.038835      -273.1706
    2    0           2.0000        -0.502696       -13.6791
    2    1           2.0000        -0.191971        -5.2238


  Species: N

  List of occupied orbitals and eigenvalues:
    n    l              occ      energy [Ha]    energy [eV]
    1    0           2.0000       -14.128000      -384.4424
    2    0           2.0000        -0.681077       -18.5330
    2    1           3.0000        -0.259788        -7.0692


  Species: O

  List of occupied orbitals and eigenvalues:
    n    l              occ      energy [Ha]    energy [eV]
    1    0           2.0000       -18.898188      -514.2459
    2    0           2.0000        -0.878505       -23.9053
    2    1           4.0000        -0.331779        -9.0282

  Creating fixed part of basis set: Ionic, confined, hydrogenic.
 
  H                    hydrogenic:
 
  List of hydrogenic basis orbitals: 
    n    l      effective z      eigenvalue [eV]  inner max. [A]     outer max. [A]     outer radius [A]   
    2    0         2.100000       -14.9728           0.193243           1.317208           4.583499
    2    1         3.500000       -41.6669           0.602369           0.602369           3.723403
 
 
  C                    hydrogenic:
 
  List of hydrogenic basis orbitals: 
    n    l      effective z      eigenvalue [eV]  inner max. [A]     outer max. [A]     outer radius [A]   
    2    1         1.700000        -9.7616           1.230570           1.230570           4.607917
    3    2         6.000000       -54.4224           0.792453           0.792453           3.883070
    2    0         4.900000       -81.6679           0.082559           0.562749           3.078220
 
 
  N                    hydrogenic:
 
  List of hydrogenic basis orbitals: 
    n    l      effective z      eigenvalue [eV]  inner max. [A]     outer max. [A]     outer radius [A]   
    2    1         1.800000       -10.9749           1.177451           1.177451           4.573712
    3    2         6.800000       -69.9026           0.704619           0.704619           3.538137
    3    0         5.800000       -50.8545           0.067388           1.191934           4.250239
 
 
  O                    hydrogenic:
 
  List of hydrogenic basis orbitals: 
    n    l      effective z      eigenvalue [eV]  inner max. [A]     outer max. [A]     outer radius [A]   
    2    1         1.800000       -10.9749           1.164242           1.164242           4.578029
    3    2         7.600000       -87.3180           0.624125           0.624125           3.251020
    3    0         6.400000       -61.9207           0.061167           1.081902           4.001998
 

  Adding cutoff potential to free-atom effective potential.
  Creating atomic-like basis functions for current effective potential.

  Species H                   :

  List of atomic basis orbitals and eigenvalues:
    n    l      energy [Ha]    energy [eV]    outer radius [A]
    1    0        -0.237589        -6.4651       4.527807


  Species C                   :

  List of atomic basis orbitals and eigenvalues:
    n    l      energy [Ha]    energy [eV]    outer radius [A]
    1    0       -10.038835      -273.1706       1.934409
    2    0        -0.502696       -13.6791       4.496620
    2    1        -0.191971        -5.2238       4.551928


  Species N                   :

  List of atomic basis orbitals and eigenvalues:
    n    l      energy [Ha]    energy [eV]    outer radius [A]
    1    0       -14.128000      -384.4424       1.637919
    2    0        -0.681077       -18.5330       4.463241
    2    1        -0.259788        -7.0692       4.518138


  Species O                   :

  List of atomic basis orbitals and eigenvalues:
    n    l      energy [Ha]    energy [eV]    outer radius [A]
    1    0       -18.898188      -514.2459       1.415765
    2    0        -0.878505       -23.9053       4.413171
    2    1        -0.331779        -9.0282       4.522403

  Assembling full basis from fixed parts.
  | Species H :   atomic orbital   1 s accepted.
  | Species H :    hydro orbital   2 s accepted.
  | Species H :    hydro orbital   2 p accepted.
  | Species C :   atomic orbital   1 s accepted.
  | Species C :    hydro orbital   2 s accepted.
  | Species C :   atomic orbital   2 s accepted.
  | Species C :   atomic orbital   2 p accepted.
  | Species C :    hydro orbital   2 p accepted.
  | Species C :    hydro orbital   3 d accepted.
  | Species N :   atomic orbital   1 s accepted.
  | Species N :    hydro orbital   3 s accepted.
  | Species N :   atomic orbital   2 s accepted.
  | Species N :   atomic orbital   2 p accepted.
  | Species N :    hydro orbital   2 p accepted.
  | Species N :    hydro orbital   3 d accepted.
  | Species O :   atomic orbital   1 s accepted.
  | Species O :    hydro orbital   3 s accepted.
  | Species O :   atomic orbital   2 s accepted.
  | Species O :   atomic orbital   2 p accepted.
  | Species O :    hydro orbital   2 p accepted.
  | Species O :    hydro orbital   3 d accepted.
 
  Basis size parameters after reduction:
  | Total number of radial functions:       21
  | Total number of basis functions :      119
 
  Per-task memory consumption for arrays in subroutine allocate_ext:
  |           5.250512MB.
  Testing on-site integration grid accuracy.
  |  Species  Function  <phi|h_atom|phi> (log., in eV)  <phi|h_atom|phi> (rad., in eV)
           1        1                 -6.4663192853                 -6.4651273558
           1        2                 13.7111246313                 13.7170609718
           1        3                 25.2673269279                 25.2674696378
           2        4               -273.1705927641               -273.1705631568
           2        5                -10.7109323383                -10.7107120029
           2        6                 17.4381822266                 17.4352413244
           2        7                 -5.2255326521                 -5.2270484734
           2        8                  8.6835629259                  8.6603288385
           2        9                 27.4952418996                 27.4953360207
           3       10               -384.4424306495               -384.4423701208
           3       11                 12.5842251816                 12.5842222903
           3       12                -15.7264628251                -15.7264433455
           3       13                 -7.0696854293                 -7.0701769954
           3       14                  8.8090390882                  8.7901077751
           3       15                 35.9586762123                 35.9588528632
           4       16               -514.2458688638               -514.2457643834
           4       17                 15.1795651126                 15.1795290741
           4       18                -21.5359799773                -21.5360846186
           4       19                 -9.0283069236                 -9.0284644067
           4       20                  8.3027758564                  8.2834874195
           4       21                 45.8339351984                 45.8338762259

  Preparing densities etc. for the partition functions (integrals / Hartree potential).

  Preparations completed.
  max(cpu_time)          :      0.165 s.
  Wall clock time (cpu1) :      0.164 s.
------------------------------------------------------------

------------------------------------------------------------
          Begin self-consistency loop: Initialization.

          Date     :  20200616, Time     :  081520.615
------------------------------------------------------------

  Initializing index lists of integration centers etc. from given atomic structure:
  | Number of centers in hartree potential         :        13
  | Number of centers in hartree multipole         :        13
  | Number of centers in electron density summation:        13
  | Number of centers in basis integrals           :        13
  | Number of centers in integrals                 :        13
  | Number of centers in hamiltonian               :        13
  * Using 20 tasks for Scalapack Eigenvalue solver.
  Detailed listing of tasks and assigned k-points:
  (for non-periodic systems, the "k-point" denotes an internal label only)
   Task     0 k-point     1 on r07c53.bullx
   Task     1 k-point     1 on r07c53.bullx
   Task     2 k-point     1 on r07c53.bullx
   Task     3 k-point     1 on r07c53.bullx
   Task     4 k-point     1 on r07c53.bullx
   Task     5 k-point     1 on r07c53.bullx
   Task     6 k-point     1 on r07c53.bullx
   Task     7 k-point     1 on r07c53.bullx
   Task     8 k-point     1 on r07c53.bullx
   Task     9 k-point     1 on r07c53.bullx
   Task    10 k-point     1 on r07c53.bullx
   Task    11 k-point     1 on r07c53.bullx
   Task    12 k-point     1 on r07c53.bullx
   Task    13 k-point     1 on r07c53.bullx
   Task    14 k-point     1 on r07c53.bullx
   Task    15 k-point     1 on r07c53.bullx
   Task    16 k-point     1 on r07c53.bullx
   Task    17 k-point     1 on r07c53.bullx
   Task    18 k-point     1 on r07c53.bullx
   Task    19 k-point     1 on r07c53.bullx
  Tasks:    20 split into      5 X      4 BLACS grid
  Calculating block size based on n_basis =          119  max_nprow =            5  max_npcol =            4
  ScaLAPACK block size set to:           16
  Allocating        0.008 MB for ovlp
  Allocating        0.008 MB for ham
  Allocating        0.008 MB for eigenvec
  Required Scalapack workspace - INTEGER:            1  REAL:             1
  Partitioning the integration grid into batches with parallel hashing+maxmin method.
  | Number of batches:      815
  | Maximal batch size:     197
  | Minimal batch size:      49
  | Average batch size:      85.455
  | Standard deviation of batch sizes:      18.981

  Integration load balanced across    20 MPI tasks.
  Work distribution over tasks is as follows:
  Task     0 has       3448 integration points.
  Task     1 has       3432 integration points.
  Task     2 has       3471 integration points.
  Task     3 has       3440 integration points.
  Task     4 has       3513 integration points.
  Task     5 has       3443 integration points.
  Task     6 has       3519 integration points.
  Task     7 has       3585 integration points.
  Task     8 has       3441 integration points.
  Task     9 has       3480 integration points.
  Task    10 has       3539 integration points.
  Task    11 has       3459 integration points.
  Task    12 has       3542 integration points.
  Task    13 has       3438 integration points.
  Task    14 has       3444 integration points.
  Task    15 has       3458 integration points.
  Task    16 has       3507 integration points.
  Task    17 has       3515 integration points.
  Task    18 has       3472 integration points.
  Task    19 has       3500 integration points.
  Initializing partition tables, free-atom densities, potentials, etc. across the integration grid (initialize_grid_storage).
  | initialize_grid_storage: Actual outermost partition radius vs. multipole_radius_free
  | (-- VB: in principle, multipole_radius_free should be larger, hence this output)
  | Species        1: Confinement radius =              4.999999999999999 AA, multipole_radius_free =              5.054417573612229 AA.
  | Species        1: outer_partition_radius set to              5.054417573612229 AA .
  | Species        2: Confinement radius =              4.999999999999999 AA, multipole_radius_free =              5.019602836301480 AA.
  | Species        2: outer_partition_radius set to              5.019602836301480 AA .
  | Species        3: Confinement radius =              4.999999999999999 AA, multipole_radius_free =              5.043624274424571 AA.
  | Species        3: outer_partition_radius set to              5.043624274424571 AA .
  | Species        4: Confinement radius =              4.999999999999999 AA, multipole_radius_free =              5.048384829883283 AA.
  | Species        4: outer_partition_radius set to              5.048384829883283 AA .
  | Original list of interatomic distances with          13 x         13 entries is created.
  | Net number of integration points:    69646
  | of which are non-zero points    :    59726
  Renormalizing the initial density to the exact electron count on the 3D integration grid.
  | Initial density: Formal number of electrons (from input files) :      48.0000000000
  | Integrated number of electrons on 3D grid     :      48.0001792125
  | Charge integration error                      :       0.0001792125
  | Normalization factor for density and gradient :       0.9999962664
  Obtaining max. number of non-zero basis functions in each batch (get_n_compute_maxes).
  | Maximal number of non-zero basis functions:      119 in task     0
  | Maximal number of non-zero basis functions:      118 in task     1
  | Maximal number of non-zero basis functions:      118 in task     2
  | Maximal number of non-zero basis functions:      117 in task     3
  | Maximal number of non-zero basis functions:      117 in task     4
  | Maximal number of non-zero basis functions:      118 in task     5
  | Maximal number of non-zero basis functions:      118 in task     6
  | Maximal number of non-zero basis functions:      118 in task     7
  | Maximal number of non-zero basis functions:      118 in task     8
  | Maximal number of non-zero basis functions:      118 in task     9
  | Maximal number of non-zero basis functions:      118 in task    10
  | Maximal number of non-zero basis functions:      118 in task    11
  | Maximal number of non-zero basis functions:      118 in task    12
  | Maximal number of non-zero basis functions:      118 in task    13
  | Maximal number of non-zero basis functions:      118 in task    14
  | Maximal number of non-zero basis functions:      119 in task    15
  | Maximal number of non-zero basis functions:      118 in task    16
  | Maximal number of non-zero basis functions:      118 in task    17
  | Maximal number of non-zero basis functions:      119 in task    18
  | Maximal number of non-zero basis functions:      118 in task    19
  Selecting the method for density update.
  Loop over occupied states selected for charge density update.
  Allocating        0.050 MB for KS_eigenvector
  Integrating Hamiltonian matrix: batch-based integration.
  Time summed over all CPUs for integration: real work        0.517 s, elapsed        0.548 s
  Integrating overlap matrix.
  Time summed over all CPUs for integration: real work        0.213 s, elapsed        0.228 s
  Deallocating overlap matrix.

  Updating Kohn-Sham eigenvalues and eigenvectors using ELSI and the ELPA eigensolver.
  ELPA settings:
  | ELPA solver          1
  | Time full => band           :     0.001 s
  | Time band => tridiagonal    :     0.001 s
  | Time solve tridiagonal      :     0.001 s
  Overlap matrix is nonsingular
  | Lowest eigenvalue of overlap  :  0.47E-02
  | Highest eigenvalue of overlap :  0.61E+01
  Finished singularity check of overlap matrix
  | Time :     0.003 s
  Finished Cholesky decomposition
  | Time :     0.001 s
  Finished transformation to standard eigenproblem
  | Time :     0.001 s
  Starting ELPA eigensolver
  | Time full => tridiagonal    :     0.002 s
  | Time solve tridiagonal      :     0.000 s
  | Time ev tridiagonal => full :     0.000 s
  Finished solving standard eigenproblem
  | Time :     0.003 s
  Finished back-transformation of eigenvectors
  | Time :     0.000 s

  Obtaining occupation numbers and chemical potential using ELSI.
  | Chemical potential (Fermi level):    -9.87828572eV
  Writing Kohn-Sham eigenvalues.

  State    Occupation    Eigenvalue [Ha]    Eigenvalue [eV]
      1       2.00000         -19.007572         -517.22235
      2       2.00000         -18.978339         -516.42687
      3       2.00000         -14.245827         -387.64868
      4       2.00000         -10.166781         -276.65220
      5       2.00000         -10.141232         -275.95697
      6       2.00000         -10.132005         -275.70589
      7       2.00000          -1.188207          -32.33275
      8       2.00000          -1.092783          -29.73614
      9       2.00000          -0.992024          -26.99434
     10       2.00000          -0.859811          -23.39666
     11       2.00000          -0.765066          -20.81850
     12       2.00000          -0.675819          -18.38996
     13       2.00000          -0.629795          -17.13758
     14       2.00000          -0.597058          -16.24677
     15       2.00000          -0.573809          -15.61413
     16       2.00000          -0.567380          -15.43920
     17       2.00000          -0.560676          -15.25677
     18       2.00000          -0.535120          -14.56136
     19       2.00000          -0.520836          -14.17267
     20       2.00000          -0.497695          -13.54297
     21       2.00000          -0.475919          -12.95042
     22       2.00000          -0.428547          -11.66134
     23       2.00000          -0.400279          -10.89216
     24       2.00000          -0.391901          -10.66417
     25       0.00000          -0.150152           -4.08583
     26       0.00000          -0.057766           -1.57188
     27       0.00000          -0.039142           -1.06511
     28       0.00000          -0.021193           -0.57668
     29       0.00000          -0.015214           -0.41398
     30       0.00000           0.007721            0.21009
     31       0.00000           0.018178            0.49466
     32       0.00000           0.025033            0.68118
     33       0.00000           0.057752            1.57151
     34       0.00000           0.088443            2.40665
     35       0.00000           0.098333            2.67578
     36       0.00000           0.125803            3.42328
     37       0.00000           0.142012            3.86435
     38       0.00000           0.203992            5.55091
     39       0.00000           0.216994            5.90470
     40       0.00000           0.229623            6.24837
     41       0.00000           0.251890            6.85428
     42       0.00000           0.277200            7.54300
     43       0.00000           0.281626            7.66344
     44       0.00000           0.306270            8.33404
     45       0.00000           0.340208            9.25752
     46       0.00000           0.345961            9.41408
     47       0.00000           0.357968            9.74080
     48       0.00000           0.397821           10.82526
     49       0.00000           0.434776           11.83085
     50       0.00000           0.466075           12.68254
     51       0.00000           0.498896           13.57564
     52       0.00000           0.531954           14.47521
     53       0.00000           0.553925           15.07306

  Highest occupied state (VBM) at    -10.66417424 eV
  | Occupation number:      2.00000000

  Lowest unoccupied state (CBM) at    -4.08583371 eV
  | Occupation number:      0.00000000

  Overall HOMO-LUMO gap:      6.57834052 eV.
  Calculating total energy contributions from superposition of free atom densities.

  Total energy components:
  | Sum of eigenvalues            :        -188.84896078 Ha       -5138.84168415 eV
  | XC energy correction          :         -41.78692783 Ha       -1137.08016039 eV
  | XC potential correction       :          53.71741500 Ha        1461.72523389 eV
  | Free-atom electrostatic energy:        -146.85245437 Ha       -3996.05860070 eV
  | Hartree energy correction     :           0.00000000 Ha           0.00000000 eV
  | vdW energy correction         :           0.00000000 Ha           0.00000000 eV
  | Entropy correction            :           0.00000000 Ha           0.00000000 eV
  | ---------------------------
  | Total energy                  :        -323.77092799 Ha       -8810.25521135 eV
  | Total energy, T -> 0          :        -323.77092799 Ha       -8810.25521135 eV  <-- do not rely on this value for anything but (periodic) metals
  | Electronic free energy        :        -323.77092799 Ha       -8810.25521135 eV

  Derived energy quantities:
  | Kinetic energy                :         320.48312720 Ha        8720.78960002 eV
  | Electrostatic energy          :        -602.46712735 Ha      -16393.96465098 eV
  | Energy correction for multipole
  | error in Hartree potential    :           0.00000000 Ha           0.00000000 eV
  | Sum of eigenvalues per atom                           :        -395.29551417 eV
  | Total energy (T->0) per atom                          :        -677.71193933 eV  <-- do not rely on this value for anything but (periodic) metals
  | Electronic free energy per atom                       :        -677.71193933 eV
  Initialize hartree_potential_storage
  Max. number of atoms included in rho_multipole:           13

  End scf initialization - timings             :  max(cpu_time)    wall_clock(cpu1)
  | Time for scf. initialization               :        0.094 s           0.094 s
  | Boundary condition initialization          :        0.000 s           0.000 s
  | Integration                                :        0.040 s           0.039 s
  | Solution of K.-S. eqns.                    :        0.009 s           0.009 s
  | Grid partitioning                          :        0.022 s           0.022 s
  | Preloading free-atom quantities on grid    :        0.003 s           0.003 s
  | Free-atom superposition energy             :        0.005 s           0.005 s
  | Total energy evaluation                    :        0.000 s           0.000 s

  Partial memory accounting:
  | Current value for overall tracked memory usage on task 0  :           0.133 MB
  | Peak value for overall tracked memory usage on task 0     :           0.869 MB after allocating wave
  | Largest tracked array allocation on task 0 so far         :           0.188 MB  when allocating H_times_psi
  Note:  These values currently only include a subset of arrays which are explicitly tracked.
  The "true" memory usage will be greater.
------------------------------------------------------------

------------------------------------------------------------
          Begin self-consistency iteration #    1

  Date     :  20200616, Time     :  081520.709
------------------------------------------------------------
  Evaluating new KS density.
  Integration grid: deviation in total charge (<rho> - N_e) =   7.105427E-15
  Pulay mixing of updated and previous charge densities.

  Evaluating partitioned Hartree potential by multipole expansion.
  | Analytical far-field extrapolation by fixed multipoles:
  | Hartree multipole sum: apparent total charge =   0.781640E-04
  Summing up the Hartree potential.
  Time summed over all CPUs for potential: real work        0.420 s, elapsed        0.436 s
  | RMS charge density error from multipole expansion :   0.591722E-02

  Integrating Hamiltonian matrix: batch-based integration.
  Time summed over all CPUs for integration: real work        0.507 s, elapsed        0.552 s

  Updating Kohn-Sham eigenvalues and eigenvectors using ELSI and the ELPA eigensolver.
  ELPA settings:
  | ELPA solver          1
  Finished transformation to standard eigenproblem
  | Time :     0.000 s
  Starting ELPA eigensolver
  | Time full => tridiagonal    :     0.002 s
  | Time solve tridiagonal      :     0.000 s
  | Time ev tridiagonal => full :     0.000 s
  Finished solving standard eigenproblem
  | Time :     0.003 s
  Finished back-transformation of eigenvectors
  | Time :     0.000 s

  Obtaining occupation numbers and chemical potential using ELSI.
  | Chemical potential (Fermi level):    -4.56991915eV
  Writing Kohn-Sham eigenvalues.

  State    Occupation    Eigenvalue [Ha]    Eigenvalue [eV]
      1       2.00000         -18.908795         -514.53450
      2       2.00000         -18.837026         -512.58155
      3       2.00000         -14.092328         -383.47177
      4       2.00000         -10.114515         -275.22996
      5       2.00000         -10.061553         -273.78878
      6       2.00000         -10.032327         -272.99352
      7       2.00000          -1.139873          -31.01751
      8       2.00000          -1.030128          -28.03120
      9       2.00000          -0.918700          -24.99909
     10       2.00000          -0.795089          -21.63547
     11       2.00000          -0.714667          -19.44707
     12       2.00000          -0.627345          -17.07094
     13       2.00000          -0.572963          -15.59112
     14       2.00000          -0.535420          -14.56952
     15       2.00000          -0.512485          -13.94544
     16       2.00000          -0.509326          -13.85947
     17       2.00000          -0.500714          -13.62511
     18       2.00000          -0.473226          -12.87714
     19       2.00000          -0.465579          -12.66906
     20       2.00000          -0.440628          -11.99010
     21       2.00000          -0.422170          -11.48783
     22       2.00000          -0.367485           -9.99977
     23       2.00000          -0.330023           -8.98037
     24       2.00000          -0.312052           -8.49135
     25       0.00000          -0.110710           -3.01258
     26       0.00000          -0.027583           -0.75058
     27       0.00000          -0.012577           -0.34223
     28       0.00000           0.014584            0.39684
     29       0.00000           0.017776            0.48370
     30       0.00000           0.036124            0.98297
     31       0.00000           0.051319            1.39647
     32       0.00000           0.066932            1.82130
     33       0.00000           0.106817            2.90665
     34       0.00000           0.128125            3.48646
     35       0.00000           0.137647            3.74557
     36       0.00000           0.151581            4.12474
     37       0.00000           0.170506            4.63971
     38       0.00000           0.231245            6.29251
     39       0.00000           0.250864            6.82636
     40       0.00000           0.257963            7.01954
     41       0.00000           0.287558            7.82485
     42       0.00000           0.314276            8.55188
     43       0.00000           0.318116            8.65637
     44       0.00000           0.344945            9.38643
     45       0.00000           0.382114           10.39786
     46       0.00000           0.384557           10.46432
     47       0.00000           0.400359           10.89433
     48       0.00000           0.427979           11.64590
     49       0.00000           0.475367           12.93540
     50       0.00000           0.507502           13.80984
     51       0.00000           0.530643           14.43953
     52       0.00000           0.568505           15.46981
     53       0.00000           0.593882           16.16035

  Highest occupied state (VBM) at     -8.49135391 eV
  | Occupation number:      2.00000000

  Lowest unoccupied state (CBM) at    -3.01257629 eV
  | Occupation number:      0.00000000

  Overall HOMO-LUMO gap:      5.47877762 eV.

  Total energy components:
  | Sum of eigenvalues            :        -185.42883431 Ha       -5045.77530789 eV
  | XC energy correction          :         -42.11509071 Ha       -1146.00992647 eV
  | XC potential correction       :          54.14423616 Ha        1473.33962861 eV
  | Free-atom electrostatic energy:        -146.85245437 Ha       -3996.05860070 eV
  | Hartree energy correction     :          -3.33847230 Ha         -90.84445348 eV
  | vdW energy correction         :           0.00000000 Ha           0.00000000 eV
  | Entropy correction            :           0.00000000 Ha           0.00000000 eV
  | ---------------------------
  | Total energy                  :        -323.59061554 Ha       -8805.34865993 eV
  | Total energy, T -> 0          :        -323.59061554 Ha       -8805.34865993 eV  <-- do not rely on this value for anything but (periodic) metals
  | Electronic free energy        :        -323.59061554 Ha       -8805.34865993 eV

  Derived energy quantities:
  | Kinetic energy                :         322.26720534 Ha        8769.33683630 eV
  | Electrostatic energy          :        -603.74273017 Ha      -16428.67556976 eV
  | Energy correction for multipole
  | error in Hartree potential    :           0.01218859 Ha           0.33166840 eV
  | Sum of eigenvalues per atom                           :        -388.13656215 eV
  | Total energy (T->0) per atom                          :        -677.33451230 eV  <-- do not rely on this value for anything but (periodic) metals
  | Electronic free energy per atom                       :        -677.33451230 eV

  Self-consistency convergence accuracy:
  | Change of charge density      :  0.5809E+00
  | Change of sum of eigenvalues  :  0.9307E+02 eV
  | Change of total energy        :  0.4907E+01 eV

  End self-consistency iteration #     1       :  max(cpu_time)    wall_clock(cpu1)
  | Time for this iteration                    :        0.078 s           0.078 s
  | Charge density update                      :        0.022 s           0.022 s
  | Density mixing                             :        0.000 s           0.000 s
  | Hartree multipole update                   :        0.001 s           0.002 s
  | Hartree multipole summation                :        0.022 s           0.022 s
  | Integration                                :        0.028 s           0.028 s
  | Solution of K.-S. eqns.                    :        0.004 s           0.004 s
  | Total energy evaluation                    :        0.000 s           0.000 s

  Partial memory accounting:
  | Current value for overall tracked memory usage on task 0  :           0.133 MB
  | Peak value for overall tracked memory usage on task 0     :           0.883 MB after allocating gradient_basis_wave
  | Largest tracked array allocation on task 0 so far         :           0.563 MB  when allocating gradient_basis_wave
  Note:  These values currently only include a subset of arrays which are explicitly tracked.
  The "true" memory usage will be greater.
------------------------------------------------------------

------------------------------------------------------------
          Begin self-consistency iteration #    2

  Date     :  20200616, Time     :  081520.794
------------------------------------------------------------
  Evaluating new KS density.
  Integration grid: deviation in total charge (<rho> - N_e) =   7.105427E-15
  Pulay mixing of updated and previous charge densities.

  Evaluating partitioned Hartree potential by multipole expansion.
  | Analytical far-field extrapolation by fixed multipoles:
  | Hartree multipole sum: apparent total charge =  -0.504234E-04
  Summing up the Hartree potential.
  Time summed over all CPUs for potential: real work        0.418 s, elapsed        0.434 s
  | RMS charge density error from multipole expansion :   0.141726E-01

  Integrating Hamiltonian matrix: batch-based integration.
  Time summed over all CPUs for integration: real work        0.507 s, elapsed        0.543 s

  Updating Kohn-Sham eigenvalues and eigenvectors using ELSI and the ELPA eigensolver.
  ELPA settings:
  | ELPA solver          1
  Finished transformation to standard eigenproblem
  | Time :     0.000 s
  Starting ELPA eigensolver
  | Time full => tridiagonal    :     0.002 s
  | Time solve tridiagonal      :     0.000 s
  | Time ev tridiagonal => full :     0.000 s
  Finished solving standard eigenproblem
  | Time :     0.003 s
  Finished back-transformation of eigenvectors
  | Time :     0.000 s

  Obtaining occupation numbers and chemical potential using ELSI.
  | Chemical potential (Fermi level):    -3.28155642eV
  Highest occupied state (VBM) at     -6.29585104 eV
  | Occupation number:      2.00000000

  Lowest unoccupied state (CBM) at    -1.66857105 eV
  | Occupation number:      0.00000000

  Overall HOMO-LUMO gap:      4.62727999 eV.

  Checking to see if s.c.f. parameters should be adjusted.

  Total energy components:
  | Sum of eigenvalues            :        -181.80485313 Ha       -4947.16176241 eV
  | XC energy correction          :         -42.47860294 Ha       -1155.90159774 eV
  | XC potential correction       :          54.61547739 Ha        1486.16275480 eV
  | Free-atom electrostatic energy:        -146.85245437 Ha       -3996.05860070 eV
  | Hartree energy correction     :          -6.99216282 Ha        -190.26643093 eV
  | vdW energy correction         :           0.00000000 Ha           0.00000000 eV
  | Entropy correction            :           0.00000000 Ha           0.00000000 eV
  | ---------------------------
  | Total energy                  :        -323.51259588 Ha       -8803.22563698 eV
  | Total energy, T -> 0          :        -323.51259588 Ha       -8803.22563698 eV  <-- do not rely on this value for anything but (periodic) metals
  | Electronic free energy        :        -323.51259588 Ha       -8803.22563698 eV

  Derived energy quantities:
  | Kinetic energy                :         323.60207568 Ha        8805.66050623 eV
  | Electrostatic energy          :        -604.63606861 Ha      -16452.98454546 eV
  | Energy correction for multipole
  | error in Hartree potential    :           0.02719241 Ha           0.73994314 eV
  | Sum of eigenvalues per atom                           :        -380.55090480 eV
  | Total energy (T->0) per atom                          :        -677.17120284 eV  <-- do not rely on this value for anything but (periodic) metals
  | Electronic free energy per atom                       :        -677.17120284 eV

  Self-consistency convergence accuracy:
  | Change of charge density      :  0.3633E+00
  | Change of sum of eigenvalues  :  0.9861E+02 eV
  | Change of total energy        :  0.2123E+01 eV

  End self-consistency iteration #     2       :  max(cpu_time)    wall_clock(cpu1)
  | Time for this iteration                    :        0.083 s           0.079 s
  | Charge density update                      :        0.027 s           0.024 s
  | Density mixing                             :        0.001 s           0.000 s
  | Hartree multipole update                   :        0.001 s           0.002 s
  | Hartree multipole summation                :        0.022 s           0.022 s
  | Integration                                :        0.028 s           0.027 s
  | Solution of K.-S. eqns.                    :        0.004 s           0.004 s
  | Total energy evaluation                    :        0.000 s           0.000 s

  Partial memory accounting:
  | Current value for overall tracked memory usage on task 0  :           0.134 MB
  | Peak value for overall tracked memory usage on task 0     :           0.883 MB after allocating gradient_basis_wave
  | Largest tracked array allocation on task 0 so far         :           0.563 MB  when allocating gradient_basis_wave
  Note:  These values currently only include a subset of arrays which are explicitly tracked.
  The "true" memory usage will be greater.
------------------------------------------------------------

------------------------------------------------------------
          Begin self-consistency iteration #    3

  Date     :  20200616, Time     :  081520.883
------------------------------------------------------------
  Evaluating new KS density.
  Integration grid: deviation in total charge (<rho> - N_e) =   0.000000E+00
  Pulay mixing of updated and previous charge densities.

  Evaluating partitioned Hartree potential by multipole expansion.
  | Analytical far-field extrapolation by fixed multipoles:
  | Hartree multipole sum: apparent total charge =  -0.134337E-03
  Summing up the Hartree potential.
  Time summed over all CPUs for potential: real work        0.419 s, elapsed        0.434 s
  | RMS charge density error from multipole expansion :   0.223691E-01

  Integrating Hamiltonian matrix: batch-based integration.
  Time summed over all CPUs for integration: real work        0.507 s, elapsed        0.538 s

  Updating Kohn-Sham eigenvalues and eigenvectors using ELSI and the ELPA eigensolver.
  ELPA settings:
  | ELPA solver          1
  Finished transformation to standard eigenproblem
  | Time :     0.000 s
  Starting ELPA eigensolver
  | Time full => tridiagonal    :     0.002 s
  | Time solve tridiagonal      :     0.000 s
  | Time ev tridiagonal => full :     0.000 s
  Finished solving standard eigenproblem
  | Time :     0.003 s
  Finished back-transformation of eigenvectors
  | Time :     0.000 s

  Obtaining occupation numbers and chemical potential using ELSI.
  | Chemical potential (Fermi level):    -2.73671420eV
  Highest occupied state (VBM) at     -5.63671011 eV
  | Occupation number:      2.00000000

  Lowest unoccupied state (CBM) at    -0.98520466 eV
  | Occupation number:      0.00000000

  Overall HOMO-LUMO gap:      4.65150545 eV.

  Total energy components:
  | Sum of eigenvalues            :        -180.57789105 Ha       -4913.77442554 eV
  | XC energy correction          :         -42.62391926 Ha       -1159.85585597 eV
  | XC potential correction       :          54.80056441 Ha        1491.19922905 eV
  | Free-atom electrostatic energy:        -146.85245437 Ha       -3996.05860070 eV
  | Hartree energy correction     :          -8.24686066 Ha        -224.40849631 eV
  | vdW energy correction         :           0.00000000 Ha           0.00000000 eV
  | Entropy correction            :           0.00000000 Ha           0.00000000 eV
  | ---------------------------
  | Total energy                  :        -323.50056093 Ha       -8802.89814947 eV
  | Total energy, T -> 0          :        -323.50056093 Ha       -8802.89814947 eV  <-- do not rely on this value for anything but (periodic) metals
  | Electronic free energy        :        -323.50056093 Ha       -8802.89814947 eV

  Derived energy quantities:
  | Kinetic energy                :         323.15208022 Ha        8793.41550689 eV
  | Electrostatic energy          :        -604.02872189 Ha      -16436.45780039 eV
  | Energy correction for multipole
  | error in Hartree potential    :           0.03875944 Ha           1.05469813 eV
  | Sum of eigenvalues per atom                           :        -377.98264812 eV
  | Total energy (T->0) per atom                          :        -677.14601150 eV  <-- do not rely on this value for anything but (periodic) metals
  | Electronic free energy per atom                       :        -677.14601150 eV

  Self-consistency convergence accuracy:
  | Change of charge density      :  0.2013E+00
  | Change of sum of eigenvalues  :  0.3339E+02 eV
  | Change of total energy        :  0.3275E+00 eV

  End self-consistency iteration #     3       :  max(cpu_time)    wall_clock(cpu1)
  | Time for this iteration                    :        0.081 s           0.075 s
  | Charge density update                      :        0.026 s           0.019 s
  | Density mixing                             :        0.001 s           0.001 s
  | Hartree multipole update                   :        0.001 s           0.001 s
  | Hartree multipole summation                :        0.022 s           0.023 s
  | Integration                                :        0.027 s           0.027 s
  | Solution of K.-S. eqns.                    :        0.003 s           0.003 s
  | Total energy evaluation                    :        0.000 s           0.000 s

  Partial memory accounting:
  | Current value for overall tracked memory usage on task 0  :           0.134 MB
  | Peak value for overall tracked memory usage on task 0     :           0.884 MB after allocating gradient_basis_wave
  | Largest tracked array allocation on task 0 so far         :           0.563 MB  when allocating gradient_basis_wave
  Note:  These values currently only include a subset of arrays which are explicitly tracked.
  The "true" memory usage will be greater.
------------------------------------------------------------

------------------------------------------------------------
          Begin self-consistency iteration #    4

  Date     :  20200616, Time     :  081520.969
------------------------------------------------------------
  Evaluating new KS density.
  Integration grid: deviation in total charge (<rho> - N_e) =   7.105427E-15
  Pulay mixing of updated and previous charge densities.

  Evaluating partitioned Hartree potential by multipole expansion.
  | Analytical far-field extrapolation by fixed multipoles:
  | Hartree multipole sum: apparent total charge =  -0.162349E-03
  Summing up the Hartree potential.
  Time summed over all CPUs for potential: real work        0.411 s, elapsed        0.426 s
  | RMS charge density error from multipole expansion :   0.258478E-01

  Integrating Hamiltonian matrix: batch-based integration.
  Time summed over all CPUs for integration: real work        0.507 s, elapsed        0.540 s

  Updating Kohn-Sham eigenvalues and eigenvectors using ELSI and the ELPA eigensolver.
  ELPA settings:
  | ELPA solver          1
  Finished transformation to standard eigenproblem
  | Time :     0.000 s
  Starting ELPA eigensolver
  | Time full => tridiagonal    :     0.002 s
  | Time solve tridiagonal      :     0.000 s
  | Time ev tridiagonal => full :     0.000 s
  Finished solving standard eigenproblem
  | Time :     0.003 s
  Finished back-transformation of eigenvectors
  | Time :     0.000 s

  Obtaining occupation numbers and chemical potential using ELSI.
  | Chemical potential (Fermi level):    -2.60608118eV
  Highest occupied state (VBM) at     -5.44835970 eV
  | Occupation number:      2.00000000

  Lowest unoccupied state (CBM) at    -0.89061175 eV
  | Occupation number:      0.00000000

  Overall HOMO-LUMO gap:      4.55774795 eV.

  Total energy components:
  | Sum of eigenvalues            :        -180.40811341 Ha       -4909.15454089 eV
  | XC energy correction          :         -42.66364535 Ha       -1160.93685766 eV
  | XC potential correction       :          54.85065510 Ha        1492.56226595 eV
  | Free-atom electrostatic energy:        -146.85245437 Ha       -3996.05860070 eV
  | Hartree energy correction     :          -8.42623626 Ha        -229.28955475 eV
  | vdW energy correction         :           0.00000000 Ha           0.00000000 eV
  | Entropy correction            :           0.00000000 Ha           0.00000000 eV
  | ---------------------------
  | Total energy                  :        -323.49979429 Ha       -8802.87728804 eV
  | Total energy, T -> 0          :        -323.49979429 Ha       -8802.87728804 eV  <-- do not rely on this value for anything but (periodic) metals
  | Electronic free energy        :        -323.49979429 Ha       -8802.87728804 eV

  Derived energy quantities:
  | Kinetic energy                :         322.78588382 Ha        8783.45079582 eV
  | Electrostatic energy          :        -603.62203276 Ha      -16425.39122621 eV
  | Energy correction for multipole
  | error in Hartree potential    :           0.04323949 Ha           1.17660641 eV
  | Sum of eigenvalues per atom                           :        -377.62727238 eV
  | Total energy (T->0) per atom                          :        -677.14440677 eV  <-- do not rely on this value for anything but (periodic) metals
  | Electronic free energy per atom                       :        -677.14440677 eV

  Self-consistency convergence accuracy:
  | Change of charge density      :  0.6288E-01
  | Change of sum of eigenvalues  :  0.4620E+01 eV
  | Change of total energy        :  0.2086E-01 eV

  End self-consistency iteration #     4       :  max(cpu_time)    wall_clock(cpu1)
  | Time for this iteration                    :        0.083 s           0.075 s
  | Charge density update                      :        0.028 s           0.019 s
  | Density mixing                             :        0.001 s           0.001 s
  | Hartree multipole update                   :        0.001 s           0.001 s
  | Hartree multipole summation                :        0.022 s           0.021 s
  | Integration                                :        0.027 s           0.028 s
  | Solution of K.-S. eqns.                    :        0.003 s           0.003 s
  | Total energy evaluation                    :        0.000 s           0.000 s

  Partial memory accounting:
  | Current value for overall tracked memory usage on task 0  :           0.134 MB
  | Peak value for overall tracked memory usage on task 0     :           0.884 MB after allocating gradient_basis_wave
  | Largest tracked array allocation on task 0 so far         :           0.563 MB  when allocating gradient_basis_wave
  Note:  These values currently only include a subset of arrays which are explicitly tracked.
  The "true" memory usage will be greater.
------------------------------------------------------------

------------------------------------------------------------
          Begin self-consistency iteration #    5

  Date     :  20200616, Time     :  081521.055
------------------------------------------------------------
  Evaluating new KS density.
  Integration grid: deviation in total charge (<rho> - N_e) =   2.131628E-14
  Pulay mixing of updated and previous charge densities.

  Evaluating partitioned Hartree potential by multipole expansion.
  | Analytical far-field extrapolation by fixed multipoles:
  | Hartree multipole sum: apparent total charge =  -0.156703E-03
  Summing up the Hartree potential.
  Time summed over all CPUs for potential: real work        0.411 s, elapsed        0.425 s
  | RMS charge density error from multipole expansion :   0.255535E-01

  Integrating Hamiltonian matrix: batch-based integration.
  Time summed over all CPUs for integration: real work        0.508 s, elapsed        0.541 s

  Updating Kohn-Sham eigenvalues and eigenvectors using ELSI and the ELPA eigensolver.
  ELPA settings:
  | ELPA solver          1
  Finished transformation to standard eigenproblem
  | Time :     0.000 s
  Starting ELPA eigensolver
  | Time full => tridiagonal    :     0.002 s
  | Time solve tridiagonal      :     0.000 s
  | Time ev tridiagonal => full :     0.000 s
  Finished solving standard eigenproblem
  | Time :     0.003 s
  Finished back-transformation of eigenvectors
  | Time :     0.000 s

  Obtaining occupation numbers and chemical potential using ELSI.
  | Chemical potential (Fermi level):    -2.66856140eV
  Highest occupied state (VBM) at     -5.53234862 eV
  | Occupation number:      2.00000000

  Lowest unoccupied state (CBM) at    -0.97152330 eV
  | Occupation number:      0.00000000

  Overall HOMO-LUMO gap:      4.56082532 eV.

  Total energy components:
  | Sum of eigenvalues            :        -180.58280916 Ha       -4913.90825417 eV
  | XC energy correction          :         -42.64205082 Ha       -1160.34924079 eV
  | XC potential correction       :          54.82266952 Ha        1491.80073960 eV
  | Free-atom electrostatic energy:        -146.85245437 Ha       -3996.05860070 eV
  | Hartree energy correction     :          -8.24484372 Ha        -224.35361262 eV
  | vdW energy correction         :           0.00000000 Ha           0.00000000 eV
  | Entropy correction            :           0.00000000 Ha           0.00000000 eV
  | ---------------------------
  | Total energy                  :        -323.49948856 Ha       -8802.86896866 eV
  | Total energy, T -> 0          :        -323.49948856 Ha       -8802.86896866 eV  <-- do not rely on this value for anything but (periodic) metals
  | Electronic free energy        :        -323.49948856 Ha       -8802.86896866 eV

  Derived energy quantities:
  | Kinetic energy                :         322.69912833 Ha        8781.09005889 eV
  | Electrostatic energy          :        -603.55656607 Ha      -16423.60978677 eV
  | Energy correction for multipole
  | error in Hartree potential    :           0.04260395 Ha           1.15931254 eV
  | Sum of eigenvalues per atom                           :        -377.99294263 eV
  | Total energy (T->0) per atom                          :        -677.14376682 eV  <-- do not rely on this value for anything but (periodic) metals
  | Electronic free energy per atom                       :        -677.14376682 eV

  Self-consistency convergence accuracy:
  | Change of charge density      :  0.2114E-01
  | Change of sum of eigenvalues  : -0.4754E+01 eV
  | Change of total energy        :  0.8319E-02 eV

  End self-consistency iteration #     5       :  max(cpu_time)    wall_clock(cpu1)
  | Time for this iteration                    :        0.085 s           0.076 s
  | Charge density update                      :        0.030 s           0.021 s
  | Density mixing                             :        0.001 s           0.001 s
  | Hartree multipole update                   :        0.001 s           0.001 s
  | Hartree multipole summation                :        0.022 s           0.022 s
  | Integration                                :        0.027 s           0.027 s
  | Solution of K.-S. eqns.                    :        0.004 s           0.004 s
  | Total energy evaluation                    :        0.000 s           0.000 s

  Partial memory accounting:
  | Current value for overall tracked memory usage on task 0  :           0.134 MB
  | Peak value for overall tracked memory usage on task 0     :           0.884 MB after allocating gradient_basis_wave
  | Largest tracked array allocation on task 0 so far         :           0.563 MB  when allocating gradient_basis_wave
  Note:  These values currently only include a subset of arrays which are explicitly tracked.
  The "true" memory usage will be greater.
------------------------------------------------------------

------------------------------------------------------------
          Begin self-consistency iteration #    6

  Date     :  20200616, Time     :  081521.140
------------------------------------------------------------
  Evaluating new KS density.
  Integration grid: deviation in total charge (<rho> - N_e) =   3.552714E-14
  Pulay mixing of updated and previous charge densities.

[...]
  |   Hirshfeld dipole moment :      0.06200096
  |   Hirshfeld second moments:     -0.00763893      -0.01797356      -0.01318829
  |                                 -0.01797356      -0.00507136       0.01135105
  |                                 -0.01318829       0.01135105      -0.00379395
  ----------------------------------------------------------------------
  | Atom    12: O
  |   Hirshfeld charge        :     -0.14413672
  |   Free atom volume        :     23.61338643
  |   Hirshfeld volume        :     20.73061736
  |   Hirshfeld dipole vector :     -0.03772405      -0.01698323      -0.02037470
  |   Hirshfeld dipole moment :      0.04611575
  |   Hirshfeld second moments:      0.03386211      -0.00488769      -0.01911884
  |                                 -0.00488769       0.08661362      -0.02902822
  |                                 -0.01911884      -0.02902822       0.06592907
  ----------------------------------------------------------------------
  | Atom    13: H
  |   Hirshfeld charge        :      0.17084544
  |   Free atom volume        :      9.95071624
  |   Hirshfeld volume        :      6.41532715
  |   Hirshfeld dipole vector :     -0.02913760      -0.09266435       0.05699727
  |   Hirshfeld dipole moment :      0.11262491
  |   Hirshfeld second moments:      0.09097086      -0.01589401      -0.01509414
  |                                 -0.01589401       0.11413254      -0.00913167
  |                                 -0.01509414      -0.00913167       0.11409976
  ----------------------------------------------------------------------


  Total energy components:
  | Sum of eigenvalues            :        -180.61014512 Ha       -4914.65210337 eV
  | XC energy correction          :         -42.63465247 Ha       -1160.14792128 eV
  | XC potential correction       :          54.81313648 Ha        1491.54133248 eV
  | Free-atom electrostatic energy:        -146.85245437 Ha       -3996.05860070 eV
  | Hartree energy correction     :          -8.21529311 Ha        -223.54949962 eV
  | vdW energy correction         :          -0.00328686 Ha          -0.08943989 eV
  | Entropy correction            :           0.00000000 Ha           0.00000000 eV
  | ---------------------------
  | Total energy                  :        -323.50269544 Ha       -8802.95623238 eV
  | Total energy, T -> 0          :        -323.50269544 Ha       -8802.95623238 eV  <-- do not rely on this value for anything but (periodic) metals
  | Electronic free energy        :        -323.50269544 Ha       -8802.95623238 eV

  Derived energy quantities:
  | Kinetic energy                :         322.56604482 Ha        8777.46867227 eV
  | Electrostatic energy          :        -603.43080094 Ha      -16420.18754347 eV
  | Energy correction for multipole
  | error in Hartree potential    :           0.04302903 Ha           1.17087937 eV
  | Sum of eigenvalues per atom                           :        -378.05016180 eV
  | Total energy (T->0) per atom                          :        -677.15047941 eV  <-- do not rely on this value for anything but (periodic) metals
  | Electronic free energy per atom                       :        -677.15047941 eV

  atomic forces [eV/Ang]:
  -----------------------
  atom #    1
   Hellmann-Feynman              :  0.126940E+01  0.568509E+00  0.931541E+00
   Ionic forces                  :  0.000000E+00  0.000000E+00  0.000000E+00
   Multipole                     : -0.664979E-01  0.532900E+00 -0.317313E+00
   Pulay + GGA                   : -0.152373E+01 -0.850676E+00 -0.143732E+01
   Van der Waals                 :  0.168173E-02  0.268099E-03 -0.158771E-02
   ----------------------------------------------------------------
   Total forces(   1)            : -0.319147E+00  0.251001E+00 -0.824676E+00
  atom #    2
   Hellmann-Feynman              :  0.204395E+00  0.427280E-01 -0.190562E+00
   Ionic forces                  :  0.000000E+00  0.000000E+00  0.000000E+00
   Multipole                     :  0.198984E+00  0.109463E-02 -0.318666E-01
   Pulay + GGA                   : -0.129305E+00 -0.137886E-02 -0.230862E-03
   Van der Waals                 : -0.184336E-02 -0.310820E-02  0.479376E-03
   ----------------------------------------------------------------
   Total forces(   2)            :  0.272230E+00  0.393355E-01 -0.222180E+00
  atom #    3
   Hellmann-Feynman              :  0.385178E+01 -0.104108E+02 -0.480071E+01
   Ionic forces                  :  0.000000E+00  0.000000E+00  0.000000E+00
   Multipole                     : -0.543047E-01 -0.151352E-01 -0.860444E+00
   Pulay + GGA                   : -0.328796E+01  0.931268E+01  0.631902E+01
   Van der Waals                 :  0.421219E-02  0.265948E-02 -0.904155E-03
   ----------------------------------------------------------------
   Total forces(   3)            :  0.513732E+00 -0.111055E+01  0.656956E+00
  atom #    4
   Hellmann-Feynman              : -0.186093E+00  0.179490E+00 -0.300155E-01
   Ionic forces                  :  0.000000E+00  0.000000E+00  0.000000E+00
   Multipole                     : -0.898487E-01  0.279297E-01 -0.428880E-01
   Pulay + GGA                   :  0.228276E+00 -0.134681E+00 -0.342372E-01
   Van der Waals                 : -0.330771E-02  0.149731E-02 -0.111453E-01
   ----------------------------------------------------------------
   Total forces(   4)            : -0.509731E-01  0.742358E-01 -0.118286E+00
  atom #    5
   Hellmann-Feynman              : -0.888999E-01  0.298778E+00  0.761681E-01
   Ionic forces                  :  0.000000E+00  0.000000E+00  0.000000E+00
   Multipole                     : -0.186906E-01  0.615811E-01 -0.801012E-01
   Pulay + GGA                   : -0.280530E-01 -0.232199E+00  0.333829E-01
   Van der Waals                 : -0.878868E-03 -0.483760E-02 -0.485700E-02
   ----------------------------------------------------------------
   Total forces(   5)            : -0.136522E+00  0.123323E+00  0.245928E-01
  atom #    6
   Hellmann-Feynman              :  0.266615E+00 -0.578507E+00  0.652919E+00
   Ionic forces                  :  0.000000E+00  0.000000E+00  0.000000E+00
   Multipole                     : -0.145403E+00  0.645052E+00  0.199848E+00
   Pulay + GGA                   :  0.434849E-01 -0.252454E+00 -0.160192E+00
   Van der Waals                 : -0.121376E-02  0.106615E-01  0.112258E-01
   ----------------------------------------------------------------
   Total forces(   6)            :  0.163483E+00 -0.175248E+00  0.703801E+00
  atom #    7
   Hellmann-Feynman              :  0.726529E-01  0.107881E+00  0.220367E+00
   Ionic forces                  :  0.000000E+00  0.000000E+00  0.000000E+00
   Multipole                     :  0.526028E-01  0.114126E+00  0.861660E-01
   Pulay + GGA                   : -0.816214E-01 -0.557261E-01 -0.522151E-01
   Van der Waals                 : -0.255428E-02 -0.495359E-02 -0.328609E-02
   ----------------------------------------------------------------
   Total forces(   7)            :  0.410800E-01  0.161327E+00  0.251032E+00
  atom #    8
   Hellmann-Feynman              :  0.381530E-01 -0.126339E-01 -0.136603E+00
   Ionic forces                  :  0.000000E+00  0.000000E+00  0.000000E+00
   Multipole                     : -0.627595E-01  0.146742E+00 -0.146038E-01
   Pulay + GGA                   :  0.226908E-01 -0.811368E-01  0.709906E-01
   Van der Waals                 :  0.872384E-04  0.320849E-02  0.903499E-02
   ----------------------------------------------------------------
   Total forces(   8)            : -0.182849E-02  0.561793E-01 -0.711812E-01
  atom #    9
   Hellmann-Feynman              : -0.218464E+00  0.861963E-01  0.143377E+00
   Ionic forces                  :  0.000000E+00  0.000000E+00  0.000000E+00
   Multipole                     : -0.983960E-01  0.350733E-01  0.991807E-01
   Pulay + GGA                   :  0.771136E-01  0.381579E-01 -0.731348E-01
   Van der Waals                 :  0.280436E-02 -0.557782E-02 -0.570378E-02
   ----------------------------------------------------------------
   Total forces(   9)            : -0.236942E+00  0.153850E+00  0.163719E+00
  atom #   10
   Hellmann-Feynman              : -0.173298E+01  0.381920E+01 -0.477359E+01
   Ionic forces                  :  0.000000E+00  0.000000E+00  0.000000E+00
   Multipole                     : -0.201568E+00 -0.404674E+00 -0.133283E-01
   Pulay + GGA                   :  0.978287E+00 -0.213979E+01  0.245120E+01
   Van der Waals                 :  0.327379E-02 -0.270991E-02  0.146172E-02
   ----------------------------------------------------------------
   Total forces(  10)            : -0.952991E+00  0.127203E+01 -0.233426E+01
  atom #   11
   Hellmann-Feynman              : -0.119704E+02 -0.821229E+01 -0.402213E+01
   Ionic forces                  :  0.000000E+00  0.000000E+00  0.000000E+00
   Multipole                     : -0.554726E+00 -0.760250E+00 -0.424200E-01
   Pulay + GGA                   :  0.110175E+02  0.857367E+01  0.314047E+01
   Van der Waals                 : -0.182647E-03 -0.295534E-02  0.889565E-02
   ----------------------------------------------------------------
   Total forces(  11)            : -0.150777E+01 -0.401832E+00 -0.915187E+00
  atom #   12
   Hellmann-Feynman              :  0.130449E+02  0.703261E+01  0.607185E+01
   Ionic forces                  :  0.000000E+00  0.000000E+00  0.000000E+00
   Multipole                     :  0.100458E+01 -0.299814E+00  0.109571E+01
   Pulay + GGA                   : -0.119361E+02 -0.651083E+01 -0.519077E+01
   Van der Waals                 : -0.234644E-02  0.180758E-03 -0.657507E-03
   ----------------------------------------------------------------
   Total forces(  12)            :  0.211107E+01  0.222152E+00  0.197612E+01
  atom #   13
   Hellmann-Feynman              :  0.159850E-01 -0.882716E+00  0.842730E+00
   Ionic forces                  :  0.000000E+00  0.000000E+00  0.000000E+00
   Multipole                     : -0.712867E-01 -0.984036E-01  0.837181E-02
   Pulay + GGA                   :  0.155633E+00  0.304348E+00 -0.140426E+00
   Van der Waals                 :  0.267755E-03  0.566678E-02 -0.295598E-02
   ----------------------------------------------------------------
   Total forces(  13)            :  0.100599E+00 -0.671105E+00  0.707720E+00

  Timings for VdW correction (Tkatchenko-Scheffler 2009 or later):
  | CPU time:        0.009 s, Wall clock time:        0.007 s.
  Removing unitary transformations (pure translations, rotations) from forces on atoms.
  Atomic forces before filtering:
  | Net force on center of mass :  -0.397959E-02 -0.530756E-02 -0.182534E-02 eV/A
  | Net torque on center of mass:   0.204121E-02 -0.781233E-02 -0.692485E-02 eV
  Atomic forces after filtering:
  | Net force on center of mass :   0.267609E-15  0.000000E+00  0.892031E-16 eV/A
  | Net torque on center of mass:  -0.944085E-15  0.920482E-15  0.113290E-14 eV

  Energy and forces in a compact form:
  | Total energy uncorrected      :         -0.880295623238194E+04 eV
  | Total energy corrected        :         -0.880295623238194E+04 eV  <-- do not rely on this value for anything but (periodic) metals
  | Electronic free energy        :         -0.880295623238194E+04 eV
  Total atomic forces (unitary forces cleaned) [eV/Ang]:
  |   1         -0.318923804743308E+00          0.251458389930844E+00         -0.824636900499105E+00
  |   2          0.272452797365216E+00          0.399730177905275E-01         -0.222432959138256E+00
  |   3          0.513577471320887E+00         -0.111023626203872E+01          0.657123528248470E+00
  |   4         -0.511280809010799E-01          0.743855164259316E-01         -0.117846375611784E+00
  |   5         -0.136938450920946E+00          0.123679418978940E+00          0.246293066132361E-01
  |   6          0.163692238923113E+00         -0.174840761744990E+00          0.703918210566985E+00
  |   7          0.413647899207474E-01          0.161892708087172E+00          0.250911912285401E+00
  |   8         -0.193123876947118E-02          0.564930848358855E-01         -0.709939309829457E-01
  |   9         -0.236505386610098E+00          0.154153891644236E+00          0.164062527819960E+00
  |  10         -0.952356974533427E+00          0.127245138932574E+01         -0.233405739363234E+01
  |  11         -0.150709418565055E+01         -0.401572294057324E+00         -0.914708029482535E+00
  |  12          0.211202964037162E+01          0.222742835989331E+00          0.197613485490562E+01
  |  13          0.101761184227290E+00         -0.670580935167578E+00          0.707895248907295E+00

  ------------------------------------ 
  Start decomposition of the XC Energy 
  ------------------------------------ 
  X and C from original XC functional choice 
  Hartree-Fock Energy :          0.000000000 Ha              0.000000000 eV
  X Energy            :        -41.035194090 Ha          -1116.624444417 eV
  C Energy            :         -1.599458376 Ha            -43.523476866 eV
  Total XC Energy     :        -42.634652466 Ha          -1160.147921283 eV
  ------------------------------------ 
  LDA X and C from self-consistent density 
  X Energy LDA        :        -37.252683627 Ha          -1013.697097840 eV
  C Energy LDA        :         -3.138214943 Ha            -85.395173451 eV
  ------------------------------------ 
  End decomposition of the XC Energy 
  ------------------------------------ 

------------------------------------------------------------

------------------------------------------------------------------------------
  Final output of selected total energy values:

  The following output summarizes some interesting total energy values
  at the end of a run (AFTER all relaxation, molecular dynamics, etc.).

  | Total energy of the DFT / Hartree-Fock s.c.f. calculation      :          -8802.956232382 eV
  | Final zero-broadening corrected energy (caution - metals only) :          -8802.956232382 eV
  | For reference only, the value of 1 Hartree used in FHI-aims is :             27.211384500 eV

  Before relying on these values, please be sure to understand exactly which
  total energy value is referred to by a given number. Different objects may
  all carry the same name 'total energy'. Definitions:

  Total energy of the DFT / Hartree-Fock s.c.f. calculation:
  | Note that this energy does not include ANY quantities calculated after the
  | s.c.f. cycle, in particular not ANY RPA, MP2, etc. many-body perturbation terms.

  Final zero-broadening corrected energy:
  | For metallic systems only, a broadening of the occupation numbers at the Fermi
  | level can be extrapolated back to zero broadening by an electron-gas inspired
  | formula. For all systems that are not real metals, this value can be
  | meaningless and should be avoided.

------------------------------------------------------------------------------
  Methods described in the following list of references were used in this FHI-aims run.
  If you publish the results, please make sure to cite these reference if they apply.
  FHI-aims is an academic code, and for our developers (often, Ph.D. students
  and postdocs), scientific credit in the community is essential.
  Thank you for helping us!

  For any use of FHI-aims, please cite:

    Volker Blum, Ralf Gehrke, Felix Hanke, Paula Havu, Ville Havu,
    Xinguo Ren, Karsten Reuter, and Matthias Scheffler
    'Ab initio molecular simulations with numeric atom-centered orbitals'
    Computer Physics Communications 180, 2175-2196 (2009)
    http://dx.doi.org/10.1016/j.cpc.2009.06.022


  The scalable eigensolver library ELPA was used in your run.
  ELPA is essential especially for large systems on hundreds or thousands of CPUs.
  For ELPA, please cite:

    Andreas Marek, Volker Blum, Rainer Johanni, Ville Havu, Bruno Lang,
    Thomas Auckenthaler, Alexander Heinecke, Hans-Joachim Bungartz, and Hermann Lederer,
    'The ELPA Library - Scalable Parallel Eigenvalue Solutions
    for Electronic Structure Theory and Computational Science'
    The Journal of Physics: Condensed Matter 26, 213201 (2014).
    http://dx.doi.org/10.1088/0953-8984/26/21/213201


  The ELSI infrastructure was used in your run to solve the Kohn-Sham electronic structure.
  Please check out http://elsi-interchange.org to learn more.
  If scalability is important for your project, please acknowledge ELSI by citing:

    V. W-z. Yu, F. Corsetti, A. Garcia, W. P. Huhn, M. Jacquelin, W. Jia,
    B. Lange, L. Lin, J. Lu, W. Mi, A. Seifitokaldani, A. Vazquez-Mayagoitia,
    C. Yang, H. Yang, and V. Blum
    'ELSI: A unified software interface for Kohn-Sham electronic structure solvers'
    Computer Physics Communications 222, 267-285 (2018).
    http://dx.doi.org/10.1016/j.cpc.2017.09.007


  For the real-space grid partitioning and parallelization used in this calculation, please cite:

    Ville Havu, Volker Blum, Paula Havu, and Matthias Scheffler,
    'Efficient O(N) integration for all-electron electronic structure calculation'
    'using numerically tabulated basis functions'
    Journal of Computational Physics 228, 8367-8379 (2009).
    http://dx.doi.org/10.1016/j.jcp.2009.08.008

  Of course, there are many other important community references, e.g., those cited in the
  above references. Our list is limited to references that describe implementations in the
  FHI-aims code. The reason is purely practical (length of this list) - please credit others as well.

------------------------------------------------------------
          Leaving FHI-aims.
          Date     :  20200616, Time     :  081522.122

          Computational steps:
          | Number of self-consistency cycles          :           15
          | Number of SCF (re)initializations          :            1

          Detailed time accounting                     :  max(cpu_time)    wall_clock(cpu1)
          | Total time                                 :        1.637 s           1.711 s
          | Preparation time                           :        0.165 s           0.164 s
          | Boundary condition initalization           :        0.000 s           0.000 s
          | Grid partitioning                          :        0.022 s           0.022 s
          | Preloading free-atom quantities on grid    :        0.003 s           0.003 s
          | Free-atom superposition energy             :        0.005 s           0.005 s
          | Total time for integrations                :        0.451 s           0.451 s
          | Total time for solution of K.-S. equations :        0.062 s           0.061 s
          | Total time for density & force components  :        0.435 s           0.353 s
          | Total time for mixing                      :        0.018 s           0.017 s
          | Total time for Hartree multipole update    :        0.018 s           0.018 s
          | Total time for Hartree multipole sum       :        0.407 s           0.408 s
          | Total time for total energy evaluation     :        0.003 s           0.001 s
          | Total time for vdW correction              :        0.009 s           0.007 s

          Partial memory accounting:
          | Residual value for overall tracked memory usage across tasks :           0.000 MB (should be 0.000 MB)
          | Peak values for overall tracked memory usage (after allocating hessian_basis_wave):
          |   Minimum:        2.158 MB (on task  4)
          |   Maximum:        2.197 MB (on task  1)
          |   Average:        2.174 MB
          | Largest tracked array allocation (hessian_basis_wave):
          |   Minimum:        1.106 MB (on task  4)
          |   Maximum:        1.125 MB (on task  1)
          |   Average:        1.116 MB
          Note:  These values currently only include a subset of arrays which are explicitly tracked.
          The "true" memory usage will be greater.

          Have a nice day.
------------------------------------------------------------
