  MPI-parallelism will be employed.
------------------------------------------------------------
          Invoking FHI-aims ...
          Version 171221_1
          Compiled on 2019/09/09 at 14:39:39 on host puhti-login2.bullx.

          When using FHI-aims, please cite the following reference:

          Volker Blum, Ralf Gehrke, Felix Hanke, Paula Havu,
          Ville Havu, Xinguo Ren, Karsten Reuter, and Matthias Scheffler,
          'Ab Initio Molecular Simulations with Numeric Atom-Centered Orbitals',
          Computer Physics Communications 180, 2175-2196 (2009)

          For any questions about FHI-aims, please visit the aimsclub website
          with its forums and wiki. Contributions to both the forums and the
          wiki are warmly encouraged - they are for you, and everyone is welcome there.

------------------------------------------------------------



  Date     :  20200710, Time     :  152425.201
  Time zero on CPU 1             :   0.121440000000000E-01  s.
  Internal wall clock time zero  :           363626665.201  s.

  FHI-aims created a unique identifier for this run for later identification
  aims_uuid : 607B5323-DAB1-4F47-A47A-3386743681B0

  Using        1 parallel tasks.
  Task        0 on host r18c42.bullx reporting.

  Performing system and environment tests:
  | Environment variable OMP_NUM_THREADS correctly set to 1.
  | Stacksize not measured: no C compiler
  | Checking for scalapack...
  | Testing pdtran()...
  | All pdtran() tests passed.

  Obtaining array dimensions for all initial allocations:
  
  -----------------------------------------------------------------------
  Parsing control.in (first pass over file, find array dimensions only).
  The contents of control.in will be repeated verbatim below
  unless switched off by setting 'verbatim_writeout .false.' .
  in the first line of control.in .
  -----------------------------------------------------------------------
  
  #########################################################################################
  #
  #  Volker Blum, FHI 2009 : Test run input file control.in for simple H2O
  #
  #########################################################################################
  #
  #  Physical model
  #
    xc                 pbe
    vdw_correction_hirshfeld
    spin               none
    relativistic       none
    charge             0.
  #
  #  SCF convergence
  #
    occupation_type    gaussian 0.01
    mixer              pulay
      n_max_pulay        10
      charge_mix_param   0.2
    sc_accuracy_rho    1E-5
    sc_accuracy_eev    1E-3
    sc_accuracy_etot   1E-6
    sc_accuracy_forces 1E-4
    sc_iter_limit      100
  #
  #  Relaxation
  #
  #  relax_geometry   bfgs 1.e-3
  #
  ################################################################################
  #
  #  FHI-aims code project
  #  VB, Fritz-Haber Institut, 2009
  #
  #  Suggested "light" defaults for H atom (to be pasted into control.in file)
  #  Be sure to double-check any results obtained with these settings for post-processing,
  #  e.g., with the "tight" defaults and larger basis sets.
  #
  ################################################################################
    species        H
  #     global species definitions
      nucleus             1
      mass                1.00794
  #
      l_hartree           4
  #
      cut_pot             3.5  1.5  1.0
      basis_dep_cutoff    1e-4
  #
      radial_base         24 5.0
      radial_multiplier   1
      angular_grids       specified
        division   0.2421   50
        division   0.3822  110
        division   0.4799  194
        division   0.5341  302
  #      division   0.5626  434
  #      division   0.5922  590
  #      division   0.6542  770
  #      division   0.6868 1202
  #      outer_grid  770
        outer_grid  302
  ################################################################################
  #
  #  Definition of "minimal" basis
  #
  ################################################################################
  #     valence basis states
      valence      1  s   1.
  #     ion occupancy
      ion_occ      1  s   0.5
  ################################################################################
  #
  #  Suggested additional basis functions. For production calculations,
  #  uncomment them one after another (the most important basis functions are
  #  listed first).
  #
  #  Basis constructed for dimers: 0.5 A, 0.7 A, 1.0 A, 1.5 A, 2.5 A
  #
  ################################################################################
  #  "First tier" - improvements: -1014.90 meV to -62.69 meV
       hydro 2 s 2.1
       hydro 2 p 3.5
  #  "Second tier" - improvements: -12.89 meV to -1.83 meV
  #     hydro 1 s 0.85
  #     hydro 2 p 3.7
  #     hydro 2 s 1.2
  #     hydro 3 d 7
  #  "Third tier" - improvements: -0.25 meV to -0.12 meV
  #     hydro 4 f 11.2
  #     hydro 3 p 4.8
  #     hydro 4 d 9
  #     hydro 3 s 3.2
  ################################################################################
  #
  #  FHI-aims code project
  #  VB, Fritz-Haber Institut, 2009
  #
  #  Suggested "light" defaults for C atom (to be pasted into control.in file)
  #  Be sure to double-check any results obtained with these settings for post-processing,
  #  e.g., with the "tight" defaults and larger basis sets.
  #
  ################################################################################
    species        C
  #     global species definitions
      nucleus             6
      mass                12.0107
  #
      l_hartree           4
  #
      cut_pot             3.5  1.5  1.0
      basis_dep_cutoff    1e-4
  #
      radial_base         34 5.0
      radial_multiplier   1
      angular_grids specified
        division   0.3326   50
        division   0.5710  110
        division   0.7727  194
        division   0.8772  302
  #      division   0.9334  434
  #      division   0.9625  590
  #      division   0.9924  770
  #      division   1.0230  974
  #      division   1.4589 1202
  #     outer_grid  974
       outer_grid 302
  ################################################################################
  #
  #  Definition of "minimal" basis
  #
  ################################################################################
  #     valence basis states
      valence      2  s   2.
      valence      2  p   2.
  #     ion occupancy
      ion_occ      2  s   1.
      ion_occ      2  p   1.
  ################################################################################
  #
  #  Suggested additional basis functions. For production calculations,
  #  uncomment them one after another (the most important basis functions are
  #  listed first).
  #
  #  Constructed for dimers: 1.0 A, 1.25 A, 1.5 A, 2.0 A, 3.0 A
  #
  ################################################################################
  #  "First tier" - improvements: -1214.57 meV to -155.61 meV
       hydro 2 p 1.7
       hydro 3 d 6
       hydro 2 s 4.9
  #  "Second tier" - improvements: -67.75 meV to -5.23 meV
  #     hydro 4 f 9.8
  #     hydro 3 p 5.2
  #     hydro 3 s 4.3
  #     hydro 5 g 14.4
  #     hydro 3 d 6.2
  #  "Third tier" - improvements: -2.43 meV to -0.60 meV
  #     hydro 2 p 5.6
  #     hydro 2 s 1.4
  #     hydro 3 d 4.9
  #     hydro 4 f 11.2
  #  "Fourth tier" - improvements: -0.39 meV to -0.18 meV
  #     hydro 2 p 2.1
  #     hydro 5 g 16.4
  #     hydro 4 d 13.2
  #     hydro 3 s 13.6
  #     hydro 4 f 17.6
  #  Further basis functions - improvements: -0.08 meV and below
  #     hydro 3 s 2
  #     hydro 3 p 6
  #     hydro 4 d 20
  ################################################################################
  #
  #  FHI-aims code project
  #  VB, Fritz-Haber Institut, 2009
  #
  #  Suggested "light" defaults for N atom (to be pasted into control.in file)
  #  Be sure to double-check any results obtained with these settings for post-processing,
  #  e.g., with the "tight" defaults and larger basis sets.
  #
  ################################################################################
    species        N
  #     global species definitions
      nucleus             7
      mass                14.0067
  #
      l_hartree           4
  #
      cut_pot             3.5  1.5  1.0
      basis_dep_cutoff    1e-4
  #
      radial_base         35 5.0
      radial_multiplier   1
      angular_grids       specified
        division   0.2599   50
        division   0.4601  110
        division   0.5885  194
        division   0.6503  302
  #      division   0.6939  434
  #      division   0.7396  590
  #      division   0.7632  770
  #      division   0.8122  974
  #      division   1.1604 1202
  #      outer_grid  974
        outer_grid  302
  ################################################################################
  #
  #  Definition of "minimal" basis
  #
  ################################################################################
  #     valence basis states
      valence      2  s   2.
      valence      2  p   3.
  #     ion occupancy
      ion_occ      2  s   1.
      ion_occ      2  p   2.
  ################################################################################
  #
  #  Suggested additional basis functions. For production calculations,
  #  uncomment them one after another (the most important basis functions are
  #  listed first).
  #
  #  Constructed for dimers: 1.0 A, 1.1 A, 1.5 A, 2.0 A, 3.0 A
  #
  ################################################################################
  #  "First tier" - improvements: -1193.42 meV to -220.60 meV
       hydro 2 p 1.8
       hydro 3 d 6.8
       hydro 3 s 5.8
  #  "Second tier" - improvements: -80.21 meV to -6.86 meV
  #     hydro 4 f 10.8
  #     hydro 3 p 5.8
  #     hydro 1 s 0.8
  #     hydro 5 g 16
  #     hydro 3 d 4.9
  #  "Third tier" - improvements: -4.29 meV to -0.53 meV
  #     hydro 3 s 16
  #     ionic 2 p auto
  #     hydro 3 d 6.6
  #     hydro 4 f 11.6
  #  "Fourth tier" - improvements: -0.75 meV to -0.25 meV
  #     hydro 2 p 4.5
  #     hydro 2 s 2.4
  #     hydro 5 g 14.4
  #     hydro 4 d 14.4
  #     hydro 4 f 16.8
  # Further basis functions - -0.21 meV and below
  #     hydro 3 p 14.8
  #     hydro 3 s 4.4
  #     hydro 3 d 19.6
  #     hydro 5 g 12.8
  ################################################################################
  #
  #  FHI-aims code project
  #  VB, Fritz-Haber Institut, 2009
  #
  #  Suggested "light" defaults for O atom (to be pasted into control.in file)
  #  Be sure to double-check any results obtained with these settings for post-processing,
  #  e.g., with the "tight" defaults and larger basis sets.
  #
  ################################################################################
    species        O
  #     global species definitions
      nucleus             8
      mass                15.9994
  #
      l_hartree           4
  #
      cut_pot             3.5  1.5  1.0
      basis_dep_cutoff    1e-4
  #
      radial_base         36 5.0
      radial_multiplier   1
       angular_grids specified
        division   0.2659   50
        division   0.4451  110
        division   0.6052  194
        division   0.7543  302
  #      division   0.8014  434
  #      division   0.8507  590
  #      division   0.8762  770
  #      division   0.9023  974
  #      division   1.2339 1202
  #      outer_grid 974
        outer_grid 302
  ################################################################################
  #
  #  Definition of "minimal" basis
  #
  ################################################################################
  #     valence basis states
      valence      2  s   2.
      valence      2  p   4.
  #     ion occupancy
      ion_occ      2  s   1.
      ion_occ      2  p   3.
  ################################################################################
  #
  #  Suggested additional basis functions. For production calculations,
  #  uncomment them one after another (the most important basis functions are
  #  listed first).
  #
  #  Constructed for dimers: 1.0 A, 1.208 A, 1.5 A, 2.0 A, 3.0 A
  #
  ################################################################################
  #  "First tier" - improvements: -699.05 meV to -159.38 meV
       hydro 2 p 1.8
       hydro 3 d 7.6
       hydro 3 s 6.4
  #  "Second tier" - improvements: -49.91 meV to -5.39 meV
  #     hydro 4 f 11.6
  #     hydro 3 p 6.2
  #     hydro 3 d 5.6
  #     hydro 5 g 17.6
  #     hydro 1 s 0.75
  #  "Third tier" - improvements: -2.83 meV to -0.50 meV
  #     ionic 2 p auto
  #     hydro 4 f 10.8
  #     hydro 4 d 4.7
  #     hydro 2 s 6.8
  #  "Fourth tier" - improvements: -0.40 meV to -0.12 meV
  #     hydro 3 p 5
  #     hydro 3 s 3.3
  #     hydro 5 g 15.6
  #     hydro 4 f 17.6
  #     hydro 4 d 14
  # Further basis functions - -0.08 meV and below
  #     hydro 3 s 2.1
  #     hydro 4 d 11.6
  #     hydro 3 p 16
  #     hydro 2 s 17.2
  
  -----------------------------------------------------------------------
  Completed first pass over input file control.in .
  -----------------------------------------------------------------------
  
  
  -----------------------------------------------------------------------
  Parsing geometry.in (first pass over file, find array dimensions only).
  The contents of geometry.in will be repeated verbatim below
  unless switched off by setting 'verbatim_writeout .false.' .
  in the first line of geometry.in .
  -----------------------------------------------------------------------
  
  atom  0.00000 0.00000 0.00000 C
  atom  1.09300 0.00000 0.00000 H
  atom  -0.47961 0.00000 -1.41207 N
  atom  0.32698 -0.08712 -2.03146 H
  atom  -1.11049 -0.78802 -1.54299 H
  atom  -0.49584 1.26211 0.72868 C
  atom  -1.58789 1.28919 0.74431 H
  atom  -0.13407 1.27425 1.75947 H
  atom  -0.13407 2.16087 0.22380 H
  atom  -0.39425 -1.28861 0.74398 C
  atom  -0.10189 -1.56493 1.88303 O
  atom  -1.10210 -2.13717 0.06896 O
  atom  -0.87559 -2.93983 0.56837 H
  
  -----------------------------------------------------------------------
  Completed first pass over input file geometry.in .
  -----------------------------------------------------------------------
  

  Basic array size parameters:
  | Number of species                 :        4
  | Number of atoms                   :       13
  | Max. basis fn. angular momentum   :        2
  | Max. atomic/ionic basis occupied n:        2
  | Max. number of basis fn. types    :        2
  | Max. radial fns per species/type  :        3
  | Max. logarithmic grid size        :     1301
  | Max. radial integration grid size :       36
  | Max. angular integration grid size:      302
  | Max. angular grid division number :        8
  | Radial grid for Hartree potential :     1301
  | Number of spin channels           :        1

------------------------------------------------------------
          Reading file control.in.
------------------------------------------------------------
  XC: Using PBE gradient-corrected functionals.
  Spin treatment: No spin polarisation.
  Non-relativistic treatment of kinetic energy.
  Charge =   0.000000E+00: Neutral system requested explicitly.
  Occupation type: Gaussian broadening, width =   0.100000E-01 eV.
  Using pulay charge density mixing.
  Pulay mixing - number of memorized iterations:   10
  Charge density mixing - mixing parameter:     0.2000
  Convergence accuracy of self-consistent charge density:  0.1000E-04
  Convergence accuracy of sum of eigenvalues:  0.1000E-02
  Convergence accuracy of total energy:  0.1000E-05
  Convergence accuracy of forces:  0.1000E-03
  Maximum number of s.-c. iterations  :   100
 
  Reading configuration options for species H                   .
  | Found nuclear charge :   1.0000
  | Found atomic mass :    1.00794000000000      amu
  | Found l_max for Hartree potential  :   4
  | Found cutoff potl. onset [A], width [A], scale factor :    3.50000    1.50000    1.00000
  | Threshold for basis-dependent cutoff potential is   0.100000E-03
  | Found data for basic radial integration grid :    24 points, outermost radius =    5.000 A
  | Found multiplier for basic radial grid :   1
  | Found angular grid specification: user-specified.
  | Specified grid contains     5 separate shells.
  | Check grid settings after all constraints further below.
  | Found free-atom valence shell :  1 s   1.000
  | No ionic wave fns used. Skipping ion_occ.
  | Found hydrogenic basis function :  2 s   2.100
  | Found hydrogenic basis function :  2 p   3.500
  Species H                   : Missing cutoff potential type.
  Defaulting to exp(1/x)/(1-x)^2 type cutoff potential.
  Species H : No 'logarithmic' tag. Using default grid for free atom:
  | Default logarithmic grid data [bohr] : 0.1000E-03 0.1000E+03 0.1012E+01
  Species H : On-site basis accuracy parameter (for Gram-Schmidt orthonormalisation) not specified.
  Using default value basis_acc =  0.1000000E-03.
  Species H                   : Using default innermost maximum threshold i_radial=  2 for radial functions.
  Species H                   : Default cutoff onset for free atom density etc. : 0.35000000E+01 AA.
  Species H                   : Basic radial grid will be enhanced according to radial_multiplier =   1, to contain    24 grid points.
 
  Reading configuration options for species C                   .
  | Found nuclear charge :   6.0000
  | Found atomic mass :    12.0107000000000      amu
  | Found l_max for Hartree potential  :   4
  | Found cutoff potl. onset [A], width [A], scale factor :    3.50000    1.50000    1.00000
  | Threshold for basis-dependent cutoff potential is   0.100000E-03
  | Found data for basic radial integration grid :    34 points, outermost radius =    5.000 A
  | Found multiplier for basic radial grid :   1
  | Found angular grid specification: user-specified.
  | Specified grid contains     5 separate shells.
  | Check grid settings after all constraints further below.
  | Found free-atom valence shell :  2 s   2.000
  | Found free-atom valence shell :  2 p   2.000
  | No ionic wave fns used. Skipping ion_occ.
  | No ionic wave fns used. Skipping ion_occ.
  | Found hydrogenic basis function :  2 p   1.700
  | Found hydrogenic basis function :  3 d   6.000
  | Found hydrogenic basis function :  2 s   4.900
  Species C                   : Missing cutoff potential type.
  Defaulting to exp(1/x)/(1-x)^2 type cutoff potential.
  Species C : No 'logarithmic' tag. Using default grid for free atom:
  | Default logarithmic grid data [bohr] : 0.1000E-03 0.1000E+03 0.1012E+01
  Species C : On-site basis accuracy parameter (for Gram-Schmidt orthonormalisation) not specified.
  Using default value basis_acc =  0.1000000E-03.
  Species C                   : Using default innermost maximum threshold i_radial=  2 for radial functions.
  Species C                   : Default cutoff onset for free atom density etc. : 0.35000000E+01 AA.
  Species C                   : Basic radial grid will be enhanced according to radial_multiplier =   1, to contain    34 grid points.
 
  Reading configuration options for species N                   .
  | Found nuclear charge :   7.0000
  | Found atomic mass :    14.0067000000000      amu
  | Found l_max for Hartree potential  :   4
  | Found cutoff potl. onset [A], width [A], scale factor :    3.50000    1.50000    1.00000
  | Threshold for basis-dependent cutoff potential is   0.100000E-03
  | Found data for basic radial integration grid :    35 points, outermost radius =    5.000 A
  | Found multiplier for basic radial grid :   1
  | Found angular grid specification: user-specified.
  | Specified grid contains     5 separate shells.
  | Check grid settings after all constraints further below.
  | Found free-atom valence shell :  2 s   2.000
  | Found free-atom valence shell :  2 p   3.000
  | No ionic wave fns used. Skipping ion_occ.
  | No ionic wave fns used. Skipping ion_occ.
  | Found hydrogenic basis function :  2 p   1.800
  | Found hydrogenic basis function :  3 d   6.800
  | Found hydrogenic basis function :  3 s   5.800
  Species N                   : Missing cutoff potential type.
  Defaulting to exp(1/x)/(1-x)^2 type cutoff potential.
  Species N : No 'logarithmic' tag. Using default grid for free atom:
  | Default logarithmic grid data [bohr] : 0.1000E-03 0.1000E+03 0.1012E+01
  Species N : On-site basis accuracy parameter (for Gram-Schmidt orthonormalisation) not specified.
  Using default value basis_acc =  0.1000000E-03.
  Species N                   : Using default innermost maximum threshold i_radial=  2 for radial functions.
  Species N                   : Default cutoff onset for free atom density etc. : 0.35000000E+01 AA.
  Species N                   : Basic radial grid will be enhanced according to radial_multiplier =   1, to contain    35 grid points.
 
  Reading configuration options for species O                   .
  | Found nuclear charge :   8.0000
  | Found atomic mass :    15.9994000000000      amu
  | Found l_max for Hartree potential  :   4
  | Found cutoff potl. onset [A], width [A], scale factor :    3.50000    1.50000    1.00000
  | Threshold for basis-dependent cutoff potential is   0.100000E-03
  | Found data for basic radial integration grid :    36 points, outermost radius =    5.000 A
  | Found multiplier for basic radial grid :   1
  | Found angular grid specification: user-specified.
  | Specified grid contains     5 separate shells.
  | Check grid settings after all constraints further below.
  | Found free-atom valence shell :  2 s   2.000
  | Found free-atom valence shell :  2 p   4.000
  | No ionic wave fns used. Skipping ion_occ.
  | No ionic wave fns used. Skipping ion_occ.
  | Found hydrogenic basis function :  2 p   1.800
  | Found hydrogenic basis function :  3 d   7.600
  | Found hydrogenic basis function :  3 s   6.400
  Species O                   : Missing cutoff potential type.
  Defaulting to exp(1/x)/(1-x)^2 type cutoff potential.
  Species O : No 'logarithmic' tag. Using default grid for free atom:
  | Default logarithmic grid data [bohr] : 0.1000E-03 0.1000E+03 0.1012E+01
  Species O : On-site basis accuracy parameter (for Gram-Schmidt orthonormalisation) not specified.
  Using default value basis_acc =  0.1000000E-03.
  Species O                   : Using default innermost maximum threshold i_radial=  2 for radial functions.
  Species O                   : Default cutoff onset for free atom density etc. : 0.35000000E+01 AA.
  Species O                   : Basic radial grid will be enhanced according to radial_multiplier =   1, to contain    36 grid points.
 
  Finished reading input file 'control.in'. Consistency checks are next.
 
  MPI_IN_PLACE appears to work with this MPI implementation.
  | Keeping use_mpi_in_place .true. (see manual).
  Target number of points in a grid batch is not set. Defaulting to  100
  Method for grid partitioning is not set. Defaulting to parallel hash+maxmin partitioning.
  Batch size limit is not set. Defaulting to    200
  By default, will store active basis functions for each batch.
  If in need of memory, prune_basis_once .false. can be used to disable this option.
  communication_type for Hartree potential was not specified.
  Defaulting to calc_hartree .
  Pulay mixer: Number of initial linear mixing iterations not set.
  Defaulting to    0 iterations.
  Work space size for distributed Hartree potential not set.
  Defaulting to   0.200000E+03 MB.
  Algorithm-dependent basis array size parameters:
  | n_max_pulay                         :       10
  Presetting      1001 iterations before the initial mixing cycle
  is restarted anyway using the sc_init_iter criterion / keyword.
  Presetting a factor      1.000 between actual scf density residual
  and density convergence criterion sc_accuracy_rho below which sc_init_iter
  takes no effect.
  Geometry relaxation not requested: no relaxation will be performed.
  Handling of forces: Unphysical translation and rotation will be removed from forces.
  No accuracy limit for integral partition fn. given. Defaulting to  0.1000E-14.
  No threshold value for u(r) in integrations given. Defaulting to  0.1000E-05.
  No accuracy for occupation numbers given. Defaulting to  0.1000E-12.
  No threshold value for occupation numbers given. Defaulting to  0.0000E+00.
  No accuracy for fermi level given. Defaulting to  0.1000E-19.
  Maximum # of iterations to find E_F not set. Defaulting to  200.
  Preferred method for the eigenvalue solver ('KS_method') not specified in 'control.in'.
  Defaulting to serial version, 'lapack_fast'.
  Will not use alltoall communication since running on < 1024 CPUs.
  Threshold for basis singularities not set.
  Default threshold for basis singularities:  0.1000E-04
  partition_type (choice of integration weights) for integrals was not specified.
  | Using a version of the partition function of Stratmann and coworkers ('stratmann_smoother').
  | At each grid point, the set of atoms used to build the partition table is smoothly restricted to
  | only those atoms whose free-atom density would be non-zero at that grid point.
  Partitioning for Hartree potential was not defined. Using partition_type for integrals.
  | Adjusted default value of keyword multip_moments_threshold to:       0.10000000E-11
  | This value may affect high angular momentum components of the Hartree potential in periodic systems.
  No q(lm)/r^(l+1) cutoff set for long-range Hartree potential.
  | Using default value of  0.100000E-09 .
  | Verify using the multipole_threshold keyword.
  Defaulting to new monopole extrapolation.
  Density update method: automatic selection selected.
------------------------------------------------------------


------------------------------------------------------------
          Reading geometry description geometry.in.
------------------------------------------------------------
  Input structure read successfully.
  The structure contains       13 atoms,  and a total of         48.000 electrons.

  Input geometry:
  | No unit cell requested.
  | Atomic structure:
  |       Atom                x [A]            y [A]            z [A]
  |    1: Species C             0.00000000        0.00000000        0.00000000
  |    2: Species H             1.09300000        0.00000000        0.00000000
  |    3: Species N            -0.47961000        0.00000000       -1.41207000
  |    4: Species H             0.32698000       -0.08712000       -2.03146000
  |    5: Species H            -1.11049000       -0.78802000       -1.54299000
  |    6: Species C            -0.49584000        1.26211000        0.72868000
  |    7: Species H            -1.58789000        1.28919000        0.74431000
  |    8: Species H            -0.13407000        1.27425000        1.75947000
  |    9: Species H            -0.13407000        2.16087000        0.22380000
  |   10: Species C            -0.39425000       -1.28861000        0.74398000
  |   11: Species O            -0.10189000       -1.56493000        1.88303000
  |   12: Species O            -1.10210000       -2.13717000        0.06896000
  |   13: Species H            -0.87559000       -2.93983000        0.56837000
  |

  | The smallest distance between any two atoms is         0.97210092 AA.
  |
  | The first atom of this pair is atom number                     12 .
  | The second atom of this pair is atom number                    13 .

  Number of empty states per atom not set in control.in - providing a guess from actual geometry.
  | Total number of empty states used during s.c.f. cycle:       29
  If you use a very high smearing, use empty_states (per atom!) in control.in to increase this value.

  Structure-dependent array size parameters: 
  | Maximum number of distinct radial functions  :       21
  | Maximum number of basis functions            :      119
  | Number of Kohn-Sham states (occupied + empty):       53
------------------------------------------------------------

------------------------------------------------------------
          Preparing all fixed parts of the calculation.
------------------------------------------------------------
  Determining machine precision:
    2.225073858507201E-308
  Setting up grids for atomic and cluster calculations.

  Creating wave function, potential, and density for free atoms.

  Species: H

  List of occupied orbitals and eigenvalues:
    n    l              occ      energy [Ha]    energy [eV]
    1    0           1.0000        -0.237589        -6.4651


  Species: C

  List of occupied orbitals and eigenvalues:
    n    l              occ      energy [Ha]    energy [eV]
    1    0           2.0000       -10.038835      -273.1706
    2    0           2.0000        -0.502696       -13.6791
    2    1           2.0000        -0.191971        -5.2238


  Species: N

  List of occupied orbitals and eigenvalues:
    n    l              occ      energy [Ha]    energy [eV]
    1    0           2.0000       -14.128000      -384.4424
    2    0           2.0000        -0.681077       -18.5330
    2    1           3.0000        -0.259788        -7.0692


  Species: O

  List of occupied orbitals and eigenvalues:
    n    l              occ      energy [Ha]    energy [eV]
    1    0           2.0000       -18.898188      -514.2459
    2    0           2.0000        -0.878505       -23.9053
    2    1           4.0000        -0.331779        -9.0282

  Creating fixed part of basis set: Ionic, confined, hydrogenic.
 
  H                    hydrogenic:
 
  List of hydrogenic basis orbitals: 
    n    l      effective z      eigenvalue [eV]  inner max. [A]     outer max. [A]     outer radius [A]   
    2    0         2.100000       -14.9728           0.193243           1.317208           4.583499
    2    1         3.500000       -41.6669           0.602369           0.602369           3.723403
 
 
  C                    hydrogenic:
 
  List of hydrogenic basis orbitals: 
    n    l      effective z      eigenvalue [eV]  inner max. [A]     outer max. [A]     outer radius [A]   
    2    1         1.700000        -9.7616           1.230570           1.230570           4.607917
    3    2         6.000000       -54.4224           0.792453           0.792453           3.883070
    2    0         4.900000       -81.6679           0.082559           0.562749           3.078220
 
 
  N                    hydrogenic:
 
  List of hydrogenic basis orbitals: 
    n    l      effective z      eigenvalue [eV]  inner max. [A]     outer max. [A]     outer radius [A]   
    2    1         1.800000       -10.9749           1.177451           1.177451           4.573712
    3    2         6.800000       -69.9026           0.704619           0.704619           3.538137
    3    0         5.800000       -50.8545           0.067388           1.191934           4.250239
 
 
  O                    hydrogenic:
 
  List of hydrogenic basis orbitals: 
    n    l      effective z      eigenvalue [eV]  inner max. [A]     outer max. [A]     outer radius [A]   
    2    1         1.800000       -10.9749           1.164242           1.164242           4.578029
    3    2         7.600000       -87.3180           0.624125           0.624125           3.251020
    3    0         6.400000       -61.9207           0.061167           1.081902           4.001998
 

  Adding cutoff potential to free-atom effective potential.
  Creating atomic-like basis functions for current effective potential.

  Species H                   :

  List of atomic basis orbitals and eigenvalues:
    n    l      energy [Ha]    energy [eV]    outer radius [A]
    1    0        -0.237589        -6.4651       4.527807


  Species C                   :

  List of atomic basis orbitals and eigenvalues:
    n    l      energy [Ha]    energy [eV]    outer radius [A]
    1    0       -10.038835      -273.1706       1.934409
    2    0        -0.502696       -13.6791       4.496620
    2    1        -0.191971        -5.2238       4.551928


  Species N                   :

  List of atomic basis orbitals and eigenvalues:
    n    l      energy [Ha]    energy [eV]    outer radius [A]
    1    0       -14.128000      -384.4424       1.637919
    2    0        -0.681077       -18.5330       4.463241
    2    1        -0.259788        -7.0692       4.518138


  Species O                   :

  List of atomic basis orbitals and eigenvalues:
    n    l      energy [Ha]    energy [eV]    outer radius [A]
    1    0       -18.898188      -514.2459       1.415765
    2    0        -0.878505       -23.9053       4.413171
    2    1        -0.331779        -9.0282       4.522403

  Assembling full basis from fixed parts.
  | Species H :   atomic orbital   1 s accepted.
  | Species H :    hydro orbital   2 s accepted.
  | Species H :    hydro orbital   2 p accepted.
  | Species C :   atomic orbital   1 s accepted.
  | Species C :    hydro orbital   2 s accepted.
  | Species C :   atomic orbital   2 s accepted.
  | Species C :   atomic orbital   2 p accepted.
  | Species C :    hydro orbital   2 p accepted.
  | Species C :    hydro orbital   3 d accepted.
  | Species N :   atomic orbital   1 s accepted.
  | Species N :    hydro orbital   3 s accepted.
  | Species N :   atomic orbital   2 s accepted.
  | Species N :   atomic orbital   2 p accepted.
  | Species N :    hydro orbital   2 p accepted.
  | Species N :    hydro orbital   3 d accepted.
  | Species O :   atomic orbital   1 s accepted.
  | Species O :    hydro orbital   3 s accepted.
  | Species O :   atomic orbital   2 s accepted.
  | Species O :   atomic orbital   2 p accepted.
  | Species O :    hydro orbital   2 p accepted.
  | Species O :    hydro orbital   3 d accepted.
 
  Basis size parameters after reduction:
  | Total number of radial functions:       21
  | Total number of basis functions :      119
 
  Per-task memory consumption for arrays in subroutine allocate_ext:
  |           5.250512MB.
  Testing on-site integration grid accuracy.
  |  Species  Function  <phi|h_atom|phi> (log., in eV)  <phi|h_atom|phi> (rad., in eV)
           1        1                 -6.4663192853                 -6.4651273558
           1        2                 13.7111246313                 13.7170609718
           1        3                 25.2673269279                 25.2674696378
           2        4               -273.1705927641               -273.1705631568
           2        5                -10.7109323383                -10.7107120029
           2        6                 17.4381822266                 17.4352413244
           2        7                 -5.2255326521                 -5.2270484734
           2        8                  8.6835629259                  8.6603288385
           2        9                 27.4952418996                 27.4953360207
           3       10               -384.4424306495               -384.4423701208
           3       11                 12.5842251816                 12.5842222903
           3       12                -15.7264628251                -15.7264433455
           3       13                 -7.0696854293                 -7.0701769954
           3       14                  8.8090390882                  8.7901077751
           3       15                 35.9586762123                 35.9588528632
           4       16               -514.2458688638               -514.2457643834
           4       17                 15.1795651126                 15.1795290741
           4       18                -21.5359799773                -21.5360846186
           4       19                 -9.0283069236                 -9.0284644067
           4       20                  8.3027758564                  8.2834874195
           4       21                 45.8339351984                 45.8338762259

  Preparing densities etc. for the partition functions (integrals / Hartree potential).

  Preparations completed.
  max(cpu_time)          :      0.147 s.
  Wall clock time (cpu1) :      0.149 s.
------------------------------------------------------------

------------------------------------------------------------
          Begin self-consistency loop: Initialization.

          Date     :  20200710, Time     :  152425.364
------------------------------------------------------------

  Initializing index lists of integration centers etc. from given atomic structure:
  | Number of centers in hartree potential         :        13
  | Number of centers in hartree multipole         :        13
  | Number of centers in electron density summation:        13
  | Number of centers in basis integrals           :        13
  | Number of centers in integrals                 :        13
  | Number of centers in hamiltonian               :        13
  Partitioning the integration grid into batches with parallel hashing+maxmin method.
  | Number of batches:      955
  | Maximal batch size:     139
  | Minimal batch size:      66
  | Average batch size:      72.928
  | Standard deviation of batch sizes:      17.639

  Integration load balanced across     1 MPI tasks.
  Work distribution over tasks is as follows:
  Task     0 has      69646 integration points.
  Initializing partition tables, free-atom densities, potentials, etc. across the integration grid (initialize_grid_storage).
  | initialize_grid_storage: Actual outermost partition radius vs. multipole_radius_free
  | (-- VB: in principle, multipole_radius_free should be larger, hence this output)
  | Species        1: Confinement radius =              4.999999999999999 AA, multipole_radius_free =              5.054417573612229 AA.
  | Species        1: outer_partition_radius set to              5.054417573612229 AA .
  | Species        2: Confinement radius =              4.999999999999999 AA, multipole_radius_free =              5.019602836301480 AA.
  | Species        2: outer_partition_radius set to              5.019602836301480 AA .
  | Species        3: Confinement radius =              4.999999999999999 AA, multipole_radius_free =              5.043624274424571 AA.
  | Species        3: outer_partition_radius set to              5.043624274424571 AA .
  | Species        4: Confinement radius =              4.999999999999999 AA, multipole_radius_free =              5.048384829883283 AA.
  | Species        4: outer_partition_radius set to              5.048384829883283 AA .
  | Original list of interatomic distances with          13 x         13 entries is created.
  | Net number of integration points:    69646
  | of which are non-zero points    :    59676
  Renormalizing the initial density to the exact electron count on the 3D integration grid.
  | Initial density: Formal number of electrons (from input files) :      48.0000000000
  | Integrated number of electrons on 3D grid     :      47.9999640080
  | Charge integration error                      :      -0.0000359920
  | Normalization factor for density and gradient :       1.0000007498
  Obtaining max. number of non-zero basis functions in each batch (get_n_compute_maxes).
  | Maximal number of non-zero basis functions:      119 in task     0
  Selecting the method for density update.
  Loop over occupied states selected for charge density update.
  Allocating        0.050 MB for KS_eigenvector
  Integrating Hamiltonian matrix: batch-based integration.
  Time summed over all CPUs for integration: real work        0.490 s, elapsed        0.490 s
  Integrating overlap matrix.
  Time summed over all CPUs for integration: real work        0.210 s, elapsed        0.210 s

  Updating Kohn-Sham eigenvalues and eigenvectors using ELSI and the ELPA eigensolver.
  Overlap matrix is nonsingular
  | Lowest eigenvalue of overlap  :  0.45E-02
  | Highest eigenvalue of overlap :  0.61E+01
  Finished singularity check of overlap matrix
  | Time :     0.002 s
  Finished Cholesky decomposition
  | Time :     0.000 s
  Finished transformation to standard eigenproblem
  | Time :     0.000 s
  Starting LAPACK eigensolver
  Finished solving standard eigenproblem
  | Time :     0.002 s
  Finished back-transformation of eigenvectors
  | Time :     0.000 s

  Obtaining occupation numbers and chemical potential using ELSI.
  | Chemical potential (Fermi level):    -9.90396184eV
  Writing Kohn-Sham eigenvalues.

  State    Occupation    Eigenvalue [Ha]    Eigenvalue [eV]
      1       2.00000         -19.008433         -517.24579
      2       2.00000         -18.978192         -516.42288
      3       2.00000         -14.245789         -387.64763
      4       2.00000         -10.166582         -276.64678
      5       2.00000         -10.141238         -275.95712
      6       2.00000         -10.132154         -275.70993
      7       2.00000          -1.188475          -32.34005
      8       2.00000          -1.093870          -29.76572
      9       2.00000          -0.991076          -26.96855
     10       2.00000          -0.861839          -23.45182
     11       2.00000          -0.757798          -20.62073
     12       2.00000          -0.684986          -18.63940
     13       2.00000          -0.621196          -16.90362
     14       2.00000          -0.610180          -16.60385
     15       2.00000          -0.589044          -16.02871
     16       2.00000          -0.559218          -15.21709
     17       2.00000          -0.550384          -14.97672
     18       2.00000          -0.536017          -14.58575
     19       2.00000          -0.515553          -14.02892
     20       2.00000          -0.492251          -13.39482
     21       2.00000          -0.478627          -13.02411
     22       2.00000          -0.429172          -11.67837
     23       2.00000          -0.412843          -11.23403
     24       2.00000          -0.384662          -10.46719
     25       0.00000          -0.151300           -4.11708
     26       0.00000          -0.058240           -1.58478
     27       0.00000          -0.027794           -0.75631
     28       0.00000          -0.022739           -0.61876
     29       0.00000           0.003339            0.09085
     30       0.00000           0.011165            0.30381
     31       0.00000           0.024545            0.66791
     32       0.00000           0.025749            0.70066
     33       0.00000           0.041037            1.11668
     34       0.00000           0.070893            1.92910
     35       0.00000           0.088039            2.39565
     36       0.00000           0.133086            3.62145
     37       0.00000           0.156091            4.24744
     38       0.00000           0.196524            5.34769
     39       0.00000           0.210910            5.73916
     40       0.00000           0.221620            6.03059
     41       0.00000           0.262476            7.14233
     42       0.00000           0.277510            7.55143
     43       0.00000           0.298919            8.13400
     44       0.00000           0.305571            8.31502
     45       0.00000           0.338365            9.20738
     46       0.00000           0.355774            9.68111
     47       0.00000           0.379255           10.32005
     48       0.00000           0.411731           11.20378
     49       0.00000           0.430604           11.71734
     50       0.00000           0.477769           13.00075
     51       0.00000           0.509466           13.86328
     52       0.00000           0.531749           14.46962
     53       0.00000           0.552977           15.04728

  Highest occupied state (VBM) at    -10.46719151 eV
  | Occupation number:      2.00000000

  Lowest unoccupied state (CBM) at    -4.11707762 eV
  | Occupation number:      0.00000000

  Overall HOMO-LUMO gap:      6.35011390 eV.
  Calculating total energy contributions from superposition of free atom densities.

  Total energy components:
  | Sum of eigenvalues            :        -188.85915852 Ha       -5139.11917891 eV
  | XC energy correction          :         -41.78993033 Ha       -1137.16186238 eV
  | XC potential correction       :          53.72161405 Ha        1461.83949584 eV
  | Free-atom electrostatic energy:        -146.84482217 Ha       -3995.85091794 eV
  | Hartree energy correction     :           0.00000000 Ha           0.00000000 eV
  | vdW energy correction         :           0.00000000 Ha           0.00000000 eV
  | Entropy correction            :           0.00000000 Ha           0.00000000 eV
  | ---------------------------
  | Total energy                  :        -323.77229697 Ha       -8810.29246339 eV
  | Total energy, T -> 0          :        -323.77229697 Ha       -8810.29246339 eV  <-- do not rely on this value for anything but (periodic) metals
  | Electronic free energy        :        -323.77229697 Ha       -8810.29246339 eV

  Derived energy quantities:
  | Kinetic energy                :         320.48785807 Ha        8720.91833343 eV
  | Electrostatic energy          :        -602.47022471 Ha      -16394.04893444 eV
  | Energy correction for multipole
  | error in Hartree potential    :           0.00000000 Ha           0.00000000 eV
  | Sum of eigenvalues per atom                           :        -395.31685992 eV
  | Total energy (T->0) per atom                          :        -677.71480488 eV  <-- do not rely on this value for anything but (periodic) metals
  | Electronic free energy per atom                       :        -677.71480488 eV
  Initialize hartree_potential_storage
  Max. number of atoms included in rho_multipole:           13

  End scf initialization - timings             :  max(cpu_time)    wall_clock(cpu1)
  | Time for scf. initialization               :        1.140 s           1.141 s
  | Boundary condition initialization          :        0.000 s           0.000 s
  | Integration                                :        0.700 s           0.701 s
  | Solution of K.-S. eqns.                    :        0.004 s           0.004 s
  | Grid partitioning                          :        0.110 s           0.111 s
  | Preloading free-atom quantities on grid    :        0.002 s           0.003 s
  | Free-atom superposition energy             :        0.085 s           0.085 s
  | Total energy evaluation                    :        0.000 s           0.000 s

  Partial memory accounting:
  | Current value for overall tracked memory usage on task 0  :           0.165 MB
  | Peak value for overall tracked memory usage on task 0     :           0.678 MB after allocating wave
  | Largest tracked array allocation on task 0 so far         :           0.132 MB  when allocating H_times_psi
  Note:  These values currently only include a subset of arrays which are explicitly tracked.
  The "true" memory usage will be greater.
------------------------------------------------------------

------------------------------------------------------------
          Begin self-consistency iteration #    1

  Date     :  20200710, Time     :  152426.506
------------------------------------------------------------
  Evaluating new KS density.
  Integration grid: deviation in total charge (<rho> - N_e) =  -2.842171E-14
  Pulay mixing of updated and previous charge densities.

  Evaluating partitioned Hartree potential by multipole expansion.
  | Analytical far-field extrapolation by fixed multipoles:
  | Hartree multipole sum: apparent total charge =  -0.143915E-03
  Summing up the Hartree potential.
  Time summed over all CPUs for potential: real work        0.282 s, elapsed        0.282 s
  | RMS charge density error from multipole expansion :   0.589536E-02

  Integrating Hamiltonian matrix: batch-based integration.
  Time summed over all CPUs for integration: real work        0.489 s, elapsed        0.489 s

  Updating Kohn-Sham eigenvalues and eigenvectors using ELSI and the ELPA eigensolver.
  Finished Cholesky decomposition
  | Time :     0.000 s
  Finished transformation to standard eigenproblem
  | Time :     0.000 s
  Starting LAPACK eigensolver
  Finished solving standard eigenproblem
  | Time :     0.002 s
  Finished back-transformation of eigenvectors
  | Time :     0.000 s

  Obtaining occupation numbers and chemical potential using ELSI.
  | Chemical potential (Fermi level):    -4.63536050eV
  Writing Kohn-Sham eigenvalues.

  State    Occupation    Eigenvalue [Ha]    Eigenvalue [eV]
      1       2.00000         -18.911496         -514.60800
      2       2.00000         -18.839385         -512.64575
      3       2.00000         -14.093673         -383.50835
      4       2.00000         -10.117301         -275.30578
      5       2.00000         -10.061606         -273.79024
      6       2.00000         -10.026069         -272.82322
      7       2.00000          -1.142631          -31.09257
      8       2.00000          -1.033543          -28.12414
      9       2.00000          -0.919919          -25.03226
     10       2.00000          -0.793148          -21.58266
     11       2.00000          -0.707207          -19.24409
     12       2.00000          -0.638575          -17.37652
     13       2.00000          -0.566926          -15.42685
     14       2.00000          -0.546766          -14.87825
     15       2.00000          -0.528934          -14.39302
     16       2.00000          -0.507415          -13.80747
     17       2.00000          -0.489191          -13.31156
     18       2.00000          -0.473945          -12.89670
     19       2.00000          -0.448213          -12.19651
     20       2.00000          -0.434246          -11.81644
     21       2.00000          -0.425492          -11.57822
     22       2.00000          -0.370917          -10.09318
     23       2.00000          -0.342402           -9.31724
     24       2.00000          -0.308961           -8.40725
     25       0.00000          -0.116225           -3.16265
     26       0.00000          -0.033263           -0.90514
     27       0.00000          -0.003452           -0.09392
     28       0.00000           0.016468            0.44810
     29       0.00000           0.033268            0.90527
     30       0.00000           0.055432            1.50839
     31       0.00000           0.064839            1.76435
     32       0.00000           0.072619            1.97606
     33       0.00000           0.082597            2.24757
     34       0.00000           0.108541            2.95355
     35       0.00000           0.128039            3.48412
     36       0.00000           0.161842            4.40394
     37       0.00000           0.181027            4.92600
     38       0.00000           0.221031            6.01456
     39       0.00000           0.238267            6.48358
     40       0.00000           0.264069            7.18569
     41       0.00000           0.300021            8.16397
     42       0.00000           0.310350            8.44504
     43       0.00000           0.338283            9.20515
     44       0.00000           0.345818            9.41018
     45       0.00000           0.377976           10.28525
     46       0.00000           0.388231           10.56430
     47       0.00000           0.420213           11.43458
     48       0.00000           0.450040           12.24622
     49       0.00000           0.470454           12.80170
     50       0.00000           0.512817           13.95446
     51       0.00000           0.539207           14.67257
     52       0.00000           0.571459           15.55019
     53       0.00000           0.591489           16.09523

  Highest occupied state (VBM) at     -8.40724828 eV
  | Occupation number:      2.00000000

  Lowest unoccupied state (CBM) at    -3.16265286 eV
  | Occupation number:      0.00000000

  Overall HOMO-LUMO gap:      5.24459541 eV.

  Total energy components:
  | Sum of eigenvalues            :        -185.45592776 Ha       -5046.51255818 eV
  | XC energy correction          :         -42.11820214 Ha       -1146.09459275 eV
  | XC potential correction       :          54.14858608 Ha        1473.45799591 eV
  | Free-atom electrostatic energy:        -146.84482217 Ha       -3995.85091794 eV
  | Hartree energy correction     :          -3.32045077 Ha         -90.35406264 eV
  | vdW energy correction         :           0.00000000 Ha           0.00000000 eV
  | Entropy correction            :           0.00000000 Ha           0.00000000 eV
  | ---------------------------
  | Total energy                  :        -323.59081676 Ha       -8805.35413560 eV
  | Total energy, T -> 0          :        -323.59081676 Ha       -8805.35413560 eV  <-- do not rely on this value for anything but (periodic) metals
  | Electronic free energy        :        -323.59081676 Ha       -8805.35413560 eV

  Derived energy quantities:
  | Kinetic energy                :         322.27529499 Ha        8769.55696678 eV
  | Electrostatic energy          :        -603.74790962 Ha      -16428.81650963 eV
  | Energy correction for multipole
  | error in Hartree potential    :           0.01222972 Ha           0.33278769 eV
  | Sum of eigenvalues per atom                           :        -388.19327371 eV
  | Total energy (T->0) per atom                          :        -677.33493351 eV  <-- do not rely on this value for anything but (periodic) metals
  | Electronic free energy per atom                       :        -677.33493351 eV

  Self-consistency convergence accuracy:
  | Change of charge density      :  0.5812E+00
  | Change of sum of eigenvalues  :  0.9261E+02 eV
  | Change of total energy        :  0.4938E+01 eV

  End self-consistency iteration #     1       :  max(cpu_time)    wall_clock(cpu1)
  | Time for this iteration                    :        1.180 s           1.180 s
  | Charge density update                      :        0.391 s           0.391 s
  | Density mixing                             :        0.005 s           0.006 s
  | Hartree multipole update                   :        0.009 s           0.009 s
  | Hartree multipole summation                :        0.283 s           0.282 s
  | Integration                                :        0.489 s           0.490 s
  | Solution of K.-S. eqns.                    :        0.002 s           0.002 s
  | Total energy evaluation                    :        0.000 s           0.000 s

  Partial memory accounting:
  | Current value for overall tracked memory usage on task 0  :           0.165 MB
  | Peak value for overall tracked memory usage on task 0     :           0.695 MB after allocating gradient_basis_wave
  | Largest tracked array allocation on task 0 so far         :           0.397 MB  when allocating gradient_basis_wave
  Note:  These values currently only include a subset of arrays which are explicitly tracked.
  The "true" memory usage will be greater.
------------------------------------------------------------

------------------------------------------------------------
          Begin self-consistency iteration #    2

  Date     :  20200710, Time     :  152427.687
------------------------------------------------------------
  Evaluating new KS density.
  Integration grid: deviation in total charge (<rho> - N_e) =  -6.394885E-14
  Pulay mixing of updated and previous charge densities.

  Evaluating partitioned Hartree potential by multipole expansion.
  | Analytical far-field extrapolation by fixed multipoles:
  | Hartree multipole sum: apparent total charge =  -0.282735E-03
  Summing up the Hartree potential.
  Time summed over all CPUs for potential: real work        0.282 s, elapsed        0.282 s
  | RMS charge density error from multipole expansion :   0.141039E-01

  Integrating Hamiltonian matrix: batch-based integration.
  Time summed over all CPUs for integration: real work        0.506 s, elapsed        0.506 s

  Updating Kohn-Sham eigenvalues and eigenvectors using ELSI and the ELPA eigensolver.
  Finished Cholesky decomposition
  | Time :     0.000 s
  Finished transformation to standard eigenproblem
  | Time :     0.000 s
  Starting LAPACK eigensolver
  Finished solving standard eigenproblem
  | Time :     0.001 s
  Finished back-transformation of eigenvectors
  | Time :     0.000 s

  Obtaining occupation numbers and chemical potential using ELSI.
  | Chemical potential (Fermi level):    -3.32071494eV
  Highest occupied state (VBM) at     -6.31498580 eV
  | Occupation number:      2.00000000

  Lowest unoccupied state (CBM) at    -1.93312723 eV
  | Occupation number:      0.00000000

  Overall HOMO-LUMO gap:      4.38185857 eV.

  Checking to see if s.c.f. parameters should be adjusted.

  Total energy components:
  | Sum of eigenvalues            :        -181.84037812 Ha       -4948.12844651 eV
  | XC energy correction          :         -42.48227117 Ha       -1156.00141531 eV
  | XC potential correction       :          54.62060958 Ha        1486.30240880 eV
  | Free-atom electrostatic energy:        -146.84482217 Ha       -3995.85091794 eV
  | Hartree energy correction     :          -6.96580834 Ha        -189.54928897 eV
  | vdW energy correction         :           0.00000000 Ha           0.00000000 eV
  | Entropy correction            :           0.00000000 Ha           0.00000000 eV
  | ---------------------------
  | Total energy                  :        -323.51267022 Ha       -8803.22765994 eV
  | Total energy, T -> 0          :        -323.51267022 Ha       -8803.22765994 eV  <-- do not rely on this value for anything but (periodic) metals
  | Electronic free energy        :        -323.51267022 Ha       -8803.22765994 eV

  Derived energy quantities:
  | Kinetic energy                :         323.61416806 Ha        8805.98955678 eV
  | Electrostatic energy          :        -604.64456711 Ha      -16453.21580141 eV
  | Energy correction for multipole
  | error in Hartree potential    :           0.02720108 Ha           0.74017912 eV
  | Sum of eigenvalues per atom                           :        -380.62526512 eV
  | Total energy (T->0) per atom                          :        -677.17135846 eV  <-- do not rely on this value for anything but (periodic) metals
  | Electronic free energy per atom                       :        -677.17135846 eV

  Self-consistency convergence accuracy:
  | Change of charge density      :  0.3631E+00
  | Change of sum of eigenvalues  :  0.9838E+02 eV
  | Change of total energy        :  0.2126E+01 eV

  End self-consistency iteration #     2       :  max(cpu_time)    wall_clock(cpu1)
  | Time for this iteration                    :        1.189 s           1.190 s
  | Charge density update                      :        0.383 s           0.383 s
  | Density mixing                             :        0.006 s           0.007 s
  | Hartree multipole update                   :        0.009 s           0.009 s
  | Hartree multipole summation                :        0.283 s           0.283 s
  | Integration                                :        0.506 s           0.506 s
  | Solution of K.-S. eqns.                    :        0.002 s           0.002 s
  | Total energy evaluation                    :        0.000 s           0.000 s

  Partial memory accounting:
  | Current value for overall tracked memory usage on task 0  :           0.166 MB
  | Peak value for overall tracked memory usage on task 0     :           0.695 MB after allocating gradient_basis_wave
  | Largest tracked array allocation on task 0 so far         :           0.397 MB  when allocating gradient_basis_wave
  Note:  These values currently only include a subset of arrays which are explicitly tracked.
  The "true" memory usage will be greater.
------------------------------------------------------------

------------------------------------------------------------
          Begin self-consistency iteration #    3

  Date     :  20200710, Time     :  152428.880
------------------------------------------------------------
  Evaluating new KS density.
  Integration grid: deviation in total charge (<rho> - N_e) =   0.000000E+00
  Pulay mixing of updated and previous charge densities.

  Evaluating partitioned Hartree potential by multipole expansion.
  | Analytical far-field extrapolation by fixed multipoles:
  | Hartree multipole sum: apparent total charge =  -0.379602E-03
  Summing up the Hartree potential.
  Time summed over all CPUs for potential: real work        0.282 s, elapsed        0.282 s
  | RMS charge density error from multipole expansion :   0.223880E-01

  Integrating Hamiltonian matrix: batch-based integration.
  Time summed over all CPUs for integration: real work        0.506 s, elapsed        0.506 s

  Updating Kohn-Sham eigenvalues and eigenvectors using ELSI and the ELPA eigensolver.
  Finished Cholesky decomposition
  | Time :     0.000 s
  Finished transformation to standard eigenproblem
  | Time :     0.000 s
  Starting LAPACK eigensolver
  Finished solving standard eigenproblem
  | Time :     0.002 s
  Finished back-transformation of eigenvectors
  | Time :     0.000 s

  Obtaining occupation numbers and chemical potential using ELSI.
  | Chemical potential (Fermi level):    -2.62056596eV
  Highest occupied state (VBM) at     -5.66118248 eV
  | Occupation number:      2.00000000

  Lowest unoccupied state (CBM) at    -1.24453653 eV
  | Occupation number:      0.00000000

  Overall HOMO-LUMO gap:      4.41664595 eV.

  Total energy components:
  | Sum of eigenvalues            :        -180.55364426 Ha       -4913.11463671 eV
  | XC energy correction          :         -42.63293999 Ha       -1160.10132236 eV
  | XC potential correction       :          54.81272566 Ha        1491.53015352 eV
  | Free-atom electrostatic energy:        -146.84482217 Ha       -3995.85091794 eV
  | Hartree energy correction     :          -8.28186170 Ha        -225.36092310 eV
  | vdW energy correction         :           0.00000000 Ha           0.00000000 eV
  | Entropy correction            :           0.00000000 Ha           0.00000000 eV
  | ---------------------------
  | Total energy                  :        -323.50054245 Ha       -8802.89764659 eV
  | Total energy, T -> 0          :        -323.50054245 Ha       -8802.89764659 eV  <-- do not rely on this value for anything but (periodic) metals
  | Electronic free energy        :        -323.50054245 Ha       -8802.89764659 eV

  Derived energy quantities:
  | Kinetic energy                :         323.17452902 Ha        8794.02636979 eV
  | Electrostatic energy          :        -604.04213148 Ha      -16436.82269402 eV
  | Energy correction for multipole
  | error in Hartree potential    :           0.03872549 Ha           1.05377431 eV
  | Sum of eigenvalues per atom                           :        -377.93189513 eV
  | Total energy (T->0) per atom                          :        -677.14597281 eV  <-- do not rely on this value for anything but (periodic) metals
  | Electronic free energy per atom                       :        -677.14597281 eV

  Self-consistency convergence accuracy:
  | Change of charge density      :  0.2014E+00
  | Change of sum of eigenvalues  :  0.3501E+02 eV
  | Change of total energy        :  0.3300E+00 eV

  End self-consistency iteration #     3       :  max(cpu_time)    wall_clock(cpu1)
  | Time for this iteration                    :        1.192 s           1.192 s
  | Charge density update                      :        0.383 s           0.384 s
  | Density mixing                             :        0.008 s           0.008 s
  | Hartree multipole update                   :        0.009 s           0.009 s
  | Hartree multipole summation                :        0.282 s           0.282 s
  | Integration                                :        0.506 s           0.507 s
  | Solution of K.-S. eqns.                    :        0.002 s           0.002 s
  | Total energy evaluation                    :        0.000 s           0.000 s

  Partial memory accounting:
  | Current value for overall tracked memory usage on task 0  :           0.166 MB
  | Peak value for overall tracked memory usage on task 0     :           0.695 MB after allocating gradient_basis_wave
  | Largest tracked array allocation on task 0 so far         :           0.397 MB  when allocating gradient_basis_wave
  Note:  These values currently only include a subset of arrays which are explicitly tracked.
  The "true" memory usage will be greater.
------------------------------------------------------------

------------------------------------------------------------
          Begin self-consistency iteration #    4

  Date     :  20200710, Time     :  152430.075
------------------------------------------------------------
  Evaluating new KS density.
  Integration grid: deviation in total charge (<rho> - N_e) =  -7.105427E-15
  Pulay mixing of updated and previous charge densities.

  Evaluating partitioned Hartree potential by multipole expansion.
  | Analytical far-field extrapolation by fixed multipoles:
  | Hartree multipole sum: apparent total charge =  -0.410376E-03
  Summing up the Hartree potential.
  Time summed over all CPUs for potential: real work        0.282 s, elapsed        0.282 s
  | RMS charge density error from multipole expansion :   0.257263E-01

  Integrating Hamiltonian matrix: batch-based integration.
  Time summed over all CPUs for integration: real work        0.507 s, elapsed        0.507 s

  Updating Kohn-Sham eigenvalues and eigenvectors using ELSI and the ELPA eigensolver.
  Finished Cholesky decomposition
  | Time :     0.000 s
  Finished transformation to standard eigenproblem
  | Time :     0.000 s
  Starting LAPACK eigensolver
  Finished solving standard eigenproblem
  | Time :     0.002 s
  Finished back-transformation of eigenvectors
  | Time :     0.000 s

  Obtaining occupation numbers and chemical potential using ELSI.
  | Chemical potential (Fermi level):    -2.51708443eV
  Highest occupied state (VBM) at     -5.47749883 eV
  | Occupation number:      2.00000000

  Lowest unoccupied state (CBM) at    -1.17074942 eV
  | Occupation number:      0.00000000

  Overall HOMO-LUMO gap:      4.30674941 eV.

  Total energy components:
  | Sum of eigenvalues            :        -180.40520286 Ha       -4909.07534076 eV
  | XC energy correction          :         -42.66978171 Ha       -1161.10383655 eV
  | XC potential correction       :          54.85918075 Ha        1492.79426066 eV
  | Free-atom electrostatic energy:        -146.84482217 Ha       -3995.85091794 eV
  | Hartree energy correction     :          -8.43916853 Ha        -229.64145966 eV
  | vdW energy correction         :           0.00000000 Ha           0.00000000 eV
  | Entropy correction            :           0.00000000 Ha           0.00000000 eV
  | ---------------------------
  | Total energy                  :        -323.49979452 Ha       -8802.87729424 eV
  | Total energy, T -> 0          :        -323.49979452 Ha       -8802.87729424 eV  <-- do not rely on this value for anything but (periodic) metals
  | Electronic free energy        :        -323.49979452 Ha       -8802.87729424 eV

  Derived energy quantities:
  | Kinetic energy                :         322.81128828 Ha        8784.14208640 eV
  | Electrostatic energy          :        -603.64130109 Ha      -16425.91554410 eV
  | Energy correction for multipole
  | error in Hartree potential    :           0.04285314 Ha           1.16609326 eV
  | Sum of eigenvalues per atom                           :        -377.62118006 eV
  | Total energy (T->0) per atom                          :        -677.14440725 eV  <-- do not rely on this value for anything but (periodic) metals
  | Electronic free energy per atom                       :        -677.14440725 eV

  Self-consistency convergence accuracy:
  | Change of charge density      :  0.6125E-01
  | Change of sum of eigenvalues  :  0.4039E+01 eV
  | Change of total energy        :  0.2035E-01 eV

  End self-consistency iteration #     4       :  max(cpu_time)    wall_clock(cpu1)
  | Time for this iteration                    :        1.192 s           1.194 s
  | Charge density update                      :        0.383 s           0.383 s
  | Density mixing                             :        0.009 s           0.010 s
  | Hartree multipole update                   :        0.009 s           0.008 s
  | Hartree multipole summation                :        0.282 s           0.283 s
  | Integration                                :        0.507 s           0.507 s
  | Solution of K.-S. eqns.                    :        0.002 s           0.002 s
  | Total energy evaluation                    :        0.000 s           0.000 s

  Partial memory accounting:
  | Current value for overall tracked memory usage on task 0  :           0.166 MB
  | Peak value for overall tracked memory usage on task 0     :           0.696 MB after allocating gradient_basis_wave
  | Largest tracked array allocation on task 0 so far         :           0.397 MB  when allocating gradient_basis_wave
  Note:  These values currently only include a subset of arrays which are explicitly tracked.
  The "true" memory usage will be greater.
------------------------------------------------------------

------------------------------------------------------------
          Begin self-consistency iteration #    5

  Date     :  20200710, Time     :  152431.271
------------------------------------------------------------
  Evaluating new KS density.
  Integration grid: deviation in total charge (<rho> - N_e) =   1.421085E-14
  Pulay mixing of updated and previous charge densities.

  Evaluating partitioned Hartree potential by multipole expansion.
  | Analytical far-field extrapolation by fixed multipoles:
  | Hartree multipole sum: apparent total charge =  -0.404571E-03
  Summing up the Hartree potential.
  Time summed over all CPUs for potential: real work        0.289 s, elapsed        0.289 s
  | RMS charge density error from multipole expansion :   0.254692E-01

  Integrating Hamiltonian matrix: batch-based integration.
  Time summed over all CPUs for integration: real work        0.507 s, elapsed        0.507 s

  Updating Kohn-Sham eigenvalues and eigenvectors using ELSI and the ELPA eigensolver.
  Finished Cholesky decomposition
  | Time :     0.000 s
  Finished transformation to standard eigenproblem
  | Time :     0.000 s
  Starting LAPACK eigensolver
  Finished solving standard eigenproblem
  | Time :     0.001 s
  Finished back-transformation of eigenvectors
  | Time :     0.000 s

  Obtaining occupation numbers and chemical potential using ELSI.
  | Chemical potential (Fermi level):    -2.57561658eV
  Highest occupied state (VBM) at     -5.55931288 eV
  | Occupation number:      2.00000000

  Lowest unoccupied state (CBM) at    -1.24413079 eV
  | Occupation number:      0.00000000

  Overall HOMO-LUMO gap:      4.31518209 eV.

  Total energy components:
  | Sum of eigenvalues            :        -180.57812537 Ha       -4913.78080167 eV
  | XC energy correction          :         -42.64814635 Ha       -1160.51510853 eV
  | XC potential correction       :          54.83113033 Ha        1492.03096992 eV
  | Free-atom electrostatic energy:        -146.84482217 Ha       -3995.85091794 eV
  | Hartree energy correction     :          -8.25952860 Ha        -224.75320851 eV
  | vdW energy correction         :           0.00000000 Ha           0.00000000 eV
  | Entropy correction            :           0.00000000 Ha           0.00000000 eV
  | ---------------------------
  | Total energy                  :        -323.49949216 Ha       -8802.86906673 eV
  | Total energy, T -> 0          :        -323.49949216 Ha       -8802.86906673 eV  <-- do not rely on this value for anything but (periodic) metals
  | Electronic free energy        :        -323.49949216 Ha       -8802.86906673 eV

  Derived energy quantities:
  | Kinetic energy                :         322.71776304 Ha        8781.59713503 eV
  | Electrostatic energy          :        -603.56910885 Ha      -16423.95109323 eV
  | Energy correction for multipole
  | error in Hartree potential    :           0.04223013 Ha           1.14914021 eV
  | Sum of eigenvalues per atom                           :        -377.98313859 eV
  | Total energy (T->0) per atom                          :        -677.14377436 eV  <-- do not rely on this value for anything but (periodic) metals
  | Electronic free energy per atom                       :        -677.14377436 eV

  Self-consistency convergence accuracy:
  | Change of charge density      :  0.2109E-01
  | Change of sum of eigenvalues  : -0.4705E+01 eV
  | Change of total energy        :  0.8228E-02 eV

  End self-consistency iteration #     5       :  max(cpu_time)    wall_clock(cpu1)
  | Time for this iteration                    :        1.196 s           1.203 s
  | Charge density update                      :        0.384 s           0.384 s
  | Density mixing                             :        0.011 s           0.011 s
  | Hartree multipole update                   :        0.009 s           0.009 s
  | Hartree multipole summation                :        0.283 s           0.289 s
  | Integration                                :        0.507 s           0.507 s
  | Solution of K.-S. eqns.                    :        0.002 s           0.003 s
  | Total energy evaluation                    :        0.000 s           0.000 s

  Partial memory accounting:
  | Current value for overall tracked memory usage on task 0  :           0.166 MB
  | Peak value for overall tracked memory usage on task 0     :           0.696 MB after allocating gradient_basis_wave
  | Largest tracked array allocation on task 0 so far         :           0.397 MB  when allocating gradient_basis_wave
  Note:  These values currently only include a subset of arrays which are explicitly tracked.
  The "true" memory usage will be greater.
------------------------------------------------------------

------------------------------------------------------------
          Begin self-consistency iteration #    6

  Date     :  20200710, Time     :  152432.476
------------------------------------------------------------
  Evaluating new KS density.
  Integration grid: deviation in total charge (<rho> - N_e) =  -2.842171E-14
  Pulay mixing of updated and previous charge densities.

  Evaluating partitioned Hartree potential by multipole expansion.
  | Analytical far-field extrapolation by fixed multipoles:
  | Hartree multipole sum: apparent total charge =  -0.406767E-03
  Summing up the Hartree potential.
  Time summed over all CPUs for potential: real work        0.282 s, elapsed        0.282 s
  | RMS charge density error from multipole expansion :   0.258447E-01

  Integrating Hamiltonian matrix: batch-based integration.
  Time summed over all CPUs for integration: real work        0.507 s, elapsed        0.507 s

  Updating Kohn-Sham eigenvalues and eigenvectors using ELSI and the ELPA eigensolver.
  Finished Cholesky decomposition
  | Time :     0.000 s
  Finished transformation to standard eigenproblem
  | Time :     0.000 s
  Starting LAPACK eigensolver
  Finished solving standard eigenproblem
  | Time :     0.002 s
  Finished back-transformation of eigenvectors
  | Time :     0.000 s

  Obtaining occupation numbers and chemical potential using ELSI.
  | Chemical potential (Fermi level):    -2.58788869eV
  Highest occupied state (VBM) at     -5.54218231 eV
  | Occupation number:      2.00000000

  Lowest unoccupied state (CBM) at    -1.27201935 eV
  | Occupation number:      0.00000000

  Overall HOMO-LUMO gap:      4.27016296 eV.

  Total energy components:
  | Sum of eigenvalues            :        -180.61344031 Ha       -4914.74177023 eV
  | XC energy correction          :         -42.64271629 Ha       -1160.36734906 eV
  | XC potential correction       :          54.82407338 Ha        1491.83894055 eV
  | Free-atom electrostatic energy:        -146.84482217 Ha       -3995.85091794 eV
  | Hartree energy correction     :          -8.22252395 Ha        -223.74626084 eV
  | vdW energy correction         :           0.00000000 Ha           0.00000000 eV
  | Entropy correction            :           0.00000000 Ha           0.00000000 eV
  | ---------------------------
  | Total energy                  :        -323.49942935 Ha       -8802.86735753 eV
  | Total energy, T -> 0          :        -323.49942935 Ha       -8802.86735753 eV  <-- do not rely on this value for anything but (periodic) metals
  | Electronic free energy        :        -323.49942935 Ha       -8802.86735753 eV

  Derived energy quantities:
  | Kinetic energy                :         322.62078737 Ha        8778.95829281 eV
  | Electrostatic energy          :        -603.47750043 Ha      -16421.45830127 eV
  | Energy correction for multipole
  | error in Hartree potential    :           0.04246030 Ha           1.15540345 eV
  | Sum of eigenvalues per atom                           :        -378.05705925 eV
  | Total energy (T->0) per atom                          :        -677.14364289 eV  <-- do not rely on this value for anything but (periodic) metals
  | Electronic free energy per atom                       :        -677.14364289 eV

  Self-consistency convergence accuracy:
  | Change of charge density      :  0.1079E-01
  | Change of sum of eigenvalues  : -0.9610E+00 eV
  | Change of total energy        :  0.1709E-02 eV

  End self-consistency iteration #     6       :  max(cpu_time)    wall_clock(cpu1)
  | Time for this iteration                    :        1.195 s           1.196 s
  | Charge density update                      :        0.383 s           0.383 s
  | Density mixing                             :        0.012 s           0.012 s
  | Hartree multipole update                   :        0.009 s           0.009 s
  | Hartree multipole summation                :        0.282 s           0.282 s
  | Integration                                :        0.507 s           0.506 s
  | Solution of K.-S. eqns.                    :        0.002 s           0.002 s
  | Total energy evaluation                    :        0.000 s           0.000 s

  Partial memory accounting:
  | Current value for overall tracked memory usage on task 0  :           0.166 MB
  | Peak value for overall tracked memory usage on task 0     :           0.696 MB after allocating gradient_basis_wave
  | Largest tracked array allocation on task 0 so far         :           0.397 MB  when allocating gradient_basis_wave
  Note:  These values currently only include a subset of arrays which are explicitly tracked.
  The "true" memory usage will be greater.
------------------------------------------------------------

------------------------------------------------------------
          Begin self-consistency iteration #    7

  Date     :  20200710, Time     :  152433.675
------------------------------------------------------------
  Evaluating new KS density.
  Integration grid: deviation in total charge (<rho> - N_e) =  -4.973799E-14
  Pulay mixing of updated and previous charge densities.

  Evaluating partitioned Hartree potential by multipole expansion.
  | Analytical far-field extrapolation by fixed multipoles:
  | Hartree multipole sum: apparent total charge =  -0.408137E-03
  Summing up the Hartree potential.
  Time summed over all CPUs for potential: real work        0.282 s, elapsed        0.282 s
  | RMS charge density error from multipole expansion :   0.260023E-01

  Integrating Hamiltonian matrix: batch-based integration.
  Time summed over all CPUs for integration: real work        0.507 s, elapsed        0.507 s

  Updating Kohn-Sham eigenvalues and eigenvectors using ELSI and the ELPA eigensolver.
  Finished Cholesky decomposition
  | Time :     0.000 s
  Finished transformation to standard eigenproblem
  | Time :     0.000 s
  Starting LAPACK eigensolver
  Finished solving standard eigenproblem
  | Time :     0.002 s
  Finished back-transformation of eigenvectors
  | Time :     0.000 s

[...]
  |   Hirshfeld dipole moment :      0.06367819
  |   Hirshfeld second moments:      0.00397353      -0.01968297      -0.01605316
  |                                 -0.01968297      -0.00641080       0.01098902
  |                                 -0.01605316       0.01098902      -0.01839940
  ----------------------------------------------------------------------
  | Atom    12: O
  |   Hirshfeld charge        :     -0.13241419
  |   Free atom volume        :     23.61338643
  |   Hirshfeld volume        :     20.45188617
  |   Hirshfeld dipole vector :      0.01717708       0.00426802       0.02434660
  |   Hirshfeld dipole moment :      0.03010025
  |   Hirshfeld second moments:      0.05685741      -0.00483040      -0.00631264
  |                                 -0.00483040       0.10942384      -0.01141118
  |                                 -0.00631264      -0.01141118       0.04689461
  ----------------------------------------------------------------------
  | Atom    13: H
  |   Hirshfeld charge        :      0.17641686
  |   Free atom volume        :      9.95071624
  |   Hirshfeld volume        :      6.30183397
  |   Hirshfeld dipole vector :      0.01662558      -0.11040183       0.03058178
  |   Hirshfeld dipole moment :      0.11575932
  |   Hirshfeld second moments:      0.11667514       0.00092377      -0.01316893
  |                                  0.00092377       0.12434935      -0.00028380
  |                                 -0.01316893      -0.00028380       0.08760551
  ----------------------------------------------------------------------


  Total energy components:
  | Sum of eigenvalues            :        -180.60192800 Ha       -4914.42850437 eV
  | XC energy correction          :         -42.64068225 Ha       -1160.31199993 eV
  | XC potential correction       :          54.82152199 Ha        1491.76951370 eV
  | Free-atom electrostatic energy:        -146.84482217 Ha       -3995.85091794 eV
  | Hartree energy correction     :          -8.23349951 Ha        -224.04492100 eV
  | vdW energy correction         :          -0.00326878 Ha          -0.08894810 eV
  | Entropy correction            :           0.00000000 Ha           0.00000000 eV
  | ---------------------------
  | Total energy                  :        -323.50267873 Ha       -8802.95577764 eV
  | Total energy, T -> 0          :        -323.50267873 Ha       -8802.95577764 eV  <-- do not rely on this value for anything but (periodic) metals
  | Electronic free energy        :        -323.50267873 Ha       -8802.95577764 eV

  Derived energy quantities:
  | Kinetic energy                :         322.58269898 Ha        8777.92185502 eV
  | Electrostatic energy          :        -603.44142668 Ha      -16420.47668464 eV
  | Energy correction for multipole
  | error in Hartree potential    :           0.04255011 Ha           1.15784735 eV
  | Sum of eigenvalues per atom                           :        -378.03296187 eV
  | Total energy (T->0) per atom                          :        -677.15044443 eV  <-- do not rely on this value for anything but (periodic) metals
  | Electronic free energy per atom                       :        -677.15044443 eV

  atomic forces [eV/Ang]:
  -----------------------
  atom #    1
   Hellmann-Feynman              : -0.469759E-01  0.274542E+00  0.693906E+00
   Ionic forces                  :  0.000000E+00  0.000000E+00  0.000000E+00
   Multipole                     :  0.213786E+00  0.180137E+00 -0.248691E+00
   Pulay + GGA                   : -0.966839E+00 -0.409079E+00 -0.103584E+01
   Van der Waals                 :  0.185934E-02  0.157877E-02 -0.153000E-02
   ----------------------------------------------------------------
   Total forces(   1)            : -0.798169E+00  0.471792E-01 -0.592160E+00
  atom #    2
   Hellmann-Feynman              :  0.244974E+00 -0.472050E-01  0.991449E-01
   Ionic forces                  :  0.000000E+00  0.000000E+00  0.000000E+00
   Multipole                     :  0.183715E+00  0.142543E-01  0.708784E-02
   Pulay + GGA                   : -0.128002E+00  0.182813E-01  0.377934E-01
   Van der Waals                 :  0.533034E-02 -0.475816E-02 -0.545250E-02
   ----------------------------------------------------------------
   Total forces(   2)            :  0.306017E+00 -0.194276E-01  0.138574E+00
  atom #    3
   Hellmann-Feynman              : -0.552553E+01  0.965920E+01 -0.100100E+01
   Ionic forces                  :  0.000000E+00  0.000000E+00  0.000000E+00
   Multipole                     : -0.204080E+00  0.257639E+00 -0.103771E+01
   Pulay + GGA                   :  0.604211E+01 -0.953418E+01  0.255711E+01
   Van der Waals                 :  0.316268E-02 -0.781064E-02 -0.653744E-02
   ----------------------------------------------------------------
   Total forces(   3)            :  0.315664E+00  0.374845E+00  0.511869E+00
  atom #    4
   Hellmann-Feynman              : -0.865407E-01 -0.298239E+00 -0.137385E+00
   Ionic forces                  :  0.000000E+00  0.000000E+00  0.000000E+00
   Multipole                     :  0.360494E-01 -0.152864E-01 -0.105614E+00
   Pulay + GGA                   : -0.178394E+00  0.955833E-01  0.113831E+00
   Van der Waals                 : -0.375525E-02  0.501381E-03  0.567173E-02
   ----------------------------------------------------------------
   Total forces(   4)            : -0.232641E+00 -0.217440E+00 -0.123496E+00
  atom #    5
   Hellmann-Feynman              :  0.651482E-01 -0.207889E+00 -0.300712E+00
   Ionic forces                  :  0.000000E+00  0.000000E+00  0.000000E+00
   Multipole                     : -0.584573E-01 -0.691319E-01 -0.682588E-01
   Pulay + GGA                   :  0.951448E-01  0.215802E+00  0.492585E-01
   Van der Waals                 : -0.533339E-03  0.481213E-03  0.378136E-02
   ----------------------------------------------------------------
   Total forces(   5)            :  0.101302E+00 -0.607382E-01 -0.315930E+00
  atom #    6
   Hellmann-Feynman              :  0.453797E-01 -0.479308E+00  0.574523E+00
   Ionic forces                  :  0.000000E+00  0.000000E+00  0.000000E+00
   Multipole                     : -0.895208E-01  0.633862E+00  0.237645E+00
   Pulay + GGA                   :  0.201434E+00 -0.488681E+00 -0.581295E+00
   Van der Waals                 : -0.217462E-02  0.604093E-02 -0.402828E-02
   ----------------------------------------------------------------
   Total forces(   6)            :  0.155119E+00 -0.328086E+00  0.226845E+00
  atom #    7
   Hellmann-Feynman              : -0.200086E+00 -0.487949E-01 -0.578781E-01
   Ionic forces                  :  0.000000E+00  0.000000E+00  0.000000E+00
   Multipole                     : -0.119557E+00  0.495949E-01  0.224868E-01
   Pulay + GGA                   :  0.121256E+00  0.938513E-02 -0.192968E-01
   Van der Waals                 : -0.141103E-02  0.865923E-03  0.260539E-02
   ----------------------------------------------------------------
   Total forces(   7)            : -0.199798E+00  0.110510E-01 -0.520827E-01
  atom #    8
   Hellmann-Feynman              :  0.725208E-01 -0.322246E-01  0.189173E+00
   Ionic forces                  :  0.000000E+00  0.000000E+00  0.000000E+00
   Multipole                     :  0.165241E-01  0.614344E-01  0.121310E+00
   Pulay + GGA                   : -0.408942E-01 -0.324166E-01 -0.819529E-01
   Van der Waals                 : -0.260187E-02  0.114690E-01  0.167299E-02
   ----------------------------------------------------------------
   Total forces(   8)            :  0.455488E-01  0.826219E-02  0.230204E+00
  atom #    9
   Hellmann-Feynman              :  0.100120E+00  0.303217E-02 -0.188084E+00
   Ionic forces                  :  0.000000E+00  0.000000E+00  0.000000E+00
   Multipole                     :  0.139390E-01  0.128210E+00 -0.131045E-01
   Pulay + GGA                   : -0.624635E-01 -0.982277E-01  0.291674E-01
   Van der Waals                 : -0.195232E-02  0.231616E-02  0.310891E-02
   ----------------------------------------------------------------
   Total forces(   9)            :  0.496436E-01  0.353308E-01 -0.168912E+00
  atom #   10
   Hellmann-Feynman              :  0.298081E+01  0.562652E+01  0.938640E+00
   Ionic forces                  :  0.000000E+00  0.000000E+00  0.000000E+00
   Multipole                     : -0.275807E-02 -0.953093E-01  0.158891E+00
   Pulay + GGA                   : -0.190429E+01 -0.298979E+01 -0.201283E+00
   Van der Waals                 :  0.304692E-02 -0.131001E-01  0.152940E-02
   ----------------------------------------------------------------
   Total forces(  10)            :  0.107680E+01  0.252832E+01  0.897777E+00
  atom #   11
   Hellmann-Feynman              :  0.418353E+01 -0.241894E+01  0.142795E+02
   Ionic forces                  :  0.000000E+00  0.000000E+00  0.000000E+00
   Multipole                     :  0.147183E+00 -0.564663E+00  0.750325E+00
   Pulay + GGA                   : -0.328095E+01  0.325776E+01 -0.135575E+02
   Van der Waals                 : -0.365981E-02 -0.117819E-01  0.845694E-03
   ----------------------------------------------------------------
   Total forces(  11)            :  0.104611E+01  0.262373E+00  0.147322E+01
  atom #   12
   Hellmann-Feynman              : -0.800275E+01  0.164155E+01 -0.141316E+02
   Ionic forces                  :  0.000000E+00  0.000000E+00  0.000000E+00
   Multipole                     : -0.966178E+00 -0.994136E+00 -0.671331E+00
   Pulay + GGA                   :  0.789951E+01 -0.248536E+01  0.124097E+02
   Van der Waals                 :  0.208295E-02  0.738618E-02  0.274497E-02
   ----------------------------------------------------------------
   Total forces(  12)            : -0.106733E+01 -0.183056E+01 -0.239040E+01
  atom #   13
   Hellmann-Feynman              : -0.776625E+00 -0.106714E+01  0.272968E+00
   Ionic forces                  :  0.000000E+00  0.000000E+00  0.000000E+00
   Multipole                     :  0.402550E-01 -0.647559E-01  0.493736E-01
   Pulay + GGA                   : -0.623890E-01  0.308112E+00 -0.155383E+00
   Van der Waals                 :  0.606019E-03  0.681129E-02 -0.441223E-02
   ----------------------------------------------------------------
   Total forces(  13)            : -0.798153E+00 -0.816974E+00  0.162546E+00

  Timings for VdW correction (Tkatchenko-Scheffler 2009 or later):
  | CPU time:        0.088 s, Wall clock time:        0.089 s.
  Removing unitary transformations (pure translations, rotations) from forces on atoms.
  Atomic forces before filtering:
  | Net force on center of mass :   0.111579E-03 -0.586579E-02 -0.194648E-02 eV/A
  | Net torque on center of mass:  -0.775033E-02  0.407265E-02 -0.517980E-02 eV
  Atomic forces after filtering:
  | Net force on center of mass :  -0.356812E-15 -0.535218E-15 -0.223008E-15 eV/A
  | Net torque on center of mass:   0.991289E-15 -0.165215E-15  0.000000E+00 eV

  Energy and forces in a compact form:
  | Total energy uncorrected      :         -0.880295577764329E+04 eV
  | Total energy corrected        :         -0.880295577764329E+04 eV  <-- do not rely on this value for anything but (periodic) metals
  | Electronic free energy        :         -0.880295577764329E+04 eV
  Total atomic forces (unitary forces cleaned) [eV/Ang]:
  |   1         -0.798189558660293E+00          0.477114324200203E-01         -0.591912726431872E+00
  |   2          0.305996607117312E+00         -0.187281523919776E-01          0.138993730727798E+00
  |   3          0.315867008687749E+00          0.375540513693860E+00          0.512039722584516E+00
  |   4         -0.232326367627228E+00         -0.216518493405510E+00         -0.123212040598047E+00
  |   5          0.101646765326926E+00         -0.601177857625821E-01         -0.315991278548789E+00
  |   6          0.154789533083292E+00         -0.327751739641713E+00          0.227223921512113E+00
  |   7         -0.200133784640859E+00          0.112160401952352E-01         -0.518719121577143E-01
  |   8          0.450544917051680E-01          0.847981760451059E-02          0.230642543754517E+00
  |   9          0.492571236276823E-01          0.358051591191386E-01         -0.168325403841844E+00
  |  10          0.107686239241548E+01          0.252866565975429E+01          0.897745759386623E+00
  |  11          0.104602905198832E+01          0.262574500212535E+00          0.147319366770033E+01
  |  12         -0.106703952096957E+01         -0.183020587120681E+01         -0.239068885191524E+01
  |  13         -0.797813742053981E+00         -0.816671080591002E+00          0.162162867827609E+00

  ------------------------------------ 
  Start decomposition of the XC Energy 
  ------------------------------------ 
  X and C from original XC functional choice 
  Hartree-Fock Energy :          0.000000000 Ha              0.000000000 eV
  X Energy            :        -41.039950190 Ha          -1116.753864482 eV
  C Energy            :         -1.600732056 Ha            -43.558135446 eV
  Total XC Energy     :        -42.640682246 Ha          -1160.311999928 eV
  ------------------------------------ 
  LDA X and C from self-consistent density 
  X Energy LDA        :        -37.259359374 Ha          -1013.878754162 eV
  C Energy LDA        :         -3.138730228 Ha            -85.409195067 eV
  ------------------------------------ 
  End decomposition of the XC Energy 
  ------------------------------------ 

------------------------------------------------------------

------------------------------------------------------------------------------
  Final output of selected total energy values:

  The following output summarizes some interesting total energy values
  at the end of a run (AFTER all relaxation, molecular dynamics, etc.).

  | Total energy of the DFT / Hartree-Fock s.c.f. calculation      :          -8802.955777643 eV
  | Final zero-broadening corrected energy (caution - metals only) :          -8802.955777643 eV
  | For reference only, the value of 1 Hartree used in FHI-aims is :             27.211384500 eV

  Before relying on these values, please be sure to understand exactly which
  total energy value is referred to by a given number. Different objects may
  all carry the same name 'total energy'. Definitions:

  Total energy of the DFT / Hartree-Fock s.c.f. calculation:
  | Note that this energy does not include ANY quantities calculated after the
  | s.c.f. cycle, in particular not ANY RPA, MP2, etc. many-body perturbation terms.

  Final zero-broadening corrected energy:
  | For metallic systems only, a broadening of the occupation numbers at the Fermi
  | level can be extrapolated back to zero broadening by an electron-gas inspired
  | formula. For all systems that are not real metals, this value can be
  | meaningless and should be avoided.

------------------------------------------------------------------------------
  Methods described in the following list of references were used in this FHI-aims run.
  If you publish the results, please make sure to cite these reference if they apply.
  FHI-aims is an academic code, and for our developers (often, Ph.D. students
  and postdocs), scientific credit in the community is essential.
  Thank you for helping us!

  For any use of FHI-aims, please cite:

    Volker Blum, Ralf Gehrke, Felix Hanke, Paula Havu, Ville Havu,
    Xinguo Ren, Karsten Reuter, and Matthias Scheffler
    'Ab initio molecular simulations with numeric atom-centered orbitals'
    Computer Physics Communications 180, 2175-2196 (2009)
    http://dx.doi.org/10.1016/j.cpc.2009.06.022


  The scalable eigensolver library ELPA was used in your run.
  ELPA is essential especially for large systems on hundreds or thousands of CPUs.
  For ELPA, please cite:

    Andreas Marek, Volker Blum, Rainer Johanni, Ville Havu, Bruno Lang,
    Thomas Auckenthaler, Alexander Heinecke, Hans-Joachim Bungartz, and Hermann Lederer,
    'The ELPA Library - Scalable Parallel Eigenvalue Solutions
    for Electronic Structure Theory and Computational Science'
    The Journal of Physics: Condensed Matter 26, 213201 (2014).
    http://dx.doi.org/10.1088/0953-8984/26/21/213201


  The ELSI infrastructure was used in your run to solve the Kohn-Sham electronic structure.
  Please check out http://elsi-interchange.org to learn more.
  If scalability is important for your project, please acknowledge ELSI by citing:

    V. W-z. Yu, F. Corsetti, A. Garcia, W. P. Huhn, M. Jacquelin, W. Jia,
    B. Lange, L. Lin, J. Lu, W. Mi, A. Seifitokaldani, A. Vazquez-Mayagoitia,
    C. Yang, H. Yang, and V. Blum
    'ELSI: A unified software interface for Kohn-Sham electronic structure solvers'
    Computer Physics Communications 222, 267-285 (2018).
    http://dx.doi.org/10.1016/j.cpc.2017.09.007


  For the real-space grid partitioning and parallelization used in this calculation, please cite:

    Ville Havu, Volker Blum, Paula Havu, and Matthias Scheffler,
    'Efficient O(N) integration for all-electron electronic structure calculation'
    'using numerically tabulated basis functions'
    Journal of Computational Physics 228, 8367-8379 (2009).
    http://dx.doi.org/10.1016/j.jcp.2009.08.008

  Of course, there are many other important community references, e.g., those cited in the
  above references. Our list is limited to references that describe implementations in the
  FHI-aims code. The reason is purely practical (length of this list) - please credit others as well.

------------------------------------------------------------
          Leaving FHI-aims.
          Date     :  20200710, Time     :  152448.028

          Computational steps:
          | Number of self-consistency cycles          :           16
          | Number of SCF (re)initializations          :            1

          Detailed time accounting                     :  max(cpu_time)    wall_clock(cpu1)
          | Total time                                 :       22.756 s          22.827 s
          | Preparation time                           :        0.147 s           0.149 s
          | Boundary condition initalization           :        0.000 s           0.000 s
          | Grid partitioning                          :        0.110 s           0.111 s
          | Preloading free-atom quantities on grid    :        0.002 s           0.003 s
          | Free-atom superposition energy             :        0.085 s           0.085 s
          | Total time for integrations                :        8.781 s           8.792 s
          | Total time for solution of K.-S. equations :        0.037 s           0.040 s
          | Total time for density & force components  :        7.086 s           7.088 s
          | Total time for mixing                      :        0.214 s           0.218 s
          | Total time for Hartree multipole update    :        0.140 s           0.142 s
          | Total time for Hartree multipole sum       :        5.760 s           5.767 s
          | Total time for total energy evaluation     :        0.003 s           0.002 s
          | Total time for vdW correction              :        0.088 s           0.089 s

          Partial memory accounting:
          | Residual value for overall tracked memory usage across tasks :           0.000 MB (should be 0.000 MB)
          | Peak values for overall tracked memory usage (after allocating hessian_basis_wave):
          |   Minimum:        1.622 MB (on task 1)
          |   Maximum:        1.622 MB (on task 1)
          |   Average:        1.622 MB
          | Largest tracked array allocation (hessian_basis_wave):
          |   Minimum:        0.794 MB (on task 1)
          |   Maximum:        0.794 MB (on task 1)
          |   Average:        0.794 MB
          Note:  These values currently only include a subset of arrays which are explicitly tracked.
          The "true" memory usage will be greater.

          Have a nice day.
------------------------------------------------------------
