  MPI-parallelism will be employed.
------------------------------------------------------------
          Invoking FHI-aims ...
          Version 171221_1
          Compiled on 2019/09/09 at 14:39:39 on host puhti-login2.bullx.

          When using FHI-aims, please cite the following reference:

          Volker Blum, Ralf Gehrke, Felix Hanke, Paula Havu,
          Ville Havu, Xinguo Ren, Karsten Reuter, and Matthias Scheffler,
          'Ab Initio Molecular Simulations with Numeric Atom-Centered Orbitals',
          Computer Physics Communications 180, 2175-2196 (2009)

          For any questions about FHI-aims, please visit the aimsclub website
          with its forums and wiki. Contributions to both the forums and the
          wiki are warmly encouraged - they are for you, and everyone is welcome there.

------------------------------------------------------------



  Date     :  20200616, Time     :  070108.046
  Time zero on CPU 1             :   0.292500000000000E-01  s.
  Internal wall clock time zero  :           361522868.046  s.

  FHI-aims created a unique identifier for this run for later identification
  aims_uuid : 10D0A76E-012D-43D0-A8ED-5B50E04CA07B

  Using       20 parallel tasks.
  Task        0 on host r05c49.bullx reporting.
  Task        1 on host r05c49.bullx reporting.
  Task        2 on host r05c49.bullx reporting.
  Task        3 on host r05c49.bullx reporting.
  Task        4 on host r05c49.bullx reporting.
  Task        5 on host r05c49.bullx reporting.
  Task        6 on host r05c49.bullx reporting.
  Task        7 on host r05c49.bullx reporting.
  Task        8 on host r05c49.bullx reporting.
  Task        9 on host r05c49.bullx reporting.
  Task       10 on host r05c49.bullx reporting.
  Task       11 on host r05c49.bullx reporting.
  Task       12 on host r05c49.bullx reporting.
  Task       13 on host r05c49.bullx reporting.
  Task       14 on host r05c49.bullx reporting.
  Task       15 on host r05c49.bullx reporting.
  Task       16 on host r05c49.bullx reporting.
  Task       17 on host r05c49.bullx reporting.
  Task       18 on host r05c49.bullx reporting.
  Task       19 on host r05c49.bullx reporting.

  Performing system and environment tests:
  | Environment variable OMP_NUM_THREADS correctly set to 1.
  | Stacksize not measured: no C compiler
  | Checking for scalapack...
  | Testing pdtran()...
  | All pdtran() tests passed.

  Obtaining array dimensions for all initial allocations:
  
  -----------------------------------------------------------------------
  Parsing control.in (first pass over file, find array dimensions only).
  The contents of control.in will be repeated verbatim below
  unless switched off by setting 'verbatim_writeout .false.' .
  in the first line of control.in .
  -----------------------------------------------------------------------
  
  #########################################################################################
  #
  #  Volker Blum, FHI 2009 : Test run input file control.in for simple H2O
  #
  #########################################################################################
  #
  #  Physical model
  #
    xc                 pbe
    vdw_correction_hirshfeld
    spin               none
    relativistic       none
    charge             0.
  #
  #  SCF convergence
  #
    occupation_type    gaussian 0.01
    mixer              pulay
      n_max_pulay        10
      charge_mix_param   0.2
    sc_accuracy_rho    1E-5
    sc_accuracy_eev    1E-3
    sc_accuracy_etot   1E-6
    sc_accuracy_forces 1E-4
    sc_iter_limit      100
  #
  #  Relaxation
  #
  #  relax_geometry   bfgs 1.e-3
  #
  ################################################################################
  #
  #  FHI-aims code project
  #  VB, Fritz-Haber Institut, 2009
  #
  #  Suggested "light" defaults for H atom (to be pasted into control.in file)
  #  Be sure to double-check any results obtained with these settings for post-processing,
  #  e.g., with the "tight" defaults and larger basis sets.
  #
  ################################################################################
    species        H
  #     global species definitions
      nucleus             1
      mass                1.00794
  #
      l_hartree           4
  #
      cut_pot             3.5  1.5  1.0
      basis_dep_cutoff    1e-4
  #
      radial_base         24 5.0
      radial_multiplier   1
      angular_grids       specified
        division   0.2421   50
        division   0.3822  110
        division   0.4799  194
        division   0.5341  302
  #      division   0.5626  434
  #      division   0.5922  590
  #      division   0.6542  770
  #      division   0.6868 1202
  #      outer_grid  770
        outer_grid  302
  ################################################################################
  #
  #  Definition of "minimal" basis
  #
  ################################################################################
  #     valence basis states
      valence      1  s   1.
  #     ion occupancy
      ion_occ      1  s   0.5
  ################################################################################
  #
  #  Suggested additional basis functions. For production calculations,
  #  uncomment them one after another (the most important basis functions are
  #  listed first).
  #
  #  Basis constructed for dimers: 0.5 A, 0.7 A, 1.0 A, 1.5 A, 2.5 A
  #
  ################################################################################
  #  "First tier" - improvements: -1014.90 meV to -62.69 meV
       hydro 2 s 2.1
       hydro 2 p 3.5
  #  "Second tier" - improvements: -12.89 meV to -1.83 meV
  #     hydro 1 s 0.85
  #     hydro 2 p 3.7
  #     hydro 2 s 1.2
  #     hydro 3 d 7
  #  "Third tier" - improvements: -0.25 meV to -0.12 meV
  #     hydro 4 f 11.2
  #     hydro 3 p 4.8
  #     hydro 4 d 9
  #     hydro 3 s 3.2
  ################################################################################
  #
  #  FHI-aims code project
  #  VB, Fritz-Haber Institut, 2009
  #
  #  Suggested "light" defaults for C atom (to be pasted into control.in file)
  #  Be sure to double-check any results obtained with these settings for post-processing,
  #  e.g., with the "tight" defaults and larger basis sets.
  #
  ################################################################################
    species        C
  #     global species definitions
      nucleus             6
      mass                12.0107
  #
      l_hartree           4
  #
      cut_pot             3.5  1.5  1.0
      basis_dep_cutoff    1e-4
  #
      radial_base         34 5.0
      radial_multiplier   1
      angular_grids specified
        division   0.3326   50
        division   0.5710  110
        division   0.7727  194
        division   0.8772  302
  #      division   0.9334  434
  #      division   0.9625  590
  #      division   0.9924  770
  #      division   1.0230  974
  #      division   1.4589 1202
  #     outer_grid  974
       outer_grid 302
  ################################################################################
  #
  #  Definition of "minimal" basis
  #
  ################################################################################
  #     valence basis states
      valence      2  s   2.
      valence      2  p   2.
  #     ion occupancy
      ion_occ      2  s   1.
      ion_occ      2  p   1.
  ################################################################################
  #
  #  Suggested additional basis functions. For production calculations,
  #  uncomment them one after another (the most important basis functions are
  #  listed first).
  #
  #  Constructed for dimers: 1.0 A, 1.25 A, 1.5 A, 2.0 A, 3.0 A
  #
  ################################################################################
  #  "First tier" - improvements: -1214.57 meV to -155.61 meV
       hydro 2 p 1.7
       hydro 3 d 6
       hydro 2 s 4.9
  #  "Second tier" - improvements: -67.75 meV to -5.23 meV
  #     hydro 4 f 9.8
  #     hydro 3 p 5.2
  #     hydro 3 s 4.3
  #     hydro 5 g 14.4
  #     hydro 3 d 6.2
  #  "Third tier" - improvements: -2.43 meV to -0.60 meV
  #     hydro 2 p 5.6
  #     hydro 2 s 1.4
  #     hydro 3 d 4.9
  #     hydro 4 f 11.2
  #  "Fourth tier" - improvements: -0.39 meV to -0.18 meV
  #     hydro 2 p 2.1
  #     hydro 5 g 16.4
  #     hydro 4 d 13.2
  #     hydro 3 s 13.6
  #     hydro 4 f 17.6
  #  Further basis functions - improvements: -0.08 meV and below
  #     hydro 3 s 2
  #     hydro 3 p 6
  #     hydro 4 d 20
  ################################################################################
  #
  #  FHI-aims code project
  #  VB, Fritz-Haber Institut, 2009
  #
  #  Suggested "light" defaults for N atom (to be pasted into control.in file)
  #  Be sure to double-check any results obtained with these settings for post-processing,
  #  e.g., with the "tight" defaults and larger basis sets.
  #
  ################################################################################
    species        N
  #     global species definitions
      nucleus             7
      mass                14.0067
  #
      l_hartree           4
  #
      cut_pot             3.5  1.5  1.0
      basis_dep_cutoff    1e-4
  #
      radial_base         35 5.0
      radial_multiplier   1
      angular_grids       specified
        division   0.2599   50
        division   0.4601  110
        division   0.5885  194
        division   0.6503  302
  #      division   0.6939  434
  #      division   0.7396  590
  #      division   0.7632  770
  #      division   0.8122  974
  #      division   1.1604 1202
  #      outer_grid  974
        outer_grid  302
  ################################################################################
  #
  #  Definition of "minimal" basis
  #
  ################################################################################
  #     valence basis states
      valence      2  s   2.
      valence      2  p   3.
  #     ion occupancy
      ion_occ      2  s   1.
      ion_occ      2  p   2.
  ################################################################################
  #
  #  Suggested additional basis functions. For production calculations,
  #  uncomment them one after another (the most important basis functions are
  #  listed first).
  #
  #  Constructed for dimers: 1.0 A, 1.1 A, 1.5 A, 2.0 A, 3.0 A
  #
  ################################################################################
  #  "First tier" - improvements: -1193.42 meV to -220.60 meV
       hydro 2 p 1.8
       hydro 3 d 6.8
       hydro 3 s 5.8
  #  "Second tier" - improvements: -80.21 meV to -6.86 meV
  #     hydro 4 f 10.8
  #     hydro 3 p 5.8
  #     hydro 1 s 0.8
  #     hydro 5 g 16
  #     hydro 3 d 4.9
  #  "Third tier" - improvements: -4.29 meV to -0.53 meV
  #     hydro 3 s 16
  #     ionic 2 p auto
  #     hydro 3 d 6.6
  #     hydro 4 f 11.6
  #  "Fourth tier" - improvements: -0.75 meV to -0.25 meV
  #     hydro 2 p 4.5
  #     hydro 2 s 2.4
  #     hydro 5 g 14.4
  #     hydro 4 d 14.4
  #     hydro 4 f 16.8
  # Further basis functions - -0.21 meV and below
  #     hydro 3 p 14.8
  #     hydro 3 s 4.4
  #     hydro 3 d 19.6
  #     hydro 5 g 12.8
  ################################################################################
  #
  #  FHI-aims code project
  #  VB, Fritz-Haber Institut, 2009
  #
  #  Suggested "light" defaults for O atom (to be pasted into control.in file)
  #  Be sure to double-check any results obtained with these settings for post-processing,
  #  e.g., with the "tight" defaults and larger basis sets.
  #
  ################################################################################
    species        O
  #     global species definitions
      nucleus             8
      mass                15.9994
  #
      l_hartree           4
  #
      cut_pot             3.5  1.5  1.0
      basis_dep_cutoff    1e-4
  #
      radial_base         36 5.0
      radial_multiplier   1
       angular_grids specified
        division   0.2659   50
        division   0.4451  110
        division   0.6052  194
        division   0.7543  302
  #      division   0.8014  434
  #      division   0.8507  590
  #      division   0.8762  770
  #      division   0.9023  974
  #      division   1.2339 1202
  #      outer_grid 974
        outer_grid 302
  ################################################################################
  #
  #  Definition of "minimal" basis
  #
  ################################################################################
  #     valence basis states
      valence      2  s   2.
      valence      2  p   4.
  #     ion occupancy
      ion_occ      2  s   1.
      ion_occ      2  p   3.
  ################################################################################
  #
  #  Suggested additional basis functions. For production calculations,
  #  uncomment them one after another (the most important basis functions are
  #  listed first).
  #
  #  Constructed for dimers: 1.0 A, 1.208 A, 1.5 A, 2.0 A, 3.0 A
  #
  ################################################################################
  #  "First tier" - improvements: -699.05 meV to -159.38 meV
       hydro 2 p 1.8
       hydro 3 d 7.6
       hydro 3 s 6.4
  #  "Second tier" - improvements: -49.91 meV to -5.39 meV
  #     hydro 4 f 11.6
  #     hydro 3 p 6.2
  #     hydro 3 d 5.6
  #     hydro 5 g 17.6
  #     hydro 1 s 0.75
  #  "Third tier" - improvements: -2.83 meV to -0.50 meV
  #     ionic 2 p auto
  #     hydro 4 f 10.8
  #     hydro 4 d 4.7
  #     hydro 2 s 6.8
  #  "Fourth tier" - improvements: -0.40 meV to -0.12 meV
  #     hydro 3 p 5
  #     hydro 3 s 3.3
  #     hydro 5 g 15.6
  #     hydro 4 f 17.6
  #     hydro 4 d 14
  # Further basis functions - -0.08 meV and below
  #     hydro 3 s 2.1
  #     hydro 4 d 11.6
  #     hydro 3 p 16
  #     hydro 2 s 17.2
  
  -----------------------------------------------------------------------
  Completed first pass over input file control.in .
  -----------------------------------------------------------------------
  
  
  -----------------------------------------------------------------------
  Parsing geometry.in (first pass over file, find array dimensions only).
  The contents of geometry.in will be repeated verbatim below
  unless switched off by setting 'verbatim_writeout .false.' .
  in the first line of geometry.in .
  -----------------------------------------------------------------------
  
  atom  0.00000 0.00000 0.00000 C
  atom  1.09300 0.00000 0.00000 H
  atom  -0.47961 0.00000 -1.41207 N
  atom  -0.75743 0.94953 -1.66315 H
  atom  0.27764 -0.31593 -2.01447 H
  atom  -0.49584 1.26211 0.72868 C
  atom  -0.13035 2.16082 0.22640 H
  atom  -1.58788 1.29146 0.74039 H
  atom  -0.13779 1.27202 1.76079 H
  atom  -0.39425 -1.28861 0.74398 C
  atom  -0.01958 -1.61144 1.84610 O
  atom  -1.20000 -2.08186 0.11288 O
  atom  -1.80468 -1.41186 -0.24827 H
  
  -----------------------------------------------------------------------
  Completed first pass over input file geometry.in .
  -----------------------------------------------------------------------
  

  Basic array size parameters:
  | Number of species                 :        4
  | Number of atoms                   :       13
  | Max. basis fn. angular momentum   :        2
  | Max. atomic/ionic basis occupied n:        2
  | Max. number of basis fn. types    :        2
  | Max. radial fns per species/type  :        3
  | Max. logarithmic grid size        :     1301
  | Max. radial integration grid size :       36
  | Max. angular integration grid size:      302
  | Max. angular grid division number :        8
  | Radial grid for Hartree potential :     1301
  | Number of spin channels           :        1

------------------------------------------------------------
          Reading file control.in.
------------------------------------------------------------
  XC: Using PBE gradient-corrected functionals.
  Spin treatment: No spin polarisation.
  Non-relativistic treatment of kinetic energy.
  Charge =   0.000000E+00: Neutral system requested explicitly.
  Occupation type: Gaussian broadening, width =   0.100000E-01 eV.
  Using pulay charge density mixing.
  Pulay mixing - number of memorized iterations:   10
  Charge density mixing - mixing parameter:     0.2000
  Convergence accuracy of self-consistent charge density:  0.1000E-04
  Convergence accuracy of sum of eigenvalues:  0.1000E-02
  Convergence accuracy of total energy:  0.1000E-05
  Convergence accuracy of forces:  0.1000E-03
  Maximum number of s.-c. iterations  :   100
 
  Reading configuration options for species H                   .
  | Found nuclear charge :   1.0000
  | Found atomic mass :    1.00794000000000      amu
  | Found l_max for Hartree potential  :   4
  | Found cutoff potl. onset [A], width [A], scale factor :    3.50000    1.50000    1.00000
  | Threshold for basis-dependent cutoff potential is   0.100000E-03
  | Found data for basic radial integration grid :    24 points, outermost radius =    5.000 A
  | Found multiplier for basic radial grid :   1
  | Found angular grid specification: user-specified.
  | Specified grid contains     5 separate shells.
  | Check grid settings after all constraints further below.
  | Found free-atom valence shell :  1 s   1.000
  | No ionic wave fns used. Skipping ion_occ.
  | Found hydrogenic basis function :  2 s   2.100
  | Found hydrogenic basis function :  2 p   3.500
  Species H                   : Missing cutoff potential type.
  Defaulting to exp(1/x)/(1-x)^2 type cutoff potential.
  Species H : No 'logarithmic' tag. Using default grid for free atom:
  | Default logarithmic grid data [bohr] : 0.1000E-03 0.1000E+03 0.1012E+01
  Species H : On-site basis accuracy parameter (for Gram-Schmidt orthonormalisation) not specified.
  Using default value basis_acc =  0.1000000E-03.
  Species H                   : Using default innermost maximum threshold i_radial=  2 for radial functions.
  Species H                   : Default cutoff onset for free atom density etc. : 0.35000000E+01 AA.
  Species H                   : Basic radial grid will be enhanced according to radial_multiplier =   1, to contain    24 grid points.
 
  Reading configuration options for species C                   .
  | Found nuclear charge :   6.0000
  | Found atomic mass :    12.0107000000000      amu
  | Found l_max for Hartree potential  :   4
  | Found cutoff potl. onset [A], width [A], scale factor :    3.50000    1.50000    1.00000
  | Threshold for basis-dependent cutoff potential is   0.100000E-03
  | Found data for basic radial integration grid :    34 points, outermost radius =    5.000 A
  | Found multiplier for basic radial grid :   1
  | Found angular grid specification: user-specified.
  | Specified grid contains     5 separate shells.
  | Check grid settings after all constraints further below.
  | Found free-atom valence shell :  2 s   2.000
  | Found free-atom valence shell :  2 p   2.000
  | No ionic wave fns used. Skipping ion_occ.
  | No ionic wave fns used. Skipping ion_occ.
  | Found hydrogenic basis function :  2 p   1.700
  | Found hydrogenic basis function :  3 d   6.000
  | Found hydrogenic basis function :  2 s   4.900
  Species C                   : Missing cutoff potential type.
  Defaulting to exp(1/x)/(1-x)^2 type cutoff potential.
  Species C : No 'logarithmic' tag. Using default grid for free atom:
  | Default logarithmic grid data [bohr] : 0.1000E-03 0.1000E+03 0.1012E+01
  Species C : On-site basis accuracy parameter (for Gram-Schmidt orthonormalisation) not specified.
  Using default value basis_acc =  0.1000000E-03.
  Species C                   : Using default innermost maximum threshold i_radial=  2 for radial functions.
  Species C                   : Default cutoff onset for free atom density etc. : 0.35000000E+01 AA.
  Species C                   : Basic radial grid will be enhanced according to radial_multiplier =   1, to contain    34 grid points.
 
  Reading configuration options for species N                   .
  | Found nuclear charge :   7.0000
  | Found atomic mass :    14.0067000000000      amu
  | Found l_max for Hartree potential  :   4
  | Found cutoff potl. onset [A], width [A], scale factor :    3.50000    1.50000    1.00000
  | Threshold for basis-dependent cutoff potential is   0.100000E-03
  | Found data for basic radial integration grid :    35 points, outermost radius =    5.000 A
  | Found multiplier for basic radial grid :   1
  | Found angular grid specification: user-specified.
  | Specified grid contains     5 separate shells.
  | Check grid settings after all constraints further below.
  | Found free-atom valence shell :  2 s   2.000
  | Found free-atom valence shell :  2 p   3.000
  | No ionic wave fns used. Skipping ion_occ.
  | No ionic wave fns used. Skipping ion_occ.
  | Found hydrogenic basis function :  2 p   1.800
  | Found hydrogenic basis function :  3 d   6.800
  | Found hydrogenic basis function :  3 s   5.800
  Species N                   : Missing cutoff potential type.
  Defaulting to exp(1/x)/(1-x)^2 type cutoff potential.
  Species N : No 'logarithmic' tag. Using default grid for free atom:
  | Default logarithmic grid data [bohr] : 0.1000E-03 0.1000E+03 0.1012E+01
  Species N : On-site basis accuracy parameter (for Gram-Schmidt orthonormalisation) not specified.
  Using default value basis_acc =  0.1000000E-03.
  Species N                   : Using default innermost maximum threshold i_radial=  2 for radial functions.
  Species N                   : Default cutoff onset for free atom density etc. : 0.35000000E+01 AA.
  Species N                   : Basic radial grid will be enhanced according to radial_multiplier =   1, to contain    35 grid points.
 
  Reading configuration options for species O                   .
  | Found nuclear charge :   8.0000
  | Found atomic mass :    15.9994000000000      amu
  | Found l_max for Hartree potential  :   4
  | Found cutoff potl. onset [A], width [A], scale factor :    3.50000    1.50000    1.00000
  | Threshold for basis-dependent cutoff potential is   0.100000E-03
  | Found data for basic radial integration grid :    36 points, outermost radius =    5.000 A
  | Found multiplier for basic radial grid :   1
  | Found angular grid specification: user-specified.
  | Specified grid contains     5 separate shells.
  | Check grid settings after all constraints further below.
  | Found free-atom valence shell :  2 s   2.000
  | Found free-atom valence shell :  2 p   4.000
  | No ionic wave fns used. Skipping ion_occ.
  | No ionic wave fns used. Skipping ion_occ.
  | Found hydrogenic basis function :  2 p   1.800
  | Found hydrogenic basis function :  3 d   7.600
  | Found hydrogenic basis function :  3 s   6.400
  Species O                   : Missing cutoff potential type.
  Defaulting to exp(1/x)/(1-x)^2 type cutoff potential.
  Species O : No 'logarithmic' tag. Using default grid for free atom:
  | Default logarithmic grid data [bohr] : 0.1000E-03 0.1000E+03 0.1012E+01
  Species O : On-site basis accuracy parameter (for Gram-Schmidt orthonormalisation) not specified.
  Using default value basis_acc =  0.1000000E-03.
  Species O                   : Using default innermost maximum threshold i_radial=  2 for radial functions.
  Species O                   : Default cutoff onset for free atom density etc. : 0.35000000E+01 AA.
  Species O                   : Basic radial grid will be enhanced according to radial_multiplier =   1, to contain    36 grid points.
 
  Finished reading input file 'control.in'. Consistency checks are next.
 
  MPI_IN_PLACE appears to work with this MPI implementation.
  | Keeping use_mpi_in_place .true. (see manual).
  Target number of points in a grid batch is not set. Defaulting to  100
  Method for grid partitioning is not set. Defaulting to parallel hash+maxmin partitioning.
  Batch size limit is not set. Defaulting to    200
  By default, will store active basis functions for each batch.
  If in need of memory, prune_basis_once .false. can be used to disable this option.
  communication_type for Hartree potential was not specified.
  Defaulting to calc_hartree .
  Pulay mixer: Number of initial linear mixing iterations not set.
  Defaulting to    0 iterations.
  Work space size for distributed Hartree potential not set.
  Defaulting to   0.200000E+03 MB.
  Algorithm-dependent basis array size parameters:
  | n_max_pulay                         :       10
  Presetting      1001 iterations before the initial mixing cycle
  is restarted anyway using the sc_init_iter criterion / keyword.
  Presetting a factor      1.000 between actual scf density residual
  and density convergence criterion sc_accuracy_rho below which sc_init_iter
  takes no effect.
  Geometry relaxation not requested: no relaxation will be performed.
  Handling of forces: Unphysical translation and rotation will be removed from forces.
  No accuracy limit for integral partition fn. given. Defaulting to  0.1000E-14.
  No threshold value for u(r) in integrations given. Defaulting to  0.1000E-05.
  No accuracy for occupation numbers given. Defaulting to  0.1000E-12.
  No threshold value for occupation numbers given. Defaulting to  0.0000E+00.
  No accuracy for fermi level given. Defaulting to  0.1000E-19.
  Maximum # of iterations to find E_F not set. Defaulting to  200.
  Preferred method for the eigenvalue solver ('KS_method') not specified in 'control.in'.
  Calling BLACS routine to test compilation state
  Since ScaLAPACK support is enabled, defaulting to 'elsi'.
  Will not use alltoall communication since running on < 1024 CPUs.
  Threshold for basis singularities not set.
  Default threshold for basis singularities:  0.1000E-04
  partition_type (choice of integration weights) for integrals was not specified.
  | Using a version of the partition function of Stratmann and coworkers ('stratmann_smoother').
  | At each grid point, the set of atoms used to build the partition table is smoothly restricted to
  | only those atoms whose free-atom density would be non-zero at that grid point.
  Partitioning for Hartree potential was not defined. Using partition_type for integrals.
  | Adjusted default value of keyword multip_moments_threshold to:       0.10000000E-11
  | This value may affect high angular momentum components of the Hartree potential in periodic systems.
  No q(lm)/r^(l+1) cutoff set for long-range Hartree potential.
  | Using default value of  0.100000E-09 .
  | Verify using the multipole_threshold keyword.
  Defaulting to new monopole extrapolation.
  Density update method: automatic selection selected.
------------------------------------------------------------


------------------------------------------------------------
          Reading geometry description geometry.in.
------------------------------------------------------------
  Input structure read successfully.
  The structure contains       13 atoms,  and a total of         48.000 electrons.

  Input geometry:
  | No unit cell requested.
  | Atomic structure:
  |       Atom                x [A]            y [A]            z [A]
  |    1: Species C             0.00000000        0.00000000        0.00000000
  |    2: Species H             1.09300000        0.00000000        0.00000000
  |    3: Species N            -0.47961000        0.00000000       -1.41207000
  |    4: Species H            -0.75743000        0.94953000       -1.66315000
  |    5: Species H             0.27764000       -0.31593000       -2.01447000
  |    6: Species C            -0.49584000        1.26211000        0.72868000
  |    7: Species H            -0.13035000        2.16082000        0.22640000
  |    8: Species H            -1.58788000        1.29146000        0.74039000
  |    9: Species H            -0.13779000        1.27202000        1.76079000
  |   10: Species C            -0.39425000       -1.28861000        0.74398000
  |   11: Species O            -0.01958000       -1.61144000        1.84610000
  |   12: Species O            -1.20000000       -2.08186000        0.11288000
  |   13: Species H            -1.80468000       -1.41186000       -0.24827000
  |

  | The smallest distance between any two atoms is         0.97209425 AA.
  |
  | The first atom of this pair is atom number                     12 .
  | The second atom of this pair is atom number                    13 .

  Number of empty states per atom not set in control.in - providing a guess from actual geometry.
  | Total number of empty states used during s.c.f. cycle:       29
  If you use a very high smearing, use empty_states (per atom!) in control.in to increase this value.

  Structure-dependent array size parameters: 
  | Maximum number of distinct radial functions  :       21
  | Maximum number of basis functions            :      119
  | Number of Kohn-Sham states (occupied + empty):       53
------------------------------------------------------------

------------------------------------------------------------
          Preparing all fixed parts of the calculation.
------------------------------------------------------------
  Determining machine precision:
    2.225073858507201E-308
  Setting up grids for atomic and cluster calculations.

  Creating wave function, potential, and density for free atoms.

  Species: H

  List of occupied orbitals and eigenvalues:
    n    l              occ      energy [Ha]    energy [eV]
    1    0           1.0000        -0.237589        -6.4651


  Species: C

  List of occupied orbitals and eigenvalues:
    n    l              occ      energy [Ha]    energy [eV]
    1    0           2.0000       -10.038835      -273.1706
    2    0           2.0000        -0.502696       -13.6791
    2    1           2.0000        -0.191971        -5.2238


  Species: N

  List of occupied orbitals and eigenvalues:
    n    l              occ      energy [Ha]    energy [eV]
    1    0           2.0000       -14.128000      -384.4424
    2    0           2.0000        -0.681077       -18.5330
    2    1           3.0000        -0.259788        -7.0692


  Species: O

  List of occupied orbitals and eigenvalues:
    n    l              occ      energy [Ha]    energy [eV]
    1    0           2.0000       -18.898188      -514.2459
    2    0           2.0000        -0.878505       -23.9053
    2    1           4.0000        -0.331779        -9.0282

  Creating fixed part of basis set: Ionic, confined, hydrogenic.
 
  H                    hydrogenic:
 
  List of hydrogenic basis orbitals: 
    n    l      effective z      eigenvalue [eV]  inner max. [A]     outer max. [A]     outer radius [A]   
    2    0         2.100000       -14.9728           0.193243           1.317208           4.583499
    2    1         3.500000       -41.6669           0.602369           0.602369           3.723403
 
 
  C                    hydrogenic:
 
  List of hydrogenic basis orbitals: 
    n    l      effective z      eigenvalue [eV]  inner max. [A]     outer max. [A]     outer radius [A]   
    2    1         1.700000        -9.7616           1.230570           1.230570           4.607917
    3    2         6.000000       -54.4224           0.792453           0.792453           3.883070
    2    0         4.900000       -81.6679           0.082559           0.562749           3.078220
 
 
  N                    hydrogenic:
 
  List of hydrogenic basis orbitals: 
    n    l      effective z      eigenvalue [eV]  inner max. [A]     outer max. [A]     outer radius [A]   
    2    1         1.800000       -10.9749           1.177451           1.177451           4.573712
    3    2         6.800000       -69.9026           0.704619           0.704619           3.538137
    3    0         5.800000       -50.8545           0.067388           1.191934           4.250239
 
 
  O                    hydrogenic:
 
  List of hydrogenic basis orbitals: 
    n    l      effective z      eigenvalue [eV]  inner max. [A]     outer max. [A]     outer radius [A]   
    2    1         1.800000       -10.9749           1.164242           1.164242           4.578029
    3    2         7.600000       -87.3180           0.624125           0.624125           3.251020
    3    0         6.400000       -61.9207           0.061167           1.081902           4.001998
 

  Adding cutoff potential to free-atom effective potential.
  Creating atomic-like basis functions for current effective potential.

  Species H                   :

  List of atomic basis orbitals and eigenvalues:
    n    l      energy [Ha]    energy [eV]    outer radius [A]
    1    0        -0.237589        -6.4651       4.527807


  Species C                   :

  List of atomic basis orbitals and eigenvalues:
    n    l      energy [Ha]    energy [eV]    outer radius [A]
    1    0       -10.038835      -273.1706       1.934409
    2    0        -0.502696       -13.6791       4.496620
    2    1        -0.191971        -5.2238       4.551928


  Species N                   :

  List of atomic basis orbitals and eigenvalues:
    n    l      energy [Ha]    energy [eV]    outer radius [A]
    1    0       -14.128000      -384.4424       1.637919
    2    0        -0.681077       -18.5330       4.463241
    2    1        -0.259788        -7.0692       4.518138


  Species O                   :

  List of atomic basis orbitals and eigenvalues:
    n    l      energy [Ha]    energy [eV]    outer radius [A]
    1    0       -18.898188      -514.2459       1.415765
    2    0        -0.878505       -23.9053       4.413171
    2    1        -0.331779        -9.0282       4.522403

  Assembling full basis from fixed parts.
  | Species H :   atomic orbital   1 s accepted.
  | Species H :    hydro orbital   2 s accepted.
  | Species H :    hydro orbital   2 p accepted.
  | Species C :   atomic orbital   1 s accepted.
  | Species C :    hydro orbital   2 s accepted.
  | Species C :   atomic orbital   2 s accepted.
  | Species C :   atomic orbital   2 p accepted.
  | Species C :    hydro orbital   2 p accepted.
  | Species C :    hydro orbital   3 d accepted.
  | Species N :   atomic orbital   1 s accepted.
  | Species N :    hydro orbital   3 s accepted.
  | Species N :   atomic orbital   2 s accepted.
  | Species N :   atomic orbital   2 p accepted.
  | Species N :    hydro orbital   2 p accepted.
  | Species N :    hydro orbital   3 d accepted.
  | Species O :   atomic orbital   1 s accepted.
  | Species O :    hydro orbital   3 s accepted.
  | Species O :   atomic orbital   2 s accepted.
  | Species O :   atomic orbital   2 p accepted.
  | Species O :    hydro orbital   2 p accepted.
  | Species O :    hydro orbital   3 d accepted.
 
  Basis size parameters after reduction:
  | Total number of radial functions:       21
  | Total number of basis functions :      119
 
  Per-task memory consumption for arrays in subroutine allocate_ext:
  |           5.250512MB.
  Testing on-site integration grid accuracy.
  |  Species  Function  <phi|h_atom|phi> (log., in eV)  <phi|h_atom|phi> (rad., in eV)
           1        1                 -6.4663192853                 -6.4651273558
           1        2                 13.7111246313                 13.7170609718
           1        3                 25.2673269279                 25.2674696378
           2        4               -273.1705927641               -273.1705631568
           2        5                -10.7109323383                -10.7107120029
           2        6                 17.4381822266                 17.4352413244
           2        7                 -5.2255326521                 -5.2270484734
           2        8                  8.6835629259                  8.6603288385
           2        9                 27.4952418996                 27.4953360207
           3       10               -384.4424306495               -384.4423701208
           3       11                 12.5842251816                 12.5842222903
           3       12                -15.7264628251                -15.7264433455
           3       13                 -7.0696854293                 -7.0701769954
           3       14                  8.8090390882                  8.7901077751
           3       15                 35.9586762123                 35.9588528632
           4       16               -514.2458688638               -514.2457643834
           4       17                 15.1795651126                 15.1795290741
           4       18                -21.5359799773                -21.5360846186
           4       19                 -9.0283069236                 -9.0284644067
           4       20                  8.3027758564                  8.2834874195
           4       21                 45.8339351984                 45.8338762259

  Preparing densities etc. for the partition functions (integrals / Hartree potential).

  Preparations completed.
  max(cpu_time)          :      0.166 s.
  Wall clock time (cpu1) :      0.167 s.
------------------------------------------------------------

------------------------------------------------------------
          Begin self-consistency loop: Initialization.

          Date     :  20200616, Time     :  070108.248
------------------------------------------------------------

  Initializing index lists of integration centers etc. from given atomic structure:
  | Number of centers in hartree potential         :        13
  | Number of centers in hartree multipole         :        13
  | Number of centers in electron density summation:        13
  | Number of centers in basis integrals           :        13
  | Number of centers in integrals                 :        13
  | Number of centers in hamiltonian               :        13
  * Using 20 tasks for Scalapack Eigenvalue solver.
  Detailed listing of tasks and assigned k-points:
  (for non-periodic systems, the "k-point" denotes an internal label only)
   Task     0 k-point     1 on r05c49.bullx
   Task     1 k-point     1 on r05c49.bullx
   Task     2 k-point     1 on r05c49.bullx
   Task     3 k-point     1 on r05c49.bullx
   Task     4 k-point     1 on r05c49.bullx
   Task     5 k-point     1 on r05c49.bullx
   Task     6 k-point     1 on r05c49.bullx
   Task     7 k-point     1 on r05c49.bullx
   Task     8 k-point     1 on r05c49.bullx
   Task     9 k-point     1 on r05c49.bullx
   Task    10 k-point     1 on r05c49.bullx
   Task    11 k-point     1 on r05c49.bullx
   Task    12 k-point     1 on r05c49.bullx
   Task    13 k-point     1 on r05c49.bullx
   Task    14 k-point     1 on r05c49.bullx
   Task    15 k-point     1 on r05c49.bullx
   Task    16 k-point     1 on r05c49.bullx
   Task    17 k-point     1 on r05c49.bullx
   Task    18 k-point     1 on r05c49.bullx
   Task    19 k-point     1 on r05c49.bullx
  Tasks:    20 split into      5 X      4 BLACS grid
  Calculating block size based on n_basis =          119  max_nprow =            5  max_npcol =            4
  ScaLAPACK block size set to:           16
  Allocating        0.008 MB for ovlp
  Allocating        0.008 MB for ham
  Allocating        0.008 MB for eigenvec
  Required Scalapack workspace - INTEGER:            1  REAL:             1
  Partitioning the integration grid into batches with parallel hashing+maxmin method.
  | Number of batches:      920
  | Maximal batch size:     187
  | Minimal batch size:      51
  | Average batch size:      75.702
  | Standard deviation of batch sizes:      20.252

  Integration load balanced across    20 MPI tasks.
  Work distribution over tasks is as follows:
  Task     0 has       3467 integration points.
  Task     1 has       3451 integration points.
  Task     2 has       3484 integration points.
  Task     3 has       3477 integration points.
  Task     4 has       3453 integration points.
  Task     5 has       3457 integration points.
  Task     6 has       3587 integration points.
  Task     7 has       3478 integration points.
  Task     8 has       3456 integration points.
  Task     9 has       3431 integration points.
  Task    10 has       3448 integration points.
  Task    11 has       3478 integration points.
  Task    12 has       3509 integration points.
  Task    13 has       3495 integration points.
  Task    14 has       3485 integration points.
  Task    15 has       3470 integration points.
  Task    16 has       3463 integration points.
  Task    17 has       3589 integration points.
  Task    18 has       3481 integration points.
  Task    19 has       3487 integration points.
  Initializing partition tables, free-atom densities, potentials, etc. across the integration grid (initialize_grid_storage).
  | initialize_grid_storage: Actual outermost partition radius vs. multipole_radius_free
  | (-- VB: in principle, multipole_radius_free should be larger, hence this output)
  | Species        1: Confinement radius =              4.999999999999999 AA, multipole_radius_free =              5.054417573612229 AA.
  | Species        1: outer_partition_radius set to              5.054417573612229 AA .
  | Species        2: Confinement radius =              4.999999999999999 AA, multipole_radius_free =              5.019602836301480 AA.
  | Species        2: outer_partition_radius set to              5.019602836301480 AA .
  | Species        3: Confinement radius =              4.999999999999999 AA, multipole_radius_free =              5.043624274424571 AA.
  | Species        3: outer_partition_radius set to              5.043624274424571 AA .
  | Species        4: Confinement radius =              4.999999999999999 AA, multipole_radius_free =              5.048384829883283 AA.
  | Species        4: outer_partition_radius set to              5.048384829883283 AA .
  | Original list of interatomic distances with          13 x         13 entries is created.
  | Net number of integration points:    69646
  | of which are non-zero points    :    59454
  Renormalizing the initial density to the exact electron count on the 3D integration grid.
  | Initial density: Formal number of electrons (from input files) :      48.0000000000
  | Integrated number of electrons on 3D grid     :      48.0000172214
  | Charge integration error                      :       0.0000172214
  | Normalization factor for density and gradient :       0.9999996412
  Obtaining max. number of non-zero basis functions in each batch (get_n_compute_maxes).
  | Maximal number of non-zero basis functions:      118 in task     0
  | Maximal number of non-zero basis functions:      118 in task     1
  | Maximal number of non-zero basis functions:      117 in task     2
  | Maximal number of non-zero basis functions:      118 in task     3
  | Maximal number of non-zero basis functions:      118 in task     4
  | Maximal number of non-zero basis functions:      118 in task     5
  | Maximal number of non-zero basis functions:      119 in task     6
  | Maximal number of non-zero basis functions:      118 in task     7
  | Maximal number of non-zero basis functions:      119 in task     8
  | Maximal number of non-zero basis functions:      118 in task     9
  | Maximal number of non-zero basis functions:      118 in task    10
  | Maximal number of non-zero basis functions:      118 in task    11
  | Maximal number of non-zero basis functions:      118 in task    12
  | Maximal number of non-zero basis functions:      118 in task    13
  | Maximal number of non-zero basis functions:      118 in task    14
  | Maximal number of non-zero basis functions:      118 in task    15
  | Maximal number of non-zero basis functions:      118 in task    16
  | Maximal number of non-zero basis functions:      118 in task    17
  | Maximal number of non-zero basis functions:      119 in task    18
  | Maximal number of non-zero basis functions:      118 in task    19
  Selecting the method for density update.
  Loop over occupied states selected for charge density update.
  Allocating        0.050 MB for KS_eigenvector
  Integrating Hamiltonian matrix: batch-based integration.
  Time summed over all CPUs for integration: real work        0.516 s, elapsed        0.543 s
  Integrating overlap matrix.
  Time summed over all CPUs for integration: real work        0.219 s, elapsed        0.230 s
  Deallocating overlap matrix.

  Updating Kohn-Sham eigenvalues and eigenvectors using ELSI and the ELPA eigensolver.
  ELPA settings:
  | ELPA solver          1
  | Time full => band           :     0.001 s
  | Time band => tridiagonal    :     0.001 s
  | Time solve tridiagonal      :     0.001 s
  Overlap matrix is nonsingular
  | Lowest eigenvalue of overlap  :  0.45E-02
  | Highest eigenvalue of overlap :  0.63E+01
  Finished singularity check of overlap matrix
  | Time :     0.003 s
  Finished Cholesky decomposition
  | Time :     0.002 s
  Finished transformation to standard eigenproblem
  | Time :     0.001 s
  Starting ELPA eigensolver
  | Time full => tridiagonal    :     0.002 s
  | Time solve tridiagonal      :     0.000 s
  | Time ev tridiagonal => full :     0.001 s
  Finished solving standard eigenproblem
  | Time :     0.003 s
  Finished back-transformation of eigenvectors
  | Time :     0.000 s

  Obtaining occupation numbers and chemical potential using ELSI.
  | Chemical potential (Fermi level):    -9.75674727eV
  Writing Kohn-Sham eigenvalues.

  State    Occupation    Eigenvalue [Ha]    Eigenvalue [eV]
      1       2.00000         -19.007487         -517.22004
      2       2.00000         -18.977132         -516.39405
      3       2.00000         -14.246331         -387.66238
      4       2.00000         -10.166878         -276.65481
      5       2.00000         -10.141694         -275.96953
      6       2.00000         -10.131890         -275.70275
      7       2.00000          -1.181424          -32.14817
      8       2.00000          -1.100076          -29.93460
      9       2.00000          -0.992215          -26.99955
     10       2.00000          -0.859953          -23.40051
     11       2.00000          -0.755519          -20.55872
     12       2.00000          -0.679055          -18.47804
     13       2.00000          -0.621303          -16.90650
     14       2.00000          -0.620010          -16.87134
     15       2.00000          -0.591815          -16.10410
     16       2.00000          -0.557834          -15.17944
     17       2.00000          -0.547700          -14.90367
     18       2.00000          -0.540521          -14.70834
     19       2.00000          -0.516424          -14.05262
     20       2.00000          -0.492813          -13.41011
     21       2.00000          -0.469268          -12.76943
     22       2.00000          -0.428024          -11.64713
     23       2.00000          -0.414778          -11.28670
     24       2.00000          -0.381855          -10.39080
     25       0.00000          -0.154493           -4.20397
     26       0.00000          -0.066376           -1.80617
     27       0.00000          -0.031069           -0.84544
     28       0.00000          -0.016517           -0.44946
     29       0.00000          -0.003643           -0.09914
     30       0.00000           0.009825            0.26736
     31       0.00000           0.020114            0.54734
     32       0.00000           0.028982            0.78864
     33       0.00000           0.040219            1.09442
     34       0.00000           0.072414            1.97050
     35       0.00000           0.091115            2.47936
     36       0.00000           0.133164            3.62358
     37       0.00000           0.156263            4.25214
     38       0.00000           0.204592            5.56722
     39       0.00000           0.219174            5.96403
     40       0.00000           0.228387            6.21473
     41       0.00000           0.246791            6.71553
     42       0.00000           0.275319            7.49181
     43       0.00000           0.282480            7.68667
     44       0.00000           0.303726            8.26480
     45       0.00000           0.327310            8.90656
     46       0.00000           0.359208            9.77456
     47       0.00000           0.366326            9.96824
     48       0.00000           0.405257           11.02760
     49       0.00000           0.446918           12.16125
     50       0.00000           0.469790           12.78363
     51       0.00000           0.495660           13.48760
     52       0.00000           0.543737           14.79585
     53       0.00000           0.558607           15.20046

  Highest occupied state (VBM) at    -10.39079675 eV
  | Occupation number:      2.00000000

  Lowest unoccupied state (CBM) at    -4.20396785 eV
  | Occupation number:      0.00000000

  Overall HOMO-LUMO gap:      6.18682891 eV.
  Calculating total energy contributions from superposition of free atom densities.

  Total energy components:
  | Sum of eigenvalues            :        -188.84399971 Ha       -5138.70668650 eV
  | XC energy correction          :         -41.79136981 Ha       -1137.20103277 eV
  | XC potential correction       :          53.72375113 Ha        1461.89764886 eV
  | Free-atom electrostatic energy:        -146.85240752 Ha       -3996.05732564 eV
  | Hartree energy correction     :           0.00000000 Ha           0.00000000 eV
  | vdW energy correction         :           0.00000000 Ha           0.00000000 eV
  | Entropy correction            :           0.00000000 Ha           0.00000000 eV
  | ---------------------------
  | Total energy                  :        -323.76402590 Ha       -8810.06739604 eV
  | Total energy, T -> 0          :        -323.76402590 Ha       -8810.06739604 eV  <-- do not rely on this value for anything but (periodic) metals
  | Electronic free energy        :        -323.76402590 Ha       -8810.06739604 eV

  Derived energy quantities:
  | Kinetic energy                :         320.49728110 Ha        8721.17474715 eV
  | Electrostatic energy          :        -602.46993718 Ha      -16394.04111043 eV
  | Energy correction for multipole
  | error in Hartree potential    :           0.00000000 Ha           0.00000000 eV
  | Sum of eigenvalues per atom                           :        -395.28512973 eV
  | Total energy (T->0) per atom                          :        -677.69749200 eV  <-- do not rely on this value for anything but (periodic) metals
  | Electronic free energy per atom                       :        -677.69749200 eV
  Initialize hartree_potential_storage
  Max. number of atoms included in rho_multipole:           13

  End scf initialization - timings             :  max(cpu_time)    wall_clock(cpu1)
  | Time for scf. initialization               :        0.097 s           0.097 s
  | Boundary condition initialization          :        0.000 s           0.000 s
  | Integration                                :        0.040 s           0.040 s
  | Solution of K.-S. eqns.                    :        0.010 s           0.010 s
  | Grid partitioning                          :        0.024 s           0.024 s
  | Preloading free-atom quantities on grid    :        0.003 s           0.003 s
  | Free-atom superposition energy             :        0.005 s           0.005 s
  | Total energy evaluation                    :        0.000 s           0.000 s

  Partial memory accounting:
  | Current value for overall tracked memory usage on task 0  :           0.133 MB
  | Peak value for overall tracked memory usage on task 0     :           0.834 MB after allocating wave
  | Largest tracked array allocation on task 0 so far         :           0.177 MB  when allocating H_times_psi
  Note:  These values currently only include a subset of arrays which are explicitly tracked.
  The "true" memory usage will be greater.
------------------------------------------------------------

------------------------------------------------------------
          Begin self-consistency iteration #    1

  Date     :  20200616, Time     :  070108.346
------------------------------------------------------------
  Evaluating new KS density.
  Integration grid: deviation in total charge (<rho> - N_e) =   7.105427E-15
  Pulay mixing of updated and previous charge densities.

  Evaluating partitioned Hartree potential by multipole expansion.
  | Analytical far-field extrapolation by fixed multipoles:
  | Hartree multipole sum: apparent total charge =  -0.880889E-04
  Summing up the Hartree potential.
  Time summed over all CPUs for potential: real work        0.421 s, elapsed        0.432 s
  | RMS charge density error from multipole expansion :   0.582142E-02

  Integrating Hamiltonian matrix: batch-based integration.
  Time summed over all CPUs for integration: real work        0.508 s, elapsed        0.546 s

  Updating Kohn-Sham eigenvalues and eigenvectors using ELSI and the ELPA eigensolver.
  ELPA settings:
  | ELPA solver          1
  Finished transformation to standard eigenproblem
  | Time :     0.000 s
  Starting ELPA eigensolver
  | Time full => tridiagonal    :     0.002 s
  | Time solve tridiagonal      :     0.000 s
  | Time ev tridiagonal => full :     0.000 s
  Finished solving standard eigenproblem
  | Time :     0.003 s
  Finished back-transformation of eigenvectors
  | Time :     0.000 s

  Obtaining occupation numbers and chemical potential using ELSI.
  | Chemical potential (Fermi level):    -4.67262563eV
  Writing Kohn-Sham eigenvalues.

  State    Occupation    Eigenvalue [Ha]    Eigenvalue [eV]
      1       2.00000         -18.897555         -514.22864
      2       2.00000         -18.831404         -512.42857
      3       2.00000         -14.105141         -383.82041
      4       2.00000         -10.111849         -275.15742
      5       2.00000         -10.066989         -273.93671
      6       2.00000         -10.036875         -273.11728
      7       2.00000          -1.127506          -30.68099
      8       2.00000          -1.032471          -28.09498
      9       2.00000          -0.927715          -25.24440
     10       2.00000          -0.797920          -21.71251
     11       2.00000          -0.704822          -19.17918
     12       2.00000          -0.630258          -17.15019
     13       2.00000          -0.572789          -15.58639
     14       2.00000          -0.562784          -15.31414
     15       2.00000          -0.529695          -14.41372
     16       2.00000          -0.496930          -13.52215
     17       2.00000          -0.488108          -13.28209
     18       2.00000          -0.483621          -13.16001
     19       2.00000          -0.455710          -12.40049
     20       2.00000          -0.438229          -11.92482
     21       2.00000          -0.408319          -11.11093
     22       2.00000          -0.363859           -9.90110
     23       2.00000          -0.342829           -9.32885
     24       2.00000          -0.312586           -8.50591
     25       0.00000          -0.114615           -3.11883
     26       0.00000          -0.043457           -1.18252
     27       0.00000          -0.000596           -0.01623
     28       0.00000           0.014545            0.39579
     29       0.00000           0.026293            0.71548
     30       0.00000           0.045380            1.23485
     31       0.00000           0.056321            1.53258
     32       0.00000           0.064800            1.76328
     33       0.00000           0.074574            2.02925
     34       0.00000           0.111073            3.02245
     35       0.00000           0.129131            3.51384
     36       0.00000           0.163781            4.45671
     37       0.00000           0.183049            4.98102
     38       0.00000           0.233813            6.36238
     39       0.00000           0.249552            6.79067
     40       0.00000           0.260491            7.08833
     41       0.00000           0.278844            7.58774
     42       0.00000           0.309028            8.40908
     43       0.00000           0.315089            8.57400
     44       0.00000           0.341739            9.29918
     45       0.00000           0.367205            9.99216
     46       0.00000           0.401572           10.92733
     47       0.00000           0.410773           11.17770
     48       0.00000           0.440748           11.99336
     49       0.00000           0.481346           13.09808
     50       0.00000           0.502279           13.66771
     51       0.00000           0.531116           14.45241
     52       0.00000           0.578112           15.73122
     53       0.00000           0.589497           16.04103

  Highest occupied state (VBM) at     -8.50590946 eV
  | Occupation number:      2.00000000

  Lowest unoccupied state (CBM) at    -3.11883116 eV
  | Occupation number:      0.00000000

  Overall HOMO-LUMO gap:      5.38707830 eV.

  Total energy components:
  | Sum of eigenvalues            :        -185.45192891 Ha       -5046.40374378 eV
  | XC energy correction          :         -42.11911308 Ha       -1146.11938068 eV
  | XC potential correction       :          54.15001930 Ha        1473.49699595 eV
  | Free-atom electrostatic energy:        -146.85240752 Ha       -3996.05732564 eV
  | Hartree energy correction     :          -3.31170874 Ha         -90.11618000 eV
  | vdW energy correction         :           0.00000000 Ha           0.00000000 eV
  | Entropy correction            :           0.00000000 Ha           0.00000000 eV
  | ---------------------------
  | Total energy                  :        -323.58513894 Ha       -8805.19963415 eV
  | Total energy, T -> 0          :        -323.58513894 Ha       -8805.19963415 eV  <-- do not rely on this value for anything but (periodic) metals
  | Electronic free energy        :        -323.58513894 Ha       -8805.19963415 eV

  Derived energy quantities:
  | Kinetic energy                :         322.28151574 Ha        8769.72624201 eV
  | Electrostatic energy          :        -603.74754160 Ha      -16428.80649547 eV
  | Energy correction for multipole
  | error in Hartree potential    :           0.01161266 Ha           0.31599666 eV
  | Sum of eigenvalues per atom                           :        -388.18490337 eV
  | Total energy (T->0) per atom                          :        -677.32304878 eV  <-- do not rely on this value for anything but (periodic) metals
  | Electronic free energy per atom                       :        -677.32304878 eV

  Self-consistency convergence accuracy:
  | Change of charge density      :  0.5820E+00
  | Change of sum of eigenvalues  :  0.9230E+02 eV
  | Change of total energy        :  0.4868E+01 eV

  End self-consistency iteration #     1       :  max(cpu_time)    wall_clock(cpu1)
  | Time for this iteration                    :        0.078 s           0.078 s
  | Charge density update                      :        0.022 s           0.021 s
  | Density mixing                             :        0.000 s           0.001 s
  | Hartree multipole update                   :        0.001 s           0.001 s
  | Hartree multipole summation                :        0.022 s           0.022 s
  | Integration                                :        0.028 s           0.028 s
  | Solution of K.-S. eqns.                    :        0.004 s           0.004 s
  | Total energy evaluation                    :        0.000 s           0.000 s

  Partial memory accounting:
  | Current value for overall tracked memory usage on task 0  :           0.133 MB
  | Peak value for overall tracked memory usage on task 0     :           0.839 MB after allocating gradient_basis_wave
  | Largest tracked array allocation on task 0 so far         :           0.530 MB  when allocating gradient_basis_wave
  Note:  These values currently only include a subset of arrays which are explicitly tracked.
  The "true" memory usage will be greater.
------------------------------------------------------------

------------------------------------------------------------
          Begin self-consistency iteration #    2

  Date     :  20200616, Time     :  070108.429
------------------------------------------------------------
  Evaluating new KS density.
  Integration grid: deviation in total charge (<rho> - N_e) =  -7.105427E-15
  Pulay mixing of updated and previous charge densities.

  Evaluating partitioned Hartree potential by multipole expansion.
  | Analytical far-field extrapolation by fixed multipoles:
  | Hartree multipole sum: apparent total charge =  -0.223484E-03
  Summing up the Hartree potential.
  Time summed over all CPUs for potential: real work        0.420 s, elapsed        0.430 s
  | RMS charge density error from multipole expansion :   0.138419E-01

  Integrating Hamiltonian matrix: batch-based integration.
  Time summed over all CPUs for integration: real work        0.505 s, elapsed        0.528 s

  Updating Kohn-Sham eigenvalues and eigenvectors using ELSI and the ELPA eigensolver.
  ELPA settings:
  | ELPA solver          1
  Finished transformation to standard eigenproblem
  | Time :     0.000 s
  Starting ELPA eigensolver
  | Time full => tridiagonal    :     0.002 s
  | Time solve tridiagonal      :     0.000 s
  | Time ev tridiagonal => full :     0.000 s
  Finished solving standard eigenproblem
  | Time :     0.003 s
  Finished back-transformation of eigenvectors
  | Time :     0.000 s

  Obtaining occupation numbers and chemical potential using ELSI.
  | Chemical potential (Fermi level):    -3.50096558eV
  Highest occupied state (VBM) at     -6.61012796 eV
  | Occupation number:      2.00000000

  Lowest unoccupied state (CBM) at    -1.75139907 eV
  | Occupation number:      0.00000000

  Overall HOMO-LUMO gap:      4.85872889 eV.

  Checking to see if s.c.f. parameters should be adjusted.

  Total energy components:
  | Sum of eigenvalues            :        -181.87952998 Ha       -4949.19382306 eV
  | XC energy correction          :         -42.47687171 Ha       -1155.85448847 eV
  | XC potential correction       :          54.61377786 Ha        1486.11650833 eV
  | Free-atom electrostatic energy:        -146.85240752 Ha       -3996.05732564 eV
  | Hartree energy correction     :          -6.91241255 Ha        -188.09631564 eV
  | vdW energy correction         :           0.00000000 Ha           0.00000000 eV
  | Entropy correction            :           0.00000000 Ha           0.00000000 eV
  | ---------------------------
  | Total energy                  :        -323.50744390 Ha       -8803.08544449 eV
  | Total energy, T -> 0          :        -323.50744390 Ha       -8803.08544449 eV  <-- do not rely on this value for anything but (periodic) metals
  | Electronic free energy        :        -323.50744390 Ha       -8803.08544449 eV

  Derived energy quantities:
  | Kinetic energy                :         323.59434601 Ha        8805.45017123 eV
  | Electrostatic energy          :        -604.62491819 Ha      -16452.68112725 eV
  | Energy correction for multipole
  | error in Hartree potential    :           0.02540870 Ha           0.69140592 eV
  | Sum of eigenvalues per atom                           :        -380.70721716 eV
  | Total energy (T->0) per atom                          :        -677.16041881 eV  <-- do not rely on this value for anything but (periodic) metals
  | Electronic free energy per atom                       :        -677.16041881 eV

  Self-consistency convergence accuracy:
  | Change of charge density      :  0.3634E+00
  | Change of sum of eigenvalues  :  0.9721E+02 eV
  | Change of total energy        :  0.2114E+01 eV

  End self-consistency iteration #     2       :  max(cpu_time)    wall_clock(cpu1)
  | Time for this iteration                    :        0.078 s           0.077 s
  | Charge density update                      :        0.023 s           0.022 s
  | Density mixing                             :        0.001 s           0.001 s
  | Hartree multipole update                   :        0.001 s           0.001 s
  | Hartree multipole summation                :        0.022 s           0.022 s
  | Integration                                :        0.027 s           0.027 s
  | Solution of K.-S. eqns.                    :        0.004 s           0.004 s
  | Total energy evaluation                    :        0.000 s           0.000 s

  Partial memory accounting:
  | Current value for overall tracked memory usage on task 0  :           0.134 MB
  | Peak value for overall tracked memory usage on task 0     :           0.839 MB after allocating gradient_basis_wave
  | Largest tracked array allocation on task 0 so far         :           0.530 MB  when allocating gradient_basis_wave
  Note:  These values currently only include a subset of arrays which are explicitly tracked.
  The "true" memory usage will be greater.
------------------------------------------------------------

------------------------------------------------------------
          Begin self-consistency iteration #    3

  Date     :  20200616, Time     :  070108.511
------------------------------------------------------------
  Evaluating new KS density.
  Integration grid: deviation in total charge (<rho> - N_e) =   2.131628E-14
  Pulay mixing of updated and previous charge densities.

  Evaluating partitioned Hartree potential by multipole expansion.
  | Analytical far-field extrapolation by fixed multipoles:
  | Hartree multipole sum: apparent total charge =  -0.323316E-03
  Summing up the Hartree potential.
  Time summed over all CPUs for potential: real work        0.420 s, elapsed        0.432 s
  | RMS charge density error from multipole expansion :   0.219252E-01

  Integrating Hamiltonian matrix: batch-based integration.
  Time summed over all CPUs for integration: real work        0.506 s, elapsed        0.532 s

  Updating Kohn-Sham eigenvalues and eigenvectors using ELSI and the ELPA eigensolver.
  ELPA settings:
  | ELPA solver          1
  Finished transformation to standard eigenproblem
  | Time :     0.000 s
  Starting ELPA eigensolver
  | Time full => tridiagonal    :     0.002 s
  | Time solve tridiagonal      :     0.000 s
  | Time ev tridiagonal => full :     0.000 s
  Finished solving standard eigenproblem
  | Time :     0.003 s
  Finished back-transformation of eigenvectors
  | Time :     0.000 s

  Obtaining occupation numbers and chemical potential using ELSI.
  | Chemical potential (Fermi level):    -2.85952685eV
  Highest occupied state (VBM) at     -5.95547523 eV
  | Occupation number:      2.00000000

  Lowest unoccupied state (CBM) at    -1.00464678 eV
  | Occupation number:      0.00000000

  Overall HOMO-LUMO gap:      4.95082845 eV.

  Total energy components:
  | Sum of eigenvalues            :        -180.53509912 Ha       -4912.60999789 eV
  | XC energy correction          :         -42.63000858 Ha       -1160.02155464 eV
  | XC potential correction       :          54.80910459 Ha        1491.43161921 eV
  | Free-atom electrostatic energy:        -146.85240752 Ha       -3996.05732564 eV
  | Hartree energy correction     :          -8.28632735 Ha        -225.48243974 eV
  | vdW energy correction         :           0.00000000 Ha           0.00000000 eV
  | Entropy correction            :           0.00000000 Ha           0.00000000 eV
  | ---------------------------
  | Total energy                  :        -323.49473797 Ha       -8802.73969870 eV
  | Total energy, T -> 0          :        -323.49473797 Ha       -8802.73969870 eV  <-- do not rely on this value for anything but (periodic) metals
  | Electronic free energy        :        -323.49473797 Ha       -8802.73969870 eV

  Derived energy quantities:
  | Kinetic energy                :         323.18543667 Ha        8794.32318211 eV
  | Electrostatic energy          :        -604.05016607 Ha      -16437.04132617 eV
  | Energy correction for multipole
  | error in Hartree potential    :           0.03569308 Ha           0.97125824 eV
  | Sum of eigenvalues per atom                           :        -377.89307676 eV
  | Total energy (T->0) per atom                          :        -677.13382298 eV  <-- do not rely on this value for anything but (periodic) metals
  | Electronic free energy per atom                       :        -677.13382298 eV

  Self-consistency convergence accuracy:
  | Change of charge density      :  0.2033E+00
  | Change of sum of eigenvalues  :  0.3658E+02 eV
  | Change of total energy        :  0.3457E+00 eV

  End self-consistency iteration #     3       :  max(cpu_time)    wall_clock(cpu1)
  | Time for this iteration                    :        0.079 s           0.078 s
  | Charge density update                      :        0.024 s           0.023 s
  | Density mixing                             :        0.001 s           0.001 s
  | Hartree multipole update                   :        0.001 s           0.001 s
  | Hartree multipole summation                :        0.022 s           0.022 s
  | Integration                                :        0.027 s           0.027 s
  | Solution of K.-S. eqns.                    :        0.004 s           0.004 s
  | Total energy evaluation                    :        0.000 s           0.000 s

  Partial memory accounting:
  | Current value for overall tracked memory usage on task 0  :           0.134 MB
  | Peak value for overall tracked memory usage on task 0     :           0.840 MB after allocating gradient_basis_wave
  | Largest tracked array allocation on task 0 so far         :           0.530 MB  when allocating gradient_basis_wave
  Note:  These values currently only include a subset of arrays which are explicitly tracked.
  The "true" memory usage will be greater.
------------------------------------------------------------

------------------------------------------------------------
          Begin self-consistency iteration #    4

  Date     :  20200616, Time     :  070108.595
------------------------------------------------------------
  Evaluating new KS density.
  Integration grid: deviation in total charge (<rho> - N_e) =   0.000000E+00
  Pulay mixing of updated and previous charge densities.

  Evaluating partitioned Hartree potential by multipole expansion.
  | Analytical far-field extrapolation by fixed multipoles:
  | Hartree multipole sum: apparent total charge =  -0.356586E-03
  Summing up the Hartree potential.
  Time summed over all CPUs for potential: real work        0.412 s, elapsed        0.426 s
  | RMS charge density error from multipole expansion :   0.253335E-01

  Integrating Hamiltonian matrix: batch-based integration.
  Time summed over all CPUs for integration: real work        0.505 s, elapsed        0.527 s

  Updating Kohn-Sham eigenvalues and eigenvectors using ELSI and the ELPA eigensolver.
  ELPA settings:
  | ELPA solver          1
  Finished transformation to standard eigenproblem
  | Time :     0.000 s
  Starting ELPA eigensolver
  | Time full => tridiagonal    :     0.002 s
  | Time solve tridiagonal      :     0.000 s
  | Time ev tridiagonal => full :     0.000 s
  Finished solving standard eigenproblem
  | Time :     0.003 s
  Finished back-transformation of eigenvectors
  | Time :     0.000 s

  Obtaining occupation numbers and chemical potential using ELSI.
  | Chemical potential (Fermi level):    -2.77553791eV
  Highest occupied state (VBM) at     -5.71089148 eV
  | Occupation number:      2.00000000

  Lowest unoccupied state (CBM) at    -0.91800796 eV
  | Occupation number:      0.00000000

  Overall HOMO-LUMO gap:      4.79288352 eV.

  Total energy components:
  | Sum of eigenvalues            :        -180.41761671 Ha       -4909.41313900 eV
  | XC energy correction          :         -42.66575157 Ha       -1160.99417090 eV
  | XC potential correction       :          54.85397043 Ha        1492.65248068 eV
  | Free-atom electrostatic energy:        -146.85240752 Ha       -3996.05732564 eV
  | Hartree energy correction     :          -8.41194049 Ha        -228.90054695 eV
  | vdW energy correction         :           0.00000000 Ha           0.00000000 eV
  | Entropy correction            :           0.00000000 Ha           0.00000000 eV
  | ---------------------------
  | Total energy                  :        -323.49374585 Ha       -8802.71270180 eV
  | Total energy, T -> 0          :        -323.49374585 Ha       -8802.71270180 eV  <-- do not rely on this value for anything but (periodic) metals
  | Electronic free energy        :        -323.49374585 Ha       -8802.71270180 eV

  Derived energy quantities:
  | Kinetic energy                :         322.78787533 Ha        8783.50498742 eV
  | Electrostatic energy          :        -603.61586961 Ha      -16425.22351833 eV
  | Energy correction for multipole
  | error in Hartree potential    :           0.03953090 Ha           1.07569059 eV
  | Sum of eigenvalues per atom                           :        -377.64716454 eV
  | Total energy (T->0) per atom                          :        -677.13174629 eV  <-- do not rely on this value for anything but (periodic) metals
  | Electronic free energy per atom                       :        -677.13174629 eV

  Self-consistency convergence accuracy:
  | Change of charge density      :  0.6515E-01
  | Change of sum of eigenvalues  :  0.3197E+01 eV
  | Change of total energy        :  0.2700E-01 eV

  End self-consistency iteration #     4       :  max(cpu_time)    wall_clock(cpu1)
  | Time for this iteration                    :        0.079 s           0.077 s
  | Charge density update                      :        0.024 s           0.022 s
  | Density mixing                             :        0.001 s           0.001 s
  | Hartree multipole update                   :        0.001 s           0.001 s
  | Hartree multipole summation                :        0.022 s           0.022 s
  | Integration                                :        0.027 s           0.026 s
  | Solution of K.-S. eqns.                    :        0.004 s           0.004 s
  | Total energy evaluation                    :        0.000 s           0.000 s

  Partial memory accounting:
  | Current value for overall tracked memory usage on task 0  :           0.134 MB
  | Peak value for overall tracked memory usage on task 0     :           0.840 MB after allocating gradient_basis_wave
  | Largest tracked array allocation on task 0 so far         :           0.530 MB  when allocating gradient_basis_wave
  Note:  These values currently only include a subset of arrays which are explicitly tracked.
  The "true" memory usage will be greater.
------------------------------------------------------------

------------------------------------------------------------
          Begin self-consistency iteration #    5

  Date     :  20200616, Time     :  070108.677
------------------------------------------------------------
  Evaluating new KS density.
  Integration grid: deviation in total charge (<rho> - N_e) =   0.000000E+00
  Pulay mixing of updated and previous charge densities.

  Evaluating partitioned Hartree potential by multipole expansion.
  | Analytical far-field extrapolation by fixed multipoles:
  | Hartree multipole sum: apparent total charge =  -0.351069E-03
  Summing up the Hartree potential.
  Time summed over all CPUs for potential: real work        0.412 s, elapsed        0.426 s
  | RMS charge density error from multipole expansion :   0.250719E-01

  Integrating Hamiltonian matrix: batch-based integration.
  Time summed over all CPUs for integration: real work        0.506 s, elapsed        0.531 s

  Updating Kohn-Sham eigenvalues and eigenvectors using ELSI and the ELPA eigensolver.
  ELPA settings:
  | ELPA solver          1
  Finished transformation to standard eigenproblem
  | Time :     0.000 s
  Starting ELPA eigensolver
  | Time full => tridiagonal    :     0.002 s
  | Time solve tridiagonal      :     0.000 s
  | Time ev tridiagonal => full :     0.000 s
  Finished solving standard eigenproblem
  | Time :     0.003 s
  Finished back-transformation of eigenvectors
  | Time :     0.000 s

  Obtaining occupation numbers and chemical potential using ELSI.
  | Chemical potential (Fermi level):    -2.82958529eV
  Highest occupied state (VBM) at     -5.83063640 eV
  | Occupation number:      2.00000000

  Lowest unoccupied state (CBM) at    -1.00057046 eV
  | Occupation number:      0.00000000

  Overall HOMO-LUMO gap:      4.83006594 eV.

  Total energy components:
  | Sum of eigenvalues            :        -180.58982986 Ha       -4914.09929716 eV
  | XC energy correction          :         -42.64402082 Ha       -1160.40284716 eV
  | XC potential correction       :          54.82579279 Ha        1491.88572811 eV
  | Free-atom electrostatic energy:        -146.85240752 Ha       -3996.05732564 eV
  | Hartree energy correction     :          -8.23298602 Ha        -224.03094813 eV
  | vdW energy correction         :           0.00000000 Ha           0.00000000 eV
  | Entropy correction            :           0.00000000 Ha           0.00000000 eV
  | ---------------------------
  | Total energy                  :        -323.49345143 Ha       -8802.70468999 eV
  | Total energy, T -> 0          :        -323.49345143 Ha       -8802.70468999 eV  <-- do not rely on this value for anything but (periodic) metals
  | Electronic free energy        :        -323.49345143 Ha       -8802.70468999 eV

  Derived energy quantities:
  | Kinetic energy                :         322.69451425 Ha        8780.96450332 eV
  | Electrostatic energy          :        -603.54394486 Ha      -16423.26634615 eV
  | Energy correction for multipole
  | error in Hartree potential    :           0.03891984 Ha           1.05906284 eV
  | Sum of eigenvalues per atom                           :        -378.00763824 eV
  | Total energy (T->0) per atom                          :        -677.13113000 eV  <-- do not rely on this value for anything but (periodic) metals
  | Electronic free energy per atom                       :        -677.13113000 eV

  Self-consistency convergence accuracy:
  | Change of charge density      :  0.2127E-01
  | Change of sum of eigenvalues  : -0.4686E+01 eV
  | Change of total energy        :  0.8012E-02 eV

  End self-consistency iteration #     5       :  max(cpu_time)    wall_clock(cpu1)
  | Time for this iteration                    :        0.078 s           0.076 s
  | Charge density update                      :        0.023 s           0.021 s
  | Density mixing                             :        0.001 s           0.001 s
  | Hartree multipole update                   :        0.001 s           0.001 s
  | Hartree multipole summation                :        0.022 s           0.022 s
  | Integration                                :        0.027 s           0.027 s
  | Solution of K.-S. eqns.                    :        0.004 s           0.004 s
  | Total energy evaluation                    :        0.000 s           0.000 s

  Partial memory accounting:
  | Current value for overall tracked memory usage on task 0  :           0.134 MB
  | Peak value for overall tracked memory usage on task 0     :           0.840 MB after allocating gradient_basis_wave
  | Largest tracked array allocation on task 0 so far         :           0.530 MB  when allocating gradient_basis_wave
  Note:  These values currently only include a subset of arrays which are explicitly tracked.
  The "true" memory usage will be greater.
------------------------------------------------------------

------------------------------------------------------------
          Begin self-consistency iteration #    6

  Date     :  20200616, Time     :  070108.758
------------------------------------------------------------
  Evaluating new KS density.
  Integration grid: deviation in total charge (<rho> - N_e) =   3.552714E-14
  Pulay mixing of updated and previous charge densities.

[...]
  |   Hirshfeld dipole moment :      0.06224515
  |   Hirshfeld second moments:     -0.00980971      -0.02934173      -0.02046721
  |                                 -0.02934173      -0.02362270       0.01181197
  |                                 -0.02046721       0.01181197      -0.01592445
  ----------------------------------------------------------------------
  | Atom    12: O
  |   Hirshfeld charge        :     -0.15559620
  |   Free atom volume        :     23.61338643
  |   Hirshfeld volume        :     21.23587541
  |   Hirshfeld dipole vector :      0.01013866       0.04149323      -0.00106679
  |   Hirshfeld dipole moment :      0.04272726
  |   Hirshfeld second moments:      0.08636951      -0.02139591       0.01792930
  |                                 -0.02139591       0.02822493       0.00948765
  |                                  0.01792930       0.00948765       0.03436143
  ----------------------------------------------------------------------
  | Atom    13: H
  |   Hirshfeld charge        :      0.15359478
  |   Free atom volume        :      9.95071624
  |   Hirshfeld volume        :      6.87803589
  |   Hirshfeld dipole vector :     -0.09163375       0.05098821      -0.01528663
  |   Hirshfeld dipole moment :      0.10597274
  |   Hirshfeld second moments:      0.11450086      -0.00435734       0.00527829
  |                                 -0.00435734       0.08390914       0.02404582
  |                                  0.00527829       0.02404582       0.08367076
  ----------------------------------------------------------------------


  Total energy components:
  | Sum of eigenvalues            :        -180.60785897 Ha       -4914.58989425 eV
  | XC energy correction          :         -42.63779910 Ha       -1160.23354544 eV
  | XC potential correction       :          54.81779000 Ha        1491.66796120 eV
  | Free-atom electrostatic energy:        -146.85240752 Ha       -3996.05732564 eV
  | Hartree energy correction     :          -8.21309856 Ha        -223.48978296 eV
  | vdW energy correction         :          -0.00350375 Ha          -0.09534186 eV
  | Entropy correction            :           0.00000000 Ha           0.00000000 eV
  | ---------------------------
  | Total energy                  :        -323.49687790 Ha       -8802.79792895 eV
  | Total energy, T -> 0          :        -323.49687790 Ha       -8802.79792895 eV  <-- do not rely on this value for anything but (periodic) metals
  | Electronic free energy        :        -323.49687790 Ha       -8802.79792895 eV

  Derived energy quantities:
  | Kinetic energy                :         322.57172290 Ha        8777.62318079 eV
  | Electrostatic energy          :        -603.42729795 Ha      -16420.09222244 eV
  | Energy correction for multipole
  | error in Hartree potential    :           0.03917874 Ha           1.06610771 eV
  | Sum of eigenvalues per atom                           :        -378.04537648 eV
  | Total energy (T->0) per atom                          :        -677.13830223 eV  <-- do not rely on this value for anything but (periodic) metals
  | Electronic free energy per atom                       :        -677.13830223 eV

  atomic forces [eV/Ang]:
  -----------------------
  atom #    1
   Hellmann-Feynman              :  0.922714E+00  0.407237E-02  0.123138E+01
   Ionic forces                  :  0.000000E+00  0.000000E+00  0.000000E+00
   Multipole                     :  0.616070E-01  0.415399E+00 -0.251901E+00
   Pulay + GGA                   : -0.100200E+01  0.142078E+00 -0.137550E+01
   Van der Waals                 :  0.255861E-02  0.106044E-02 -0.118332E-02
   ----------------------------------------------------------------
   Total forces(   1)            : -0.151159E-01  0.562610E+00 -0.397198E+00
  atom #    2
   Hellmann-Feynman              :  0.325157E+00 -0.147738E-01  0.241993E+00
   Ionic forces                  :  0.000000E+00  0.000000E+00  0.000000E+00
   Multipole                     :  0.172896E+00  0.363356E-01 -0.112801E-01
   Pulay + GGA                   : -0.138557E+00  0.111538E-01  0.360743E-01
   Van der Waals                 :  0.535093E-02 -0.604093E-02 -0.357268E-02
   ----------------------------------------------------------------
   Total forces(   2)            :  0.364848E+00  0.266747E-01  0.263214E+00
  atom #    3
   Hellmann-Feynman              : -0.923356E+01 -0.675577E+01  0.841234E+00
   Ionic forces                  :  0.000000E+00  0.000000E+00  0.000000E+00
   Multipole                     : -0.208917E+00  0.697728E-01 -0.819452E+00
   Pulay + GGA                   :  0.913434E+01  0.662603E+01  0.807340E+00
   Van der Waals                 :  0.458074E-02 -0.486388E-02 -0.947105E-02
   ----------------------------------------------------------------
   Total forces(   3)            : -0.303563E+00 -0.648359E-01  0.819652E+00
  atom #    4
   Hellmann-Feynman              :  0.245969E+00  0.105751E+00 -0.190101E+00
   Ionic forces                  :  0.000000E+00  0.000000E+00  0.000000E+00
   Multipole                     : -0.366518E-01  0.669519E-01 -0.870009E-01
   Pulay + GGA                   : -0.931211E-02 -0.217430E+00  0.533992E-01
   Van der Waals                 : -0.269848E-02 -0.844753E-02 -0.532266E-02
   ----------------------------------------------------------------
   Total forces(   4)            :  0.197307E+00 -0.531751E-01 -0.229025E+00
  atom #    5
   Hellmann-Feynman              :  0.436316E-01  0.608557E-01 -0.291986E+00
   Ionic forces                  :  0.000000E+00  0.000000E+00  0.000000E+00
   Multipole                     :  0.396101E-01 -0.138534E-01 -0.123048E+00
   Pulay + GGA                   : -0.210590E+00  0.479868E-02  0.140373E+00
   Van der Waals                 : -0.487332E-02  0.146564E-02  0.381713E-02
   ----------------------------------------------------------------
   Total forces(   5)            : -0.132222E+00  0.532667E-01 -0.270844E+00
  atom #    6
   Hellmann-Feynman              :  0.752160E-01 -0.528817E+00  0.159709E+00
   Ionic forces                  :  0.000000E+00  0.000000E+00  0.000000E+00
   Multipole                     : -0.997062E-01  0.607021E+00  0.261449E+00
   Pulay + GGA                   :  0.222411E+00 -0.545667E+00 -0.375334E+00
   Van der Waals                 : -0.170679E-02  0.676755E-02 -0.284982E-02
   ----------------------------------------------------------------
   Total forces(   6)            :  0.196214E+00 -0.460696E+00  0.429741E-01
  atom #    7
   Hellmann-Feynman              :  0.108081E+00  0.818211E-01 -0.170992E+00
   Ionic forces                  :  0.000000E+00  0.000000E+00  0.000000E+00
   Multipole                     :  0.196973E-01  0.132785E+00 -0.763762E-02
   Pulay + GGA                   : -0.273645E-01 -0.757178E-01  0.740008E-01
   Van der Waals                 : -0.928579E-03  0.558815E-02  0.728742E-02
   ----------------------------------------------------------------
   Total forces(   7)            :  0.994850E-01  0.144477E+00 -0.973416E-01
  atom #    8
   Hellmann-Feynman              : -0.263485E+00 -0.343543E-01 -0.269463E-01
   Ionic forces                  :  0.000000E+00  0.000000E+00  0.000000E+00
   Multipole                     : -0.116232E+00  0.503242E-01  0.279874E-01
   Pulay + GGA                   :  0.105997E+00  0.193896E-01  0.155062E-01
   Van der Waals                 : -0.394734E-02  0.207471E-02  0.867014E-02
   ----------------------------------------------------------------
   Total forces(   8)            : -0.277667E+00  0.374342E-01  0.252175E-01
  atom #    9
   Hellmann-Feynman              :  0.308459E-01 -0.486153E-01  0.147565E+00
   Ionic forces                  :  0.000000E+00  0.000000E+00  0.000000E+00
   Multipole                     :  0.182281E-01  0.710974E-01  0.123381E+00
   Pulay + GGA                   : -0.453827E-01 -0.462809E-01 -0.120933E+00
   Van der Waals                 : -0.332874E-02  0.100724E-01  0.593082E-03
   ----------------------------------------------------------------
   Total forces(   9)            :  0.362590E-03 -0.137265E-01  0.150606E+00
  atom #   10
   Hellmann-Feynman              :  0.247955E+01  0.390931E+01  0.161518E+01
   Ionic forces                  :  0.000000E+00  0.000000E+00  0.000000E+00
   Multipole                     :  0.509506E-01 -0.104579E+00  0.239498E+00
   Pulay + GGA                   : -0.104657E+01 -0.292696E+01 -0.197605E+00
   Van der Waals                 :  0.124076E-02 -0.114706E-01  0.591756E-03
   ----------------------------------------------------------------
   Total forces(  10)            :  0.148517E+01  0.866298E+00  0.165767E+01
  atom #   11
   Hellmann-Feynman              :  0.505326E+01 -0.293323E+01  0.137319E+02
   Ionic forces                  :  0.000000E+00  0.000000E+00  0.000000E+00
   Multipole                     :  0.472494E-01 -0.513638E+00  0.813202E+00
   Pulay + GGA                   : -0.383477E+01  0.392822E+01 -0.136713E+02
   Van der Waals                 :  0.139151E-02 -0.116206E-01  0.635429E-02
   ----------------------------------------------------------------
   Total forces(  11)            :  0.126712E+01  0.469729E+00  0.880153E+00
  atom #   12
   Hellmann-Feynman              : -0.251385E+01 -0.146143E+02 -0.175989E+01
   Ionic forces                  :  0.000000E+00  0.000000E+00  0.000000E+00
   Multipole                     : -0.928025E+00 -0.146594E+01  0.108480E-01
   Pulay + GGA                   :  0.112763E+01  0.148278E+02  0.525158E+00
   Van der Waals                 :  0.248326E-02  0.983384E-02  0.905715E-03
   ----------------------------------------------------------------
   Total forces(  12)            : -0.231176E+01 -0.124257E+01 -0.122298E+01
  atom #   13
   Hellmann-Feynman              : -0.786177E+00 -0.103779E+00 -0.170654E+01
   Ionic forces                  :  0.000000E+00  0.000000E+00  0.000000E+00
   Multipole                     : -0.663425E-01  0.683665E-01 -0.243614E-01
   Pulay + GGA                   :  0.280008E+00 -0.293666E+00  0.108578E+00
   Van der Waals                 : -0.122560E-03  0.558081E-02 -0.582001E-02
   ----------------------------------------------------------------
   Total forces(  13)            : -0.572634E+00 -0.323498E+00 -0.162814E+01

  Timings for VdW correction (Tkatchenko-Scheffler 2009 or later):
  | CPU time:        0.008 s, Wall clock time:        0.006 s.
  Removing unitary transformations (pure translations, rotations) from forces on atoms.
  Atomic forces before filtering:
  | Net force on center of mass :  -0.245830E-02  0.199010E-02 -0.604810E-02 eV/A
  | Net torque on center of mass:   0.178167E-02 -0.294741E-02 -0.680978E-02 eV
  Atomic forces after filtering:
  | Net force on center of mass :  -0.178406E-15  0.267609E-15  0.000000E+00 eV/A
  | Net torque on center of mass:  -0.120371E-14 -0.113290E-14 -0.141613E-14 eV

  Energy and forces in a compact form:
  | Total energy uncorrected      :         -0.880279792895349E+04 eV
  | Total energy corrected        :         -0.880279792895349E+04 eV  <-- do not rely on this value for anything but (periodic) metals
  | Electronic free energy        :         -0.880279792895349E+04 eV
  Total atomic forces (unitary forces cleaned) [eV/Ang]:
  |   1         -0.149299895104667E-01          0.562557861244257E+00         -0.396782830748885E+00
  |   2          0.365034105690520E+00          0.268839474463653E-01          0.263502199610860E+00
  |   3         -0.303541192731611E+00         -0.650618496284697E-01          0.820122829982360E+00
  |   4          0.197071942551507E+00         -0.534780470360266E-01         -0.228561469398818E+00
  |   5         -0.132195021518751E+00          0.531965003243663E-01         -0.270447226809754E+00
  |   6          0.196182900128119E+00         -0.460836344648024E+00          0.433943909832290E-01
  |   7          0.991806599705484E-01          0.144402846879668E+00         -0.970016369222725E-01
  |   8         -0.277703909377976E+00          0.370335979633763E-01          0.257637495821092E-01
  |   9          0.449537536482603E-03         -0.137376491078164E-01          0.150983813548139E+00
  |  10          0.148574771596210E+01          0.866183095743778E+00          0.165818174172450E+01
  |  11          0.126790811331425E+01          0.469749182781637E+00          0.880638522912685E+00
  |  12         -0.231106575989635E+01         -0.124290121422036E+01         -0.122233415656714E+01
  |  13         -0.572139102118372E+00         -0.323991927742751E+00         -0.162745992789701E+01

  ------------------------------------ 
  Start decomposition of the XC Energy 
  ------------------------------------ 
  X and C from original XC functional choice 
  Hartree-Fock Energy :          0.000000000 Ha              0.000000000 eV
  X Energy            :        -41.036461387 Ha          -1116.658929312 eV
  C Energy            :         -1.601337710 Ha            -43.574616128 eV
  Total XC Energy     :        -42.637799096 Ha          -1160.233545440 eV
  ------------------------------------ 
  LDA X and C from self-consistent density 
  X Energy LDA        :        -37.256272507 Ha          -1013.794756232 eV
  C Energy LDA        :         -3.138692430 Ha            -85.408166528 eV
  ------------------------------------ 
  End decomposition of the XC Energy 
  ------------------------------------ 

------------------------------------------------------------

------------------------------------------------------------------------------
  Final output of selected total energy values:

  The following output summarizes some interesting total energy values
  at the end of a run (AFTER all relaxation, molecular dynamics, etc.).

  | Total energy of the DFT / Hartree-Fock s.c.f. calculation      :          -8802.797928953 eV
  | Final zero-broadening corrected energy (caution - metals only) :          -8802.797928953 eV
  | For reference only, the value of 1 Hartree used in FHI-aims is :             27.211384500 eV

  Before relying on these values, please be sure to understand exactly which
  total energy value is referred to by a given number. Different objects may
  all carry the same name 'total energy'. Definitions:

  Total energy of the DFT / Hartree-Fock s.c.f. calculation:
  | Note that this energy does not include ANY quantities calculated after the
  | s.c.f. cycle, in particular not ANY RPA, MP2, etc. many-body perturbation terms.

  Final zero-broadening corrected energy:
  | For metallic systems only, a broadening of the occupation numbers at the Fermi
  | level can be extrapolated back to zero broadening by an electron-gas inspired
  | formula. For all systems that are not real metals, this value can be
  | meaningless and should be avoided.

------------------------------------------------------------------------------
  Methods described in the following list of references were used in this FHI-aims run.
  If you publish the results, please make sure to cite these reference if they apply.
  FHI-aims is an academic code, and for our developers (often, Ph.D. students
  and postdocs), scientific credit in the community is essential.
  Thank you for helping us!

  For any use of FHI-aims, please cite:

    Volker Blum, Ralf Gehrke, Felix Hanke, Paula Havu, Ville Havu,
    Xinguo Ren, Karsten Reuter, and Matthias Scheffler
    'Ab initio molecular simulations with numeric atom-centered orbitals'
    Computer Physics Communications 180, 2175-2196 (2009)
    http://dx.doi.org/10.1016/j.cpc.2009.06.022


  The scalable eigensolver library ELPA was used in your run.
  ELPA is essential especially for large systems on hundreds or thousands of CPUs.
  For ELPA, please cite:

    Andreas Marek, Volker Blum, Rainer Johanni, Ville Havu, Bruno Lang,
    Thomas Auckenthaler, Alexander Heinecke, Hans-Joachim Bungartz, and Hermann Lederer,
    'The ELPA Library - Scalable Parallel Eigenvalue Solutions
    for Electronic Structure Theory and Computational Science'
    The Journal of Physics: Condensed Matter 26, 213201 (2014).
    http://dx.doi.org/10.1088/0953-8984/26/21/213201


  The ELSI infrastructure was used in your run to solve the Kohn-Sham electronic structure.
  Please check out http://elsi-interchange.org to learn more.
  If scalability is important for your project, please acknowledge ELSI by citing:

    V. W-z. Yu, F. Corsetti, A. Garcia, W. P. Huhn, M. Jacquelin, W. Jia,
    B. Lange, L. Lin, J. Lu, W. Mi, A. Seifitokaldani, A. Vazquez-Mayagoitia,
    C. Yang, H. Yang, and V. Blum
    'ELSI: A unified software interface for Kohn-Sham electronic structure solvers'
    Computer Physics Communications 222, 267-285 (2018).
    http://dx.doi.org/10.1016/j.cpc.2017.09.007


  For the real-space grid partitioning and parallelization used in this calculation, please cite:

    Ville Havu, Volker Blum, Paula Havu, and Matthias Scheffler,
    'Efficient O(N) integration for all-electron electronic structure calculation'
    'using numerically tabulated basis functions'
    Journal of Computational Physics 228, 8367-8379 (2009).
    http://dx.doi.org/10.1016/j.jcp.2009.08.008

  Of course, there are many other important community references, e.g., those cited in the
  above references. Our list is limited to references that describe implementations in the
  FHI-aims code. The reason is purely practical (length of this list) - please credit others as well.

------------------------------------------------------------
          Leaving FHI-aims.
          Date     :  20200616, Time     :  070109.813

          Computational steps:
          | Number of self-consistency cycles          :           16
          | Number of SCF (re)initializations          :            1

          Detailed time accounting                     :  max(cpu_time)    wall_clock(cpu1)
          | Total time                                 :        1.701 s           1.767 s
          | Preparation time                           :        0.166 s           0.167 s
          | Boundary condition initalization           :        0.000 s           0.000 s
          | Grid partitioning                          :        0.024 s           0.024 s
          | Preloading free-atom quantities on grid    :        0.003 s           0.003 s
          | Free-atom superposition energy             :        0.005 s           0.005 s
          | Total time for integrations                :        0.470 s           0.470 s
          | Total time for solution of K.-S. equations :        0.072 s           0.071 s
          | Total time for density & force components  :        0.422 s           0.393 s
          | Total time for mixing                      :        0.018 s           0.018 s
          | Total time for Hartree multipole update    :        0.021 s           0.020 s
          | Total time for Hartree multipole sum       :        0.427 s           0.429 s
          | Total time for total energy evaluation     :        0.003 s           0.003 s
          | Total time for vdW correction              :        0.008 s           0.006 s

          Partial memory accounting:
          | Residual value for overall tracked memory usage across tasks :           0.000 MB (should be 0.000 MB)
          | Peak values for overall tracked memory usage (after allocating hessian_basis_wave):
          |   Minimum:        2.062 MB (on task 16)
          |   Maximum:        2.092 MB (on task  7)
          |   Average:        2.071 MB
          | Largest tracked array allocation (hessian_basis_wave):
          |   Minimum:        1.050 MB (on task  3)
          |   Maximum:        1.068 MB (on task  7)
          |   Average:        1.060 MB
          Note:  These values currently only include a subset of arrays which are explicitly tracked.
          The "true" memory usage will be greater.

          Have a nice day.
------------------------------------------------------------
