  MPI-parallelism will be employed.
------------------------------------------------------------
          Invoking FHI-aims ...
          Version 171221_1
          Compiled on 2019/09/09 at 14:39:39 on host puhti-login2.bullx.

          When using FHI-aims, please cite the following reference:

          Volker Blum, Ralf Gehrke, Felix Hanke, Paula Havu,
          Ville Havu, Xinguo Ren, Karsten Reuter, and Matthias Scheffler,
          'Ab Initio Molecular Simulations with Numeric Atom-Centered Orbitals',
          Computer Physics Communications 180, 2175-2196 (2009)

          For any questions about FHI-aims, please visit the aimsclub website
          with its forums and wiki. Contributions to both the forums and the
          wiki are warmly encouraged - they are for you, and everyone is welcome there.

------------------------------------------------------------



  Date     :  20200710, Time     :  150958.626
  Time zero on CPU 1             :   0.114380000000000E-01  s.
  Internal wall clock time zero  :           363625798.626  s.

  FHI-aims created a unique identifier for this run for later identification
  aims_uuid : FB7AFEFA-C009-4066-AC97-1A8FE8FF8BE1

  Using        1 parallel tasks.
  Task        0 on host r18c42.bullx reporting.

  Performing system and environment tests:
  | Environment variable OMP_NUM_THREADS correctly set to 1.
  | Stacksize not measured: no C compiler
  | Checking for scalapack...
  | Testing pdtran()...
  | All pdtran() tests passed.

  Obtaining array dimensions for all initial allocations:
  
  -----------------------------------------------------------------------
  Parsing control.in (first pass over file, find array dimensions only).
  The contents of control.in will be repeated verbatim below
  unless switched off by setting 'verbatim_writeout .false.' .
  in the first line of control.in .
  -----------------------------------------------------------------------
  
  #########################################################################################
  #
  #  Volker Blum, FHI 2009 : Test run input file control.in for simple H2O
  #
  #########################################################################################
  #
  #  Physical model
  #
    xc                 pbe
    vdw_correction_hirshfeld
    spin               none
    relativistic       none
    charge             0.
  #
  #  SCF convergence
  #
    occupation_type    gaussian 0.01
    mixer              pulay
      n_max_pulay        10
      charge_mix_param   0.2
    sc_accuracy_rho    1E-5
    sc_accuracy_eev    1E-3
    sc_accuracy_etot   1E-6
    sc_accuracy_forces 1E-4
    sc_iter_limit      100
  #
  #  Relaxation
  #
  #  relax_geometry   bfgs 1.e-3
  #
  ################################################################################
  #
  #  FHI-aims code project
  #  VB, Fritz-Haber Institut, 2009
  #
  #  Suggested "light" defaults for H atom (to be pasted into control.in file)
  #  Be sure to double-check any results obtained with these settings for post-processing,
  #  e.g., with the "tight" defaults and larger basis sets.
  #
  ################################################################################
    species        H
  #     global species definitions
      nucleus             1
      mass                1.00794
  #
      l_hartree           4
  #
      cut_pot             3.5  1.5  1.0
      basis_dep_cutoff    1e-4
  #
      radial_base         24 5.0
      radial_multiplier   1
      angular_grids       specified
        division   0.2421   50
        division   0.3822  110
        division   0.4799  194
        division   0.5341  302
  #      division   0.5626  434
  #      division   0.5922  590
  #      division   0.6542  770
  #      division   0.6868 1202
  #      outer_grid  770
        outer_grid  302
  ################################################################################
  #
  #  Definition of "minimal" basis
  #
  ################################################################################
  #     valence basis states
      valence      1  s   1.
  #     ion occupancy
      ion_occ      1  s   0.5
  ################################################################################
  #
  #  Suggested additional basis functions. For production calculations,
  #  uncomment them one after another (the most important basis functions are
  #  listed first).
  #
  #  Basis constructed for dimers: 0.5 A, 0.7 A, 1.0 A, 1.5 A, 2.5 A
  #
  ################################################################################
  #  "First tier" - improvements: -1014.90 meV to -62.69 meV
       hydro 2 s 2.1
       hydro 2 p 3.5
  #  "Second tier" - improvements: -12.89 meV to -1.83 meV
  #     hydro 1 s 0.85
  #     hydro 2 p 3.7
  #     hydro 2 s 1.2
  #     hydro 3 d 7
  #  "Third tier" - improvements: -0.25 meV to -0.12 meV
  #     hydro 4 f 11.2
  #     hydro 3 p 4.8
  #     hydro 4 d 9
  #     hydro 3 s 3.2
  ################################################################################
  #
  #  FHI-aims code project
  #  VB, Fritz-Haber Institut, 2009
  #
  #  Suggested "light" defaults for C atom (to be pasted into control.in file)
  #  Be sure to double-check any results obtained with these settings for post-processing,
  #  e.g., with the "tight" defaults and larger basis sets.
  #
  ################################################################################
    species        C
  #     global species definitions
      nucleus             6
      mass                12.0107
  #
      l_hartree           4
  #
      cut_pot             3.5  1.5  1.0
      basis_dep_cutoff    1e-4
  #
      radial_base         34 5.0
      radial_multiplier   1
      angular_grids specified
        division   0.3326   50
        division   0.5710  110
        division   0.7727  194
        division   0.8772  302
  #      division   0.9334  434
  #      division   0.9625  590
  #      division   0.9924  770
  #      division   1.0230  974
  #      division   1.4589 1202
  #     outer_grid  974
       outer_grid 302
  ################################################################################
  #
  #  Definition of "minimal" basis
  #
  ################################################################################
  #     valence basis states
      valence      2  s   2.
      valence      2  p   2.
  #     ion occupancy
      ion_occ      2  s   1.
      ion_occ      2  p   1.
  ################################################################################
  #
  #  Suggested additional basis functions. For production calculations,
  #  uncomment them one after another (the most important basis functions are
  #  listed first).
  #
  #  Constructed for dimers: 1.0 A, 1.25 A, 1.5 A, 2.0 A, 3.0 A
  #
  ################################################################################
  #  "First tier" - improvements: -1214.57 meV to -155.61 meV
       hydro 2 p 1.7
       hydro 3 d 6
       hydro 2 s 4.9
  #  "Second tier" - improvements: -67.75 meV to -5.23 meV
  #     hydro 4 f 9.8
  #     hydro 3 p 5.2
  #     hydro 3 s 4.3
  #     hydro 5 g 14.4
  #     hydro 3 d 6.2
  #  "Third tier" - improvements: -2.43 meV to -0.60 meV
  #     hydro 2 p 5.6
  #     hydro 2 s 1.4
  #     hydro 3 d 4.9
  #     hydro 4 f 11.2
  #  "Fourth tier" - improvements: -0.39 meV to -0.18 meV
  #     hydro 2 p 2.1
  #     hydro 5 g 16.4
  #     hydro 4 d 13.2
  #     hydro 3 s 13.6
  #     hydro 4 f 17.6
  #  Further basis functions - improvements: -0.08 meV and below
  #     hydro 3 s 2
  #     hydro 3 p 6
  #     hydro 4 d 20
  ################################################################################
  #
  #  FHI-aims code project
  #  VB, Fritz-Haber Institut, 2009
  #
  #  Suggested "light" defaults for N atom (to be pasted into control.in file)
  #  Be sure to double-check any results obtained with these settings for post-processing,
  #  e.g., with the "tight" defaults and larger basis sets.
  #
  ################################################################################
    species        N
  #     global species definitions
      nucleus             7
      mass                14.0067
  #
      l_hartree           4
  #
      cut_pot             3.5  1.5  1.0
      basis_dep_cutoff    1e-4
  #
      radial_base         35 5.0
      radial_multiplier   1
      angular_grids       specified
        division   0.2599   50
        division   0.4601  110
        division   0.5885  194
        division   0.6503  302
  #      division   0.6939  434
  #      division   0.7396  590
  #      division   0.7632  770
  #      division   0.8122  974
  #      division   1.1604 1202
  #      outer_grid  974
        outer_grid  302
  ################################################################################
  #
  #  Definition of "minimal" basis
  #
  ################################################################################
  #     valence basis states
      valence      2  s   2.
      valence      2  p   3.
  #     ion occupancy
      ion_occ      2  s   1.
      ion_occ      2  p   2.
  ################################################################################
  #
  #  Suggested additional basis functions. For production calculations,
  #  uncomment them one after another (the most important basis functions are
  #  listed first).
  #
  #  Constructed for dimers: 1.0 A, 1.1 A, 1.5 A, 2.0 A, 3.0 A
  #
  ################################################################################
  #  "First tier" - improvements: -1193.42 meV to -220.60 meV
       hydro 2 p 1.8
       hydro 3 d 6.8
       hydro 3 s 5.8
  #  "Second tier" - improvements: -80.21 meV to -6.86 meV
  #     hydro 4 f 10.8
  #     hydro 3 p 5.8
  #     hydro 1 s 0.8
  #     hydro 5 g 16
  #     hydro 3 d 4.9
  #  "Third tier" - improvements: -4.29 meV to -0.53 meV
  #     hydro 3 s 16
  #     ionic 2 p auto
  #     hydro 3 d 6.6
  #     hydro 4 f 11.6
  #  "Fourth tier" - improvements: -0.75 meV to -0.25 meV
  #     hydro 2 p 4.5
  #     hydro 2 s 2.4
  #     hydro 5 g 14.4
  #     hydro 4 d 14.4
  #     hydro 4 f 16.8
  # Further basis functions - -0.21 meV and below
  #     hydro 3 p 14.8
  #     hydro 3 s 4.4
  #     hydro 3 d 19.6
  #     hydro 5 g 12.8
  ################################################################################
  #
  #  FHI-aims code project
  #  VB, Fritz-Haber Institut, 2009
  #
  #  Suggested "light" defaults for O atom (to be pasted into control.in file)
  #  Be sure to double-check any results obtained with these settings for post-processing,
  #  e.g., with the "tight" defaults and larger basis sets.
  #
  ################################################################################
    species        O
  #     global species definitions
      nucleus             8
      mass                15.9994
  #
      l_hartree           4
  #
      cut_pot             3.5  1.5  1.0
      basis_dep_cutoff    1e-4
  #
      radial_base         36 5.0
      radial_multiplier   1
       angular_grids specified
        division   0.2659   50
        division   0.4451  110
        division   0.6052  194
        division   0.7543  302
  #      division   0.8014  434
  #      division   0.8507  590
  #      division   0.8762  770
  #      division   0.9023  974
  #      division   1.2339 1202
  #      outer_grid 974
        outer_grid 302
  ################################################################################
  #
  #  Definition of "minimal" basis
  #
  ################################################################################
  #     valence basis states
      valence      2  s   2.
      valence      2  p   4.
  #     ion occupancy
      ion_occ      2  s   1.
      ion_occ      2  p   3.
  ################################################################################
  #
  #  Suggested additional basis functions. For production calculations,
  #  uncomment them one after another (the most important basis functions are
  #  listed first).
  #
  #  Constructed for dimers: 1.0 A, 1.208 A, 1.5 A, 2.0 A, 3.0 A
  #
  ################################################################################
  #  "First tier" - improvements: -699.05 meV to -159.38 meV
       hydro 2 p 1.8
       hydro 3 d 7.6
       hydro 3 s 6.4
  #  "Second tier" - improvements: -49.91 meV to -5.39 meV
  #     hydro 4 f 11.6
  #     hydro 3 p 6.2
  #     hydro 3 d 5.6
  #     hydro 5 g 17.6
  #     hydro 1 s 0.75
  #  "Third tier" - improvements: -2.83 meV to -0.50 meV
  #     ionic 2 p auto
  #     hydro 4 f 10.8
  #     hydro 4 d 4.7
  #     hydro 2 s 6.8
  #  "Fourth tier" - improvements: -0.40 meV to -0.12 meV
  #     hydro 3 p 5
  #     hydro 3 s 3.3
  #     hydro 5 g 15.6
  #     hydro 4 f 17.6
  #     hydro 4 d 14
  # Further basis functions - -0.08 meV and below
  #     hydro 3 s 2.1
  #     hydro 4 d 11.6
  #     hydro 3 p 16
  #     hydro 2 s 17.2
  
  -----------------------------------------------------------------------
  Completed first pass over input file control.in .
  -----------------------------------------------------------------------
  
  
  -----------------------------------------------------------------------
  Parsing geometry.in (first pass over file, find array dimensions only).
  The contents of geometry.in will be repeated verbatim below
  unless switched off by setting 'verbatim_writeout .false.' .
  in the first line of geometry.in .
  -----------------------------------------------------------------------
  
  atom  0.00000 0.00000 0.00000 C
  atom  1.09300 0.00000 0.00000 H
  atom  -0.47961 0.00000 -1.41207 N
  atom  -1.47660 -0.21861 -1.41888 H
  atom  -0.31889 0.92221 -1.81186 H
  atom  -0.49584 1.26211 0.72868 C
  atom  -1.58789 1.28919 0.74431 H
  atom  -0.13407 1.27425 1.75947 H
  atom  -0.13407 2.16087 0.22380 H
  atom  -0.39425 -1.28861 0.74398 C
  atom  -0.10189 -1.56493 1.88303 O
  atom  -1.10210 -2.13717 0.06896 O
  atom  -0.41821 -2.81403 -0.06941 H
  
  -----------------------------------------------------------------------
  Completed first pass over input file geometry.in .
  -----------------------------------------------------------------------
  

  Basic array size parameters:
  | Number of species                 :        4
  | Number of atoms                   :       13
  | Max. basis fn. angular momentum   :        2
  | Max. atomic/ionic basis occupied n:        2
  | Max. number of basis fn. types    :        2
  | Max. radial fns per species/type  :        3
  | Max. logarithmic grid size        :     1301
  | Max. radial integration grid size :       36
  | Max. angular integration grid size:      302
  | Max. angular grid division number :        8
  | Radial grid for Hartree potential :     1301
  | Number of spin channels           :        1

------------------------------------------------------------
          Reading file control.in.
------------------------------------------------------------
  XC: Using PBE gradient-corrected functionals.
  Spin treatment: No spin polarisation.
  Non-relativistic treatment of kinetic energy.
  Charge =   0.000000E+00: Neutral system requested explicitly.
  Occupation type: Gaussian broadening, width =   0.100000E-01 eV.
  Using pulay charge density mixing.
  Pulay mixing - number of memorized iterations:   10
  Charge density mixing - mixing parameter:     0.2000
  Convergence accuracy of self-consistent charge density:  0.1000E-04
  Convergence accuracy of sum of eigenvalues:  0.1000E-02
  Convergence accuracy of total energy:  0.1000E-05
  Convergence accuracy of forces:  0.1000E-03
  Maximum number of s.-c. iterations  :   100
 
  Reading configuration options for species H                   .
  | Found nuclear charge :   1.0000
  | Found atomic mass :    1.00794000000000      amu
  | Found l_max for Hartree potential  :   4
  | Found cutoff potl. onset [A], width [A], scale factor :    3.50000    1.50000    1.00000
  | Threshold for basis-dependent cutoff potential is   0.100000E-03
  | Found data for basic radial integration grid :    24 points, outermost radius =    5.000 A
  | Found multiplier for basic radial grid :   1
  | Found angular grid specification: user-specified.
  | Specified grid contains     5 separate shells.
  | Check grid settings after all constraints further below.
  | Found free-atom valence shell :  1 s   1.000
  | No ionic wave fns used. Skipping ion_occ.
  | Found hydrogenic basis function :  2 s   2.100
  | Found hydrogenic basis function :  2 p   3.500
  Species H                   : Missing cutoff potential type.
  Defaulting to exp(1/x)/(1-x)^2 type cutoff potential.
  Species H : No 'logarithmic' tag. Using default grid for free atom:
  | Default logarithmic grid data [bohr] : 0.1000E-03 0.1000E+03 0.1012E+01
  Species H : On-site basis accuracy parameter (for Gram-Schmidt orthonormalisation) not specified.
  Using default value basis_acc =  0.1000000E-03.
  Species H                   : Using default innermost maximum threshold i_radial=  2 for radial functions.
  Species H                   : Default cutoff onset for free atom density etc. : 0.35000000E+01 AA.
  Species H                   : Basic radial grid will be enhanced according to radial_multiplier =   1, to contain    24 grid points.
 
  Reading configuration options for species C                   .
  | Found nuclear charge :   6.0000
  | Found atomic mass :    12.0107000000000      amu
  | Found l_max for Hartree potential  :   4
  | Found cutoff potl. onset [A], width [A], scale factor :    3.50000    1.50000    1.00000
  | Threshold for basis-dependent cutoff potential is   0.100000E-03
  | Found data for basic radial integration grid :    34 points, outermost radius =    5.000 A
  | Found multiplier for basic radial grid :   1
  | Found angular grid specification: user-specified.
  | Specified grid contains     5 separate shells.
  | Check grid settings after all constraints further below.
  | Found free-atom valence shell :  2 s   2.000
  | Found free-atom valence shell :  2 p   2.000
  | No ionic wave fns used. Skipping ion_occ.
  | No ionic wave fns used. Skipping ion_occ.
  | Found hydrogenic basis function :  2 p   1.700
  | Found hydrogenic basis function :  3 d   6.000
  | Found hydrogenic basis function :  2 s   4.900
  Species C                   : Missing cutoff potential type.
  Defaulting to exp(1/x)/(1-x)^2 type cutoff potential.
  Species C : No 'logarithmic' tag. Using default grid for free atom:
  | Default logarithmic grid data [bohr] : 0.1000E-03 0.1000E+03 0.1012E+01
  Species C : On-site basis accuracy parameter (for Gram-Schmidt orthonormalisation) not specified.
  Using default value basis_acc =  0.1000000E-03.
  Species C                   : Using default innermost maximum threshold i_radial=  2 for radial functions.
  Species C                   : Default cutoff onset for free atom density etc. : 0.35000000E+01 AA.
  Species C                   : Basic radial grid will be enhanced according to radial_multiplier =   1, to contain    34 grid points.
 
  Reading configuration options for species N                   .
  | Found nuclear charge :   7.0000
  | Found atomic mass :    14.0067000000000      amu
  | Found l_max for Hartree potential  :   4
  | Found cutoff potl. onset [A], width [A], scale factor :    3.50000    1.50000    1.00000
  | Threshold for basis-dependent cutoff potential is   0.100000E-03
  | Found data for basic radial integration grid :    35 points, outermost radius =    5.000 A
  | Found multiplier for basic radial grid :   1
  | Found angular grid specification: user-specified.
  | Specified grid contains     5 separate shells.
  | Check grid settings after all constraints further below.
  | Found free-atom valence shell :  2 s   2.000
  | Found free-atom valence shell :  2 p   3.000
  | No ionic wave fns used. Skipping ion_occ.
  | No ionic wave fns used. Skipping ion_occ.
  | Found hydrogenic basis function :  2 p   1.800
  | Found hydrogenic basis function :  3 d   6.800
  | Found hydrogenic basis function :  3 s   5.800
  Species N                   : Missing cutoff potential type.
  Defaulting to exp(1/x)/(1-x)^2 type cutoff potential.
  Species N : No 'logarithmic' tag. Using default grid for free atom:
  | Default logarithmic grid data [bohr] : 0.1000E-03 0.1000E+03 0.1012E+01
  Species N : On-site basis accuracy parameter (for Gram-Schmidt orthonormalisation) not specified.
  Using default value basis_acc =  0.1000000E-03.
  Species N                   : Using default innermost maximum threshold i_radial=  2 for radial functions.
  Species N                   : Default cutoff onset for free atom density etc. : 0.35000000E+01 AA.
  Species N                   : Basic radial grid will be enhanced according to radial_multiplier =   1, to contain    35 grid points.
 
  Reading configuration options for species O                   .
  | Found nuclear charge :   8.0000
  | Found atomic mass :    15.9994000000000      amu
  | Found l_max for Hartree potential  :   4
  | Found cutoff potl. onset [A], width [A], scale factor :    3.50000    1.50000    1.00000
  | Threshold for basis-dependent cutoff potential is   0.100000E-03
  | Found data for basic radial integration grid :    36 points, outermost radius =    5.000 A
  | Found multiplier for basic radial grid :   1
  | Found angular grid specification: user-specified.
  | Specified grid contains     5 separate shells.
  | Check grid settings after all constraints further below.
  | Found free-atom valence shell :  2 s   2.000
  | Found free-atom valence shell :  2 p   4.000
  | No ionic wave fns used. Skipping ion_occ.
  | No ionic wave fns used. Skipping ion_occ.
  | Found hydrogenic basis function :  2 p   1.800
  | Found hydrogenic basis function :  3 d   7.600
  | Found hydrogenic basis function :  3 s   6.400
  Species O                   : Missing cutoff potential type.
  Defaulting to exp(1/x)/(1-x)^2 type cutoff potential.
  Species O : No 'logarithmic' tag. Using default grid for free atom:
  | Default logarithmic grid data [bohr] : 0.1000E-03 0.1000E+03 0.1012E+01
  Species O : On-site basis accuracy parameter (for Gram-Schmidt orthonormalisation) not specified.
  Using default value basis_acc =  0.1000000E-03.
  Species O                   : Using default innermost maximum threshold i_radial=  2 for radial functions.
  Species O                   : Default cutoff onset for free atom density etc. : 0.35000000E+01 AA.
  Species O                   : Basic radial grid will be enhanced according to radial_multiplier =   1, to contain    36 grid points.
 
  Finished reading input file 'control.in'. Consistency checks are next.
 
  MPI_IN_PLACE appears to work with this MPI implementation.
  | Keeping use_mpi_in_place .true. (see manual).
  Target number of points in a grid batch is not set. Defaulting to  100
  Method for grid partitioning is not set. Defaulting to parallel hash+maxmin partitioning.
  Batch size limit is not set. Defaulting to    200
  By default, will store active basis functions for each batch.
  If in need of memory, prune_basis_once .false. can be used to disable this option.
  communication_type for Hartree potential was not specified.
  Defaulting to calc_hartree .
  Pulay mixer: Number of initial linear mixing iterations not set.
  Defaulting to    0 iterations.
  Work space size for distributed Hartree potential not set.
  Defaulting to   0.200000E+03 MB.
  Algorithm-dependent basis array size parameters:
  | n_max_pulay                         :       10
  Presetting      1001 iterations before the initial mixing cycle
  is restarted anyway using the sc_init_iter criterion / keyword.
  Presetting a factor      1.000 between actual scf density residual
  and density convergence criterion sc_accuracy_rho below which sc_init_iter
  takes no effect.
  Geometry relaxation not requested: no relaxation will be performed.
  Handling of forces: Unphysical translation and rotation will be removed from forces.
  No accuracy limit for integral partition fn. given. Defaulting to  0.1000E-14.
  No threshold value for u(r) in integrations given. Defaulting to  0.1000E-05.
  No accuracy for occupation numbers given. Defaulting to  0.1000E-12.
  No threshold value for occupation numbers given. Defaulting to  0.0000E+00.
  No accuracy for fermi level given. Defaulting to  0.1000E-19.
  Maximum # of iterations to find E_F not set. Defaulting to  200.
  Preferred method for the eigenvalue solver ('KS_method') not specified in 'control.in'.
  Defaulting to serial version, 'lapack_fast'.
  Will not use alltoall communication since running on < 1024 CPUs.
  Threshold for basis singularities not set.
  Default threshold for basis singularities:  0.1000E-04
  partition_type (choice of integration weights) for integrals was not specified.
  | Using a version of the partition function of Stratmann and coworkers ('stratmann_smoother').
  | At each grid point, the set of atoms used to build the partition table is smoothly restricted to
  | only those atoms whose free-atom density would be non-zero at that grid point.
  Partitioning for Hartree potential was not defined. Using partition_type for integrals.
  | Adjusted default value of keyword multip_moments_threshold to:       0.10000000E-11
  | This value may affect high angular momentum components of the Hartree potential in periodic systems.
  No q(lm)/r^(l+1) cutoff set for long-range Hartree potential.
  | Using default value of  0.100000E-09 .
  | Verify using the multipole_threshold keyword.
  Defaulting to new monopole extrapolation.
  Density update method: automatic selection selected.
------------------------------------------------------------


------------------------------------------------------------
          Reading geometry description geometry.in.
------------------------------------------------------------
  Input structure read successfully.
  The structure contains       13 atoms,  and a total of         48.000 electrons.

  Input geometry:
  | No unit cell requested.
  | Atomic structure:
  |       Atom                x [A]            y [A]            z [A]
  |    1: Species C             0.00000000        0.00000000        0.00000000
  |    2: Species H             1.09300000        0.00000000        0.00000000
  |    3: Species N            -0.47961000        0.00000000       -1.41207000
  |    4: Species H            -1.47660000       -0.21861000       -1.41888000
  |    5: Species H            -0.31889000        0.92221000       -1.81186000
  |    6: Species C            -0.49584000        1.26211000        0.72868000
  |    7: Species H            -1.58789000        1.28919000        0.74431000
  |    8: Species H            -0.13407000        1.27425000        1.75947000
  |    9: Species H            -0.13407000        2.16087000        0.22380000
  |   10: Species C            -0.39425000       -1.28861000        0.74398000
  |   11: Species O            -0.10189000       -1.56493000        1.88303000
  |   12: Species O            -1.10210000       -2.13717000        0.06896000
  |   13: Species H            -0.41821000       -2.81403000       -0.06941000
  |

  | The smallest distance between any two atoms is         0.97210660 AA.
  |
  | The first atom of this pair is atom number                     12 .
  | The second atom of this pair is atom number                    13 .

  Number of empty states per atom not set in control.in - providing a guess from actual geometry.
  | Total number of empty states used during s.c.f. cycle:       29
  If you use a very high smearing, use empty_states (per atom!) in control.in to increase this value.

  Structure-dependent array size parameters: 
  | Maximum number of distinct radial functions  :       21
  | Maximum number of basis functions            :      119
  | Number of Kohn-Sham states (occupied + empty):       53
------------------------------------------------------------

------------------------------------------------------------
          Preparing all fixed parts of the calculation.
------------------------------------------------------------
  Determining machine precision:
    2.225073858507201E-308
  Setting up grids for atomic and cluster calculations.

  Creating wave function, potential, and density for free atoms.

  Species: H

  List of occupied orbitals and eigenvalues:
    n    l              occ      energy [Ha]    energy [eV]
    1    0           1.0000        -0.237589        -6.4651


  Species: C

  List of occupied orbitals and eigenvalues:
    n    l              occ      energy [Ha]    energy [eV]
    1    0           2.0000       -10.038835      -273.1706
    2    0           2.0000        -0.502696       -13.6791
    2    1           2.0000        -0.191971        -5.2238


  Species: N

  List of occupied orbitals and eigenvalues:
    n    l              occ      energy [Ha]    energy [eV]
    1    0           2.0000       -14.128000      -384.4424
    2    0           2.0000        -0.681077       -18.5330
    2    1           3.0000        -0.259788        -7.0692


  Species: O

  List of occupied orbitals and eigenvalues:
    n    l              occ      energy [Ha]    energy [eV]
    1    0           2.0000       -18.898188      -514.2459
    2    0           2.0000        -0.878505       -23.9053
    2    1           4.0000        -0.331779        -9.0282

  Creating fixed part of basis set: Ionic, confined, hydrogenic.
 
  H                    hydrogenic:
 
  List of hydrogenic basis orbitals: 
    n    l      effective z      eigenvalue [eV]  inner max. [A]     outer max. [A]     outer radius [A]   
    2    0         2.100000       -14.9728           0.193243           1.317208           4.583499
    2    1         3.500000       -41.6669           0.602369           0.602369           3.723403
 
 
  C                    hydrogenic:
 
  List of hydrogenic basis orbitals: 
    n    l      effective z      eigenvalue [eV]  inner max. [A]     outer max. [A]     outer radius [A]   
    2    1         1.700000        -9.7616           1.230570           1.230570           4.607917
    3    2         6.000000       -54.4224           0.792453           0.792453           3.883070
    2    0         4.900000       -81.6679           0.082559           0.562749           3.078220
 
 
  N                    hydrogenic:
 
  List of hydrogenic basis orbitals: 
    n    l      effective z      eigenvalue [eV]  inner max. [A]     outer max. [A]     outer radius [A]   
    2    1         1.800000       -10.9749           1.177451           1.177451           4.573712
    3    2         6.800000       -69.9026           0.704619           0.704619           3.538137
    3    0         5.800000       -50.8545           0.067388           1.191934           4.250239
 
 
  O                    hydrogenic:
 
  List of hydrogenic basis orbitals: 
    n    l      effective z      eigenvalue [eV]  inner max. [A]     outer max. [A]     outer radius [A]   
    2    1         1.800000       -10.9749           1.164242           1.164242           4.578029
    3    2         7.600000       -87.3180           0.624125           0.624125           3.251020
    3    0         6.400000       -61.9207           0.061167           1.081902           4.001998
 

  Adding cutoff potential to free-atom effective potential.
  Creating atomic-like basis functions for current effective potential.

  Species H                   :

  List of atomic basis orbitals and eigenvalues:
    n    l      energy [Ha]    energy [eV]    outer radius [A]
    1    0        -0.237589        -6.4651       4.527807


  Species C                   :

  List of atomic basis orbitals and eigenvalues:
    n    l      energy [Ha]    energy [eV]    outer radius [A]
    1    0       -10.038835      -273.1706       1.934409
    2    0        -0.502696       -13.6791       4.496620
    2    1        -0.191971        -5.2238       4.551928


  Species N                   :

  List of atomic basis orbitals and eigenvalues:
    n    l      energy [Ha]    energy [eV]    outer radius [A]
    1    0       -14.128000      -384.4424       1.637919
    2    0        -0.681077       -18.5330       4.463241
    2    1        -0.259788        -7.0692       4.518138


  Species O                   :

  List of atomic basis orbitals and eigenvalues:
    n    l      energy [Ha]    energy [eV]    outer radius [A]
    1    0       -18.898188      -514.2459       1.415765
    2    0        -0.878505       -23.9053       4.413171
    2    1        -0.331779        -9.0282       4.522403

  Assembling full basis from fixed parts.
  | Species H :   atomic orbital   1 s accepted.
  | Species H :    hydro orbital   2 s accepted.
  | Species H :    hydro orbital   2 p accepted.
  | Species C :   atomic orbital   1 s accepted.
  | Species C :    hydro orbital   2 s accepted.
  | Species C :   atomic orbital   2 s accepted.
  | Species C :   atomic orbital   2 p accepted.
  | Species C :    hydro orbital   2 p accepted.
  | Species C :    hydro orbital   3 d accepted.
  | Species N :   atomic orbital   1 s accepted.
  | Species N :    hydro orbital   3 s accepted.
  | Species N :   atomic orbital   2 s accepted.
  | Species N :   atomic orbital   2 p accepted.
  | Species N :    hydro orbital   2 p accepted.
  | Species N :    hydro orbital   3 d accepted.
  | Species O :   atomic orbital   1 s accepted.
  | Species O :    hydro orbital   3 s accepted.
  | Species O :   atomic orbital   2 s accepted.
  | Species O :   atomic orbital   2 p accepted.
  | Species O :    hydro orbital   2 p accepted.
  | Species O :    hydro orbital   3 d accepted.
 
  Basis size parameters after reduction:
  | Total number of radial functions:       21
  | Total number of basis functions :      119
 
  Per-task memory consumption for arrays in subroutine allocate_ext:
  |           5.250512MB.
  Testing on-site integration grid accuracy.
  |  Species  Function  <phi|h_atom|phi> (log., in eV)  <phi|h_atom|phi> (rad., in eV)
           1        1                 -6.4663192853                 -6.4651273558
           1        2                 13.7111246313                 13.7170609718
           1        3                 25.2673269279                 25.2674696378
           2        4               -273.1705927641               -273.1705631568
           2        5                -10.7109323383                -10.7107120029
           2        6                 17.4381822266                 17.4352413244
           2        7                 -5.2255326521                 -5.2270484734
           2        8                  8.6835629259                  8.6603288385
           2        9                 27.4952418996                 27.4953360207
           3       10               -384.4424306495               -384.4423701208
           3       11                 12.5842251816                 12.5842222903
           3       12                -15.7264628251                -15.7264433455
           3       13                 -7.0696854293                 -7.0701769954
           3       14                  8.8090390882                  8.7901077751
           3       15                 35.9586762123                 35.9588528632
           4       16               -514.2458688638               -514.2457643834
           4       17                 15.1795651126                 15.1795290741
           4       18                -21.5359799773                -21.5360846186
           4       19                 -9.0283069236                 -9.0284644067
           4       20                  8.3027758564                  8.2834874195
           4       21                 45.8339351984                 45.8338762259

  Preparing densities etc. for the partition functions (integrals / Hartree potential).

  Preparations completed.
  max(cpu_time)          :      0.146 s.
  Wall clock time (cpu1) :      0.147 s.
------------------------------------------------------------

------------------------------------------------------------
          Begin self-consistency loop: Initialization.

          Date     :  20200710, Time     :  150958.786
------------------------------------------------------------

  Initializing index lists of integration centers etc. from given atomic structure:
  | Number of centers in hartree potential         :        13
  | Number of centers in hartree multipole         :        13
  | Number of centers in electron density summation:        13
  | Number of centers in basis integrals           :        13
  | Number of centers in integrals                 :        13
  | Number of centers in hamiltonian               :        13
  Partitioning the integration grid into batches with parallel hashing+maxmin method.
  | Number of batches:      955
  | Maximal batch size:     139
  | Minimal batch size:      66
  | Average batch size:      72.928
  | Standard deviation of batch sizes:      17.683

  Integration load balanced across     1 MPI tasks.
  Work distribution over tasks is as follows:
  Task     0 has      69646 integration points.
  Initializing partition tables, free-atom densities, potentials, etc. across the integration grid (initialize_grid_storage).
  | initialize_grid_storage: Actual outermost partition radius vs. multipole_radius_free
  | (-- VB: in principle, multipole_radius_free should be larger, hence this output)
  | Species        1: Confinement radius =              4.999999999999999 AA, multipole_radius_free =              5.054417573612229 AA.
  | Species        1: outer_partition_radius set to              5.054417573612229 AA .
  | Species        2: Confinement radius =              4.999999999999999 AA, multipole_radius_free =              5.019602836301480 AA.
  | Species        2: outer_partition_radius set to              5.019602836301480 AA .
  | Species        3: Confinement radius =              4.999999999999999 AA, multipole_radius_free =              5.043624274424571 AA.
  | Species        3: outer_partition_radius set to              5.043624274424571 AA .
  | Species        4: Confinement radius =              4.999999999999999 AA, multipole_radius_free =              5.048384829883283 AA.
  | Species        4: outer_partition_radius set to              5.048384829883283 AA .
  | Original list of interatomic distances with          13 x         13 entries is created.
  | Net number of integration points:    69646
  | of which are non-zero points    :    59493
  Renormalizing the initial density to the exact electron count on the 3D integration grid.
  | Initial density: Formal number of electrons (from input files) :      48.0000000000
  | Integrated number of electrons on 3D grid     :      47.9998802606
  | Charge integration error                      :      -0.0001197394
  | Normalization factor for density and gradient :       1.0000024946
  Obtaining max. number of non-zero basis functions in each batch (get_n_compute_maxes).
  | Maximal number of non-zero basis functions:      119 in task     0
  Selecting the method for density update.
  Loop over occupied states selected for charge density update.
  Allocating        0.050 MB for KS_eigenvector
  Integrating Hamiltonian matrix: batch-based integration.
  Time summed over all CPUs for integration: real work        0.491 s, elapsed        0.491 s
  Integrating overlap matrix.
  Time summed over all CPUs for integration: real work        0.210 s, elapsed        0.210 s

  Updating Kohn-Sham eigenvalues and eigenvectors using ELSI and the ELPA eigensolver.
  Overlap matrix is nonsingular
  | Lowest eigenvalue of overlap  :  0.52E-02
  | Highest eigenvalue of overlap :  0.62E+01
  Finished singularity check of overlap matrix
  | Time :     0.002 s
  Finished Cholesky decomposition
  | Time :     0.000 s
  Finished transformation to standard eigenproblem
  | Time :     0.000 s
  Starting LAPACK eigensolver
  Finished solving standard eigenproblem
  | Time :     0.002 s
  Finished back-transformation of eigenvectors
  | Time :     0.000 s

  Obtaining occupation numbers and chemical potential using ELSI.
  | Chemical potential (Fermi level):    -9.05236684eV
  Writing Kohn-Sham eigenvalues.

  State    Occupation    Eigenvalue [Ha]    Eigenvalue [eV]
      1       2.00000         -19.007737         -517.22684
      2       2.00000         -18.977468         -516.40317
      3       2.00000         -14.245803         -387.64802
      4       2.00000         -10.166804         -276.65282
      5       2.00000         -10.141280         -275.95826
      6       2.00000         -10.131993         -275.70556
      7       2.00000          -1.184535          -32.23285
      8       2.00000          -1.095886          -29.82059
      9       2.00000          -0.991957          -26.99253
     10       2.00000          -0.858377          -23.35761
     11       2.00000          -0.759120          -20.65672
     12       2.00000          -0.684013          -18.61295
     13       2.00000          -0.626007          -17.03452
     14       2.00000          -0.602109          -16.38421
     15       2.00000          -0.580494          -15.79604
     16       2.00000          -0.567464          -15.44149
     17       2.00000          -0.553745          -15.06818
     18       2.00000          -0.541064          -14.72310
     19       2.00000          -0.525801          -14.30776
     20       2.00000          -0.494065          -13.44418
     21       2.00000          -0.460682          -12.53580
     22       2.00000          -0.425871          -11.58853
     23       2.00000          -0.399959          -10.88344
     24       2.00000          -0.391019          -10.64016
     25       0.00000          -0.162432           -4.42001
     26       0.00000          -0.061731           -1.67978
     27       0.00000          -0.027992           -0.76170
     28       0.00000          -0.026216           -0.71337
     29       0.00000          -0.004875           -0.13267
     30       0.00000           0.008178            0.22253
     31       0.00000           0.026841            0.73039
     32       0.00000           0.042046            1.14414
     33       0.00000           0.044136            1.20101
     34       0.00000           0.056463            1.53642
     35       0.00000           0.077597            2.11153
     36       0.00000           0.133875            3.64292
     37       0.00000           0.161234            4.38740
     38       0.00000           0.203871            5.54761
     39       0.00000           0.218118            5.93529
     40       0.00000           0.224479            6.10837
     41       0.00000           0.251156            6.83431
     42       0.00000           0.277057            7.53911
     43       0.00000           0.289268            7.87138
     44       0.00000           0.309413            8.41957
     45       0.00000           0.327082            8.90035
     46       0.00000           0.345198            9.39331
     47       0.00000           0.374001           10.17710
     48       0.00000           0.384439           10.46112
     49       0.00000           0.420124           11.43217
     50       0.00000           0.473713           12.89039
     51       0.00000           0.518568           14.11095
     52       0.00000           0.546813           14.87954
     53       0.00000           0.585778           15.93982

  Highest occupied state (VBM) at    -10.64016274 eV
  | Occupation number:      2.00000000

  Lowest unoccupied state (CBM) at    -4.42000882 eV
  | Occupation number:      0.00000000

  Overall HOMO-LUMO gap:      6.22015393 eV.
  Calculating total energy contributions from superposition of free atom densities.

  Total energy components:
  | Sum of eigenvalues            :        -188.82650753 Ha       -5138.23070020 eV
  | XC energy correction          :         -41.78530327 Ha       -1137.03595372 eV
  | XC potential correction       :          53.71533126 Ha        1461.66853253 eV
  | Free-atom electrostatic energy:        -146.86255224 Ha       -3996.33337764 eV
  | Hartree energy correction     :           0.00000000 Ha           0.00000000 eV
  | vdW energy correction         :           0.00000000 Ha           0.00000000 eV
  | Entropy correction            :           0.00000000 Ha           0.00000000 eV
  | ---------------------------
  | Total energy                  :        -323.75903178 Ha       -8809.93149902 eV
  | Total energy, T -> 0          :        -323.75903178 Ha       -8809.93149902 eV  <-- do not rely on this value for anything but (periodic) metals
  | Electronic free energy        :        -323.75903178 Ha       -8809.93149902 eV

  Derived energy quantities:
  | Kinetic energy                :         320.49015634 Ha        8720.98087256 eV
  | Electrostatic energy          :        -602.46388484 Ha      -16393.87641786 eV
  | Energy correction for multipole
  | error in Hartree potential    :           0.00000000 Ha           0.00000000 eV
  | Sum of eigenvalues per atom                           :        -395.24851540 eV
  | Total energy (T->0) per atom                          :        -677.68703839 eV  <-- do not rely on this value for anything but (periodic) metals
  | Electronic free energy per atom                       :        -677.68703839 eV
  Initialize hartree_potential_storage
  Max. number of atoms included in rho_multipole:           13

  End scf initialization - timings             :  max(cpu_time)    wall_clock(cpu1)
  | Time for scf. initialization               :        1.141 s           1.144 s
  | Boundary condition initialization          :        0.000 s           0.001 s
  | Integration                                :        0.700 s           0.701 s
  | Solution of K.-S. eqns.                    :        0.004 s           0.004 s
  | Grid partitioning                          :        0.110 s           0.110 s
  | Preloading free-atom quantities on grid    :        0.002 s           0.003 s
  | Free-atom superposition energy             :        0.084 s           0.084 s
  | Total energy evaluation                    :        0.000 s           0.001 s

  Partial memory accounting:
  | Current value for overall tracked memory usage on task 0  :           0.165 MB
  | Peak value for overall tracked memory usage on task 0     :           0.678 MB after allocating wave
  | Largest tracked array allocation on task 0 so far         :           0.132 MB  when allocating H_times_psi
  Note:  These values currently only include a subset of arrays which are explicitly tracked.
  The "true" memory usage will be greater.
------------------------------------------------------------

------------------------------------------------------------
          Begin self-consistency iteration #    1

  Date     :  20200710, Time     :  150959.930
------------------------------------------------------------
  Evaluating new KS density.
  Integration grid: deviation in total charge (<rho> - N_e) =   2.842171E-14
  Pulay mixing of updated and previous charge densities.

  Evaluating partitioned Hartree potential by multipole expansion.
  | Analytical far-field extrapolation by fixed multipoles:
  | Hartree multipole sum: apparent total charge =  -0.228028E-03
  Summing up the Hartree potential.
  Time summed over all CPUs for potential: real work        0.281 s, elapsed        0.281 s
  | RMS charge density error from multipole expansion :   0.590879E-02

  Integrating Hamiltonian matrix: batch-based integration.
  Time summed over all CPUs for integration: real work        0.490 s, elapsed        0.490 s

  Updating Kohn-Sham eigenvalues and eigenvectors using ELSI and the ELPA eigensolver.
  Finished Cholesky decomposition
  | Time :     0.000 s
  Finished transformation to standard eigenproblem
  | Time :     0.000 s
  Starting LAPACK eigensolver
  Finished solving standard eigenproblem
  | Time :     0.001 s
  Finished back-transformation of eigenvectors
  | Time :     0.000 s

  Obtaining occupation numbers and chemical potential using ELSI.
  | Chemical potential (Fermi level):    -7.89702136eV
  Writing Kohn-Sham eigenvalues.

  State    Occupation    Eigenvalue [Ha]    Eigenvalue [eV]
      1       2.00000         -18.896080         -514.18850
      2       2.00000         -18.840322         -512.67124
      3       2.00000         -14.095436         -383.55633
      4       2.00000         -10.117967         -275.32390
      5       2.00000         -10.062535         -273.81551
      6       2.00000         -10.031119         -272.96063
      7       2.00000          -1.133641          -30.84794
      8       2.00000          -1.033168          -28.11392
      9       2.00000          -0.921317          -25.07030
     10       2.00000          -0.792179          -21.55629
     11       2.00000          -0.707267          -19.24571
     12       2.00000          -0.637955          -17.35963
     13       2.00000          -0.570225          -15.51661
     14       2.00000          -0.541324          -14.73019
     15       2.00000          -0.523961          -14.25771
     16       2.00000          -0.505617          -13.75853
     17       2.00000          -0.493058          -13.41680
     18       2.00000          -0.476356          -12.96230
     19       2.00000          -0.464809          -12.64809
     20       2.00000          -0.438505          -11.93233
     21       2.00000          -0.400167          -10.88911
     22       2.00000          -0.368955          -10.03976
     23       2.00000          -0.329104           -8.95537
     24       2.00000          -0.314524           -8.55863
     25       0.00000          -0.127847           -3.47889
     26       0.00000          -0.037616           -1.02359
     27       0.00000          -0.006357           -0.17299
     28       0.00000           0.016485            0.44857
     29       0.00000           0.025780            0.70151
     30       0.00000           0.045982            1.25124
     31       0.00000           0.061106            1.66279
     32       0.00000           0.081573            2.21972
     33       0.00000           0.085705            2.33215
     34       0.00000           0.098529            2.68111
     35       0.00000           0.117656            3.20158
     36       0.00000           0.161916            4.40595
     37       0.00000           0.186255            5.06826
     38       0.00000           0.232649            6.33071
     39       0.00000           0.250237            6.80930
     40       0.00000           0.261790            7.12366
     41       0.00000           0.286037            7.78347
     42       0.00000           0.311110            8.46574
     43       0.00000           0.325295            8.85171
     44       0.00000           0.345313            9.39643
     45       0.00000           0.367764           10.00736
     46       0.00000           0.380955           10.36630
     47       0.00000           0.415350           11.30223
     48       0.00000           0.424312           11.54612
     49       0.00000           0.453671           12.34502
     50       0.00000           0.512045           13.93345
     51       0.00000           0.558623           15.20092
     52       0.00000           0.578611           15.74480
     53       0.00000           0.624833           17.00256

  Highest occupied state (VBM) at     -8.55862956 eV
  | Occupation number:      2.00000000

  Lowest unoccupied state (CBM) at    -3.47889490 eV
  | Occupation number:      0.00000000

  Overall HOMO-LUMO gap:      5.07973465 eV.

  Total energy components:
  | Sum of eigenvalues            :        -185.39117946 Ha       -5044.75066707 eV
  | XC energy correction          :         -42.11602088 Ha       -1146.03523789 eV
  | XC potential correction       :          54.14550946 Ha        1473.37427680 eV
  | Free-atom electrostatic energy:        -146.86255224 Ha       -3996.33337764 eV
  | Hartree energy correction     :          -3.34995160 Ha         -91.15682106 eV
  | vdW energy correction         :           0.00000000 Ha           0.00000000 eV
  | Entropy correction            :           0.00000000 Ha           0.00000000 eV
  | ---------------------------
  | Total energy                  :        -323.57419472 Ha       -8804.90182684 eV
  | Total energy, T -> 0          :        -323.57419472 Ha       -8804.90182684 eV  <-- do not rely on this value for anything but (periodic) metals
  | Electronic free energy        :        -323.57419472 Ha       -8804.90182684 eV

  Derived energy quantities:
  | Kinetic energy                :         322.29575331 Ha        8770.11366598 eV
  | Electrostatic energy          :        -603.75392715 Ha      -16428.98025494 eV
  | Energy correction for multipole
  | error in Hartree potential    :           0.01205646 Ha           0.32807284 eV
  | Sum of eigenvalues per atom                           :        -388.05774362 eV
  | Total energy (T->0) per atom                          :        -677.30014053 eV  <-- do not rely on this value for anything but (periodic) metals
  | Electronic free energy per atom                       :        -677.30014053 eV

  Self-consistency convergence accuracy:
  | Change of charge density      :  0.5894E+00
  | Change of sum of eigenvalues  :  0.9348E+02 eV
  | Change of total energy        :  0.5030E+01 eV

  End self-consistency iteration #     1       :  max(cpu_time)    wall_clock(cpu1)
  | Time for this iteration                    :        1.178 s           1.180 s
  | Charge density update                      :        0.391 s           0.391 s
  | Density mixing                             :        0.005 s           0.006 s
  | Hartree multipole update                   :        0.009 s           0.009 s
  | Hartree multipole summation                :        0.281 s           0.282 s
  | Integration                                :        0.489 s           0.489 s
  | Solution of K.-S. eqns.                    :        0.002 s           0.002 s
  | Total energy evaluation                    :        0.000 s           0.000 s

  Partial memory accounting:
  | Current value for overall tracked memory usage on task 0  :           0.165 MB
  | Peak value for overall tracked memory usage on task 0     :           0.695 MB after allocating gradient_basis_wave
  | Largest tracked array allocation on task 0 so far         :           0.397 MB  when allocating gradient_basis_wave
  Note:  These values currently only include a subset of arrays which are explicitly tracked.
  The "true" memory usage will be greater.
------------------------------------------------------------

------------------------------------------------------------
          Begin self-consistency iteration #    2

  Date     :  20200710, Time     :  151001.111
------------------------------------------------------------
  Evaluating new KS density.
  Integration grid: deviation in total charge (<rho> - N_e) =  -7.105427E-15
  Pulay mixing of updated and previous charge densities.

  Evaluating partitioned Hartree potential by multipole expansion.
  | Analytical far-field extrapolation by fixed multipoles:
  | Hartree multipole sum: apparent total charge =  -0.365802E-03
  Summing up the Hartree potential.
  Time summed over all CPUs for potential: real work        0.287 s, elapsed        0.287 s
  | RMS charge density error from multipole expansion :   0.140147E-01

  Integrating Hamiltonian matrix: batch-based integration.
  Time summed over all CPUs for integration: real work        0.488 s, elapsed        0.488 s

  Updating Kohn-Sham eigenvalues and eigenvectors using ELSI and the ELPA eigensolver.
  Finished Cholesky decomposition
  | Time :     0.000 s
  Finished transformation to standard eigenproblem
  | Time :     0.000 s
  Starting LAPACK eigensolver
  Finished solving standard eigenproblem
  | Time :     0.001 s
  Finished back-transformation of eigenvectors
  | Time :     0.000 s

  Obtaining occupation numbers and chemical potential using ELSI.
  | Chemical potential (Fermi level):    -2.37310697eV
  Highest occupied state (VBM) at     -6.44803454 eV
  | Occupation number:      2.00000000

  Lowest unoccupied state (CBM) at    -2.29127397 eV
  | Occupation number:      0.00000000

  Overall HOMO-LUMO gap:      4.15676056 eV.

  Checking to see if s.c.f. parameters should be adjusted.

  Total energy components:
  | Sum of eigenvalues            :        -181.78518227 Ha       -4946.62649108 eV
  | XC energy correction          :         -42.47737407 Ha       -1155.86815848 eV
  | XC potential correction       :          54.61400142 Ha        1486.12259162 eV
  | Free-atom electrostatic energy:        -146.86255224 Ha       -3996.33337764 eV
  | Hartree energy correction     :          -6.98313199 Ha        -190.02068970 eV
  | vdW energy correction         :           0.00000000 Ha           0.00000000 eV
  | Entropy correction            :          -0.00000000 Ha          -0.00000000 eV
  | ---------------------------
  | Total energy                  :        -323.49423916 Ha       -8802.72612527 eV
  | Total energy, T -> 0          :        -323.49423916 Ha       -8802.72612527 eV  <-- do not rely on this value for anything but (periodic) metals
  | Electronic free energy        :        -323.49423916 Ha       -8802.72612527 eV

  Derived energy quantities:
  | Kinetic energy                :         323.61970944 Ha        8806.14034534 eV
  | Electrostatic energy          :        -604.63657452 Ha      -16452.99831214 eV
  | Energy correction for multipole
  | error in Hartree potential    :           0.02659972 Ha           0.72381530 eV
  | Sum of eigenvalues per atom                           :        -380.50973008 eV
  | Total energy (T->0) per atom                          :        -677.13277887 eV  <-- do not rely on this value for anything but (periodic) metals
  | Electronic free energy per atom                       :        -677.13277887 eV

  Self-consistency convergence accuracy:
  | Change of charge density      :  0.3685E+00
  | Change of sum of eigenvalues  :  0.9812E+02 eV
  | Change of total energy        :  0.2176E+01 eV

  End self-consistency iteration #     2       :  max(cpu_time)    wall_clock(cpu1)
  | Time for this iteration                    :        1.169 s           1.176 s
  | Charge density update                      :        0.382 s           0.382 s
  | Density mixing                             :        0.007 s           0.007 s
  | Hartree multipole update                   :        0.009 s           0.009 s
  | Hartree multipole summation                :        0.281 s           0.287 s
  | Integration                                :        0.488 s           0.489 s
  | Solution of K.-S. eqns.                    :        0.002 s           0.002 s
  | Total energy evaluation                    :        0.000 s           0.000 s

  Partial memory accounting:
  | Current value for overall tracked memory usage on task 0  :           0.166 MB
  | Peak value for overall tracked memory usage on task 0     :           0.695 MB after allocating gradient_basis_wave
  | Largest tracked array allocation on task 0 so far         :           0.397 MB  when allocating gradient_basis_wave
  Note:  These values currently only include a subset of arrays which are explicitly tracked.
  The "true" memory usage will be greater.
------------------------------------------------------------

------------------------------------------------------------
          Begin self-consistency iteration #    3

  Date     :  20200710, Time     :  151002.288
------------------------------------------------------------
  Evaluating new KS density.
  Integration grid: deviation in total charge (<rho> - N_e) =  -2.842171E-14
  Pulay mixing of updated and previous charge densities.

  Evaluating partitioned Hartree potential by multipole expansion.
  | Analytical far-field extrapolation by fixed multipoles:
  | Hartree multipole sum: apparent total charge =  -0.460942E-03
  Summing up the Hartree potential.
  Time summed over all CPUs for potential: real work        0.280 s, elapsed        0.280 s
  | RMS charge density error from multipole expansion :   0.219885E-01

  Integrating Hamiltonian matrix: batch-based integration.
  Time summed over all CPUs for integration: real work        0.488 s, elapsed        0.488 s

  Updating Kohn-Sham eigenvalues and eigenvectors using ELSI and the ELPA eigensolver.
  Finished Cholesky decomposition
  | Time :     0.000 s
  Finished transformation to standard eigenproblem
  | Time :     0.000 s
  Starting LAPACK eigensolver
  Finished solving standard eigenproblem
  | Time :     0.002 s
  Finished back-transformation of eigenvectors
  | Time :     0.000 s

  Obtaining occupation numbers and chemical potential using ELSI.
  | Chemical potential (Fermi level):    -3.70050757eV
  Highest occupied state (VBM) at     -5.74911851 eV
  | Occupation number:      2.00000000

  Lowest unoccupied state (CBM) at    -1.64225884 eV
  | Occupation number:      0.00000000

  Overall HOMO-LUMO gap:      4.10685967 eV.

  Total energy components:
  | Sum of eigenvalues            :        -180.49744030 Ha       -4911.58524919 eV
  | XC energy correction          :         -42.62672398 Ha       -1159.93217615 eV
  | XC potential correction       :          54.80449236 Ha        1491.30611398 eV
  | Free-atom electrostatic energy:        -146.86255224 Ha       -3996.33337764 eV
  | Hartree energy correction     :          -8.29906283 Ha        -225.82898959 eV
  | vdW energy correction         :           0.00000000 Ha           0.00000000 eV
  | Entropy correction            :           0.00000000 Ha           0.00000000 eV
  | ---------------------------
  | Total energy                  :        -323.48128698 Ha       -8802.37367859 eV
  | Total energy, T -> 0          :        -323.48128698 Ha       -8802.37367859 eV  <-- do not rely on this value for anything but (periodic) metals
  | Electronic free energy        :        -323.48128698 Ha       -8802.37367859 eV

  Derived energy quantities:
  | Kinetic energy                :         323.19645633 Ha        8794.62304212 eV
  | Electrostatic energy          :        -604.05101933 Ha      -16437.06454456 eV
  | Energy correction for multipole
  | error in Hartree potential    :           0.03763566 Ha           1.02411841 eV
  | Sum of eigenvalues per atom                           :        -377.81424994 eV
  | Total energy (T->0) per atom                          :        -677.10566758 eV  <-- do not rely on this value for anything but (periodic) metals
  | Electronic free energy per atom                       :        -677.10566758 eV

  Self-consistency convergence accuracy:
  | Change of charge density      :  0.2061E+00
  | Change of sum of eigenvalues  :  0.3504E+02 eV
  | Change of total energy        :  0.3524E+00 eV

  End self-consistency iteration #     3       :  max(cpu_time)    wall_clock(cpu1)
  | Time for this iteration                    :        1.170 s           1.170 s
  | Charge density update                      :        0.382 s           0.381 s
  | Density mixing                             :        0.008 s           0.008 s
  | Hartree multipole update                   :        0.009 s           0.008 s
  | Hartree multipole summation                :        0.281 s           0.280 s
  | Integration                                :        0.488 s           0.489 s
  | Solution of K.-S. eqns.                    :        0.002 s           0.002 s
  | Total energy evaluation                    :        0.000 s           0.000 s

  Partial memory accounting:
  | Current value for overall tracked memory usage on task 0  :           0.166 MB
  | Peak value for overall tracked memory usage on task 0     :           0.695 MB after allocating gradient_basis_wave
  | Largest tracked array allocation on task 0 so far         :           0.397 MB  when allocating gradient_basis_wave
  Note:  These values currently only include a subset of arrays which are explicitly tracked.
  The "true" memory usage will be greater.
------------------------------------------------------------

------------------------------------------------------------
          Begin self-consistency iteration #    4

  Date     :  20200710, Time     :  151003.461
------------------------------------------------------------
  Evaluating new KS density.
  Integration grid: deviation in total charge (<rho> - N_e) =  -2.842171E-14
  Pulay mixing of updated and previous charge densities.

  Evaluating partitioned Hartree potential by multipole expansion.
  | Analytical far-field extrapolation by fixed multipoles:
  | Hartree multipole sum: apparent total charge =  -0.492955E-03
  Summing up the Hartree potential.
  Time summed over all CPUs for potential: real work        0.280 s, elapsed        0.280 s
  | RMS charge density error from multipole expansion :   0.254172E-01

  Integrating Hamiltonian matrix: batch-based integration.
  Time summed over all CPUs for integration: real work        0.488 s, elapsed        0.488 s

  Updating Kohn-Sham eigenvalues and eigenvectors using ELSI and the ELPA eigensolver.
  Finished Cholesky decomposition
  | Time :     0.000 s
  Finished transformation to standard eigenproblem
  | Time :     0.000 s
  Starting LAPACK eigensolver
  Finished solving standard eigenproblem
  | Time :     0.002 s
  Finished back-transformation of eigenvectors
  | Time :     0.000 s

  Obtaining occupation numbers and chemical potential using ELSI.
  | Chemical potential (Fermi level):    -3.60693172eV
  Highest occupied state (VBM) at     -5.59899229 eV
  | Occupation number:      2.00000000

  Lowest unoccupied state (CBM) at    -1.54551480 eV
  | Occupation number:      0.00000000

  Overall HOMO-LUMO gap:      4.05347749 eV.

  Total energy components:
  | Sum of eigenvalues            :        -180.34361071 Ha       -4907.39933321 eV
  | XC energy correction          :         -42.66497881 Ha       -1160.97314300 eV
  | XC potential correction       :          54.85267374 Ha        1492.61719587 eV
  | Free-atom electrostatic energy:        -146.86255224 Ha       -3996.33337764 eV
  | Hartree energy correction     :          -8.46185707 Ha        -230.25884621 eV
  | vdW energy correction         :           0.00000000 Ha           0.00000000 eV
  | Entropy correction            :           0.00000000 Ha           0.00000000 eV
  | ---------------------------
  | Total energy                  :        -323.48032509 Ha       -8802.34750418 eV
  | Total energy, T -> 0          :        -323.48032509 Ha       -8802.34750418 eV  <-- do not rely on this value for anything but (periodic) metals
  | Electronic free energy        :        -323.48032509 Ha       -8802.34750418 eV

  Derived energy quantities:
  | Kinetic energy                :         322.80931927 Ha        8784.08850687 eV
  | Electrostatic energy          :        -603.62466555 Ha      -16425.46286805 eV
  | Energy correction for multipole
  | error in Hartree potential    :           0.04192973 Ha           1.14096599 eV
  | Sum of eigenvalues per atom                           :        -377.49225640 eV
  | Total energy (T->0) per atom                          :        -677.10365417 eV  <-- do not rely on this value for anything but (periodic) metals
  | Electronic free energy per atom                       :        -677.10365417 eV

  Self-consistency convergence accuracy:
  | Change of charge density      :  0.6633E-01
  | Change of sum of eigenvalues  :  0.4186E+01 eV
  | Change of total energy        :  0.2617E-01 eV

  End self-consistency iteration #     4       :  max(cpu_time)    wall_clock(cpu1)
  | Time for this iteration                    :        1.172 s           1.173 s
  | Charge density update                      :        0.382 s           0.382 s
  | Density mixing                             :        0.009 s           0.010 s
  | Hartree multipole update                   :        0.009 s           0.009 s
  | Hartree multipole summation                :        0.281 s           0.281 s
  | Integration                                :        0.488 s           0.488 s
  | Solution of K.-S. eqns.                    :        0.002 s           0.003 s
  | Total energy evaluation                    :        0.000 s           0.000 s

  Partial memory accounting:
  | Current value for overall tracked memory usage on task 0  :           0.166 MB
  | Peak value for overall tracked memory usage on task 0     :           0.696 MB after allocating gradient_basis_wave
  | Largest tracked array allocation on task 0 so far         :           0.397 MB  when allocating gradient_basis_wave
  Note:  These values currently only include a subset of arrays which are explicitly tracked.
  The "true" memory usage will be greater.
------------------------------------------------------------

------------------------------------------------------------
          Begin self-consistency iteration #    5

  Date     :  20200710, Time     :  151004.637
------------------------------------------------------------
  Evaluating new KS density.
  Integration grid: deviation in total charge (<rho> - N_e) =  -1.421085E-14
  Pulay mixing of updated and previous charge densities.

  Evaluating partitioned Hartree potential by multipole expansion.
  | Analytical far-field extrapolation by fixed multipoles:
  | Hartree multipole sum: apparent total charge =  -0.486620E-03
  Summing up the Hartree potential.
  Time summed over all CPUs for potential: real work        0.281 s, elapsed        0.281 s
  | RMS charge density error from multipole expansion :   0.251879E-01

  Integrating Hamiltonian matrix: batch-based integration.
  Time summed over all CPUs for integration: real work        0.489 s, elapsed        0.489 s

  Updating Kohn-Sham eigenvalues and eigenvectors using ELSI and the ELPA eigensolver.
  Finished Cholesky decomposition
  | Time :     0.000 s
  Finished transformation to standard eigenproblem
  | Time :     0.000 s
  Starting LAPACK eigensolver
  Finished solving standard eigenproblem
  | Time :     0.002 s
  Finished back-transformation of eigenvectors
  | Time :     0.000 s

  Obtaining occupation numbers and chemical potential using ELSI.
  | Chemical potential (Fermi level):    -3.68804980eV
  Highest occupied state (VBM) at     -5.67925910 eV
  | Occupation number:      2.00000000

  Lowest unoccupied state (CBM) at    -1.63977224 eV
  | Occupation number:      0.00000000

  Overall HOMO-LUMO gap:      4.03948685 eV.

  Total energy components:
  | Sum of eigenvalues            :        -180.55737619 Ha       -4913.21618778 eV
  | XC energy correction          :         -42.63908318 Ha       -1160.26848717 eV
  | XC potential correction       :          54.81907076 Ha        1491.70281248 eV
  | Free-atom electrostatic energy:        -146.86255224 Ha       -3996.33337764 eV
  | Hartree energy correction     :          -8.24009757 Ha        -224.22446338 eV
  | vdW energy correction         :           0.00000000 Ha           0.00000000 eV
  | Entropy correction            :           0.00000000 Ha           0.00000000 eV
  | ---------------------------
  | Total energy                  :        -323.48003842 Ha       -8802.33970349 eV
  | Total energy, T -> 0          :        -323.48003842 Ha       -8802.33970349 eV  <-- do not rely on this value for anything but (periodic) metals
  | Electronic free energy        :        -323.48003842 Ha       -8802.33970349 eV

  Derived energy quantities:
  | Kinetic energy                :         322.68240854 Ha        8780.63509016 eV
  | Electrostatic energy          :        -603.52336378 Ha      -16422.70630648 eV
  | Energy correction for multipole
  | error in Hartree potential    :           0.04130181 Ha           1.12387938 eV
  | Sum of eigenvalues per atom                           :        -377.93970675 eV
  | Total energy (T->0) per atom                          :        -677.10305411 eV  <-- do not rely on this value for anything but (periodic) metals
  | Electronic free energy per atom                       :        -677.10305411 eV

  Self-consistency convergence accuracy:
  | Change of charge density      :  0.2010E-01
  | Change of sum of eigenvalues  : -0.5817E+01 eV
  | Change of total energy        :  0.7801E-02 eV

  End self-consistency iteration #     5       :  max(cpu_time)    wall_clock(cpu1)
  | Time for this iteration                    :        1.173 s           1.174 s
  | Charge density update                      :        0.382 s           0.382 s
  | Density mixing                             :        0.011 s           0.011 s
  | Hartree multipole update                   :        0.008 s           0.009 s
  | Hartree multipole summation                :        0.281 s           0.281 s
  | Integration                                :        0.489 s           0.488 s
  | Solution of K.-S. eqns.                    :        0.002 s           0.002 s
  | Total energy evaluation                    :        0.000 s           0.000 s

  Partial memory accounting:
  | Current value for overall tracked memory usage on task 0  :           0.166 MB
  | Peak value for overall tracked memory usage on task 0     :           0.696 MB after allocating gradient_basis_wave
  | Largest tracked array allocation on task 0 so far         :           0.397 MB  when allocating gradient_basis_wave
  Note:  These values currently only include a subset of arrays which are explicitly tracked.
  The "true" memory usage will be greater.
------------------------------------------------------------

------------------------------------------------------------
          Begin self-consistency iteration #    6

  Date     :  20200710, Time     :  151005.814
------------------------------------------------------------
  Evaluating new KS density.
  Integration grid: deviation in total charge (<rho> - N_e) =   2.842171E-14
  Pulay mixing of updated and previous charge densities.

  Evaluating partitioned Hartree potential by multipole expansion.
  | Analytical far-field extrapolation by fixed multipoles:
  | Hartree multipole sum: apparent total charge =  -0.491037E-03
  Summing up the Hartree potential.
  Time summed over all CPUs for potential: real work        0.281 s, elapsed        0.281 s
  | RMS charge density error from multipole expansion :   0.256610E-01

  Integrating Hamiltonian matrix: batch-based integration.
  Time summed over all CPUs for integration: real work        0.488 s, elapsed        0.488 s

  Updating Kohn-Sham eigenvalues and eigenvectors using ELSI and the ELPA eigensolver.
  Finished Cholesky decomposition
  | Time :     0.000 s
  Finished transformation to standard eigenproblem
  | Time :     0.000 s
  Starting LAPACK eigensolver
  Finished solving standard eigenproblem
  | Time :     0.002 s
  Finished back-transformation of eigenvectors
  | Time :     0.000 s

  Obtaining occupation numbers and chemical potential using ELSI.
  | Chemical potential (Fermi level):    -3.68087446eV
  Highest occupied state (VBM) at     -5.63216540 eV
  | Occupation number:      2.00000000

  Lowest unoccupied state (CBM) at    -1.64012104 eV
  | Occupation number:      0.00000000

  Overall HOMO-LUMO gap:      3.99204437 eV.

  Total energy components:
  | Sum of eigenvalues            :        -180.52884221 Ha       -4912.43973873 eV
  | XC energy correction          :         -42.64165783 Ha       -1160.33854702 eV
  | XC potential correction       :          54.82238748 Ha        1491.79306498 eV
  | Free-atom electrostatic energy:        -146.86255224 Ha       -3996.33337764 eV
  | Hartree energy correction     :          -8.26933659 Ha        -225.02009740 eV
  | vdW energy correction         :           0.00000000 Ha           0.00000000 eV
  | Entropy correction            :           0.00000000 Ha           0.00000000 eV
  | ---------------------------
  | Total energy                  :        -323.48000139 Ha       -8802.33869582 eV
  | Total energy, T -> 0          :        -323.48000139 Ha       -8802.33869582 eV  <-- do not rely on this value for anything but (periodic) metals
  | Electronic free energy        :        -323.48000139 Ha       -8802.33869582 eV

  Derived energy quantities:
  | Kinetic energy                :         322.61679363 Ha        8778.84961772 eV
  | Electrostatic energy          :        -603.45513719 Ha      -16420.84976651 eV
  | Energy correction for multipole
  | error in Hartree potential    :           0.04179920 Ha           1.13741406 eV
  | Sum of eigenvalues per atom                           :        -377.87997990 eV
  | Total energy (T->0) per atom                          :        -677.10297660 eV  <-- do not rely on this value for anything but (periodic) metals
  | Electronic free energy per atom                       :        -677.10297660 eV

  Self-consistency convergence accuracy:
  | Change of charge density      :  0.1047E-01
  | Change of sum of eigenvalues  :  0.7764E+00 eV
  | Change of total energy        :  0.1008E-02 eV

  End self-consistency iteration #     6       :  max(cpu_time)    wall_clock(cpu1)
  | Time for this iteration                    :        1.176 s           1.178 s
  | Charge density update                      :        0.383 s           0.384 s
  | Density mixing                             :        0.012 s           0.012 s
  | Hartree multipole update                   :        0.009 s           0.009 s
  | Hartree multipole summation                :        0.281 s           0.282 s
  | Integration                                :        0.489 s           0.488 s
  | Solution of K.-S. eqns.                    :        0.002 s           0.002 s
  | Total energy evaluation                    :        0.000 s           0.000 s

  Partial memory accounting:
  | Current value for overall tracked memory usage on task 0  :           0.166 MB
  | Peak value for overall tracked memory usage on task 0     :           0.696 MB after allocating gradient_basis_wave
  | Largest tracked array allocation on task 0 so far         :           0.397 MB  when allocating gradient_basis_wave
  Note:  These values currently only include a subset of arrays which are explicitly tracked.
  The "true" memory usage will be greater.
------------------------------------------------------------

------------------------------------------------------------
          Begin self-consistency iteration #    7

  Date     :  20200710, Time     :  151006.995
------------------------------------------------------------
  Evaluating new KS density.
  Integration grid: deviation in total charge (<rho> - N_e) =   0.000000E+00
  Pulay mixing of updated and previous charge densities.

  Evaluating partitioned Hartree potential by multipole expansion.
  | Analytical far-field extrapolation by fixed multipoles:
  | Hartree multipole sum: apparent total charge =  -0.491503E-03
  Summing up the Hartree potential.
  Time summed over all CPUs for potential: real work        0.281 s, elapsed        0.281 s
  | RMS charge density error from multipole expansion :   0.257496E-01

  Integrating Hamiltonian matrix: batch-based integration.
  Time summed over all CPUs for integration: real work        0.489 s, elapsed        0.489 s

  Updating Kohn-Sham eigenvalues and eigenvectors using ELSI and the ELPA eigensolver.
  Finished Cholesky decomposition
  | Time :     0.000 s
  Finished transformation to standard eigenproblem
  | Time :     0.000 s
  Starting LAPACK eigensolver
  Finished solving standard eigenproblem
  | Time :     0.001 s
  Finished back-transformation of eigenvectors
  | Time :     0.000 s

[...]
  |   Hirshfeld dipole moment :      0.05841764
  |   Hirshfeld second moments:      0.00992065      -0.03119547      -0.02074672
  |                                 -0.03119547      -0.01501190       0.01115782
  |                                 -0.02074672       0.01115782      -0.01406963
  ----------------------------------------------------------------------
  | Atom    12: O
  |   Hirshfeld charge        :     -0.16170815
  |   Free atom volume        :     23.61338643
  |   Hirshfeld volume        :     20.81526330
  |   Hirshfeld dipole vector :      0.03426196       0.01473807       0.01102877
  |   Hirshfeld dipole moment :      0.03889378
  |   Hirshfeld second moments:      0.05450834      -0.02888010      -0.00740126
  |                                 -0.02888010       0.09294680       0.02565227
  |                                 -0.00740126       0.02565227       0.03028079
  ----------------------------------------------------------------------
  | Atom    13: H
  |   Hirshfeld charge        :      0.18969605
  |   Free atom volume        :      9.95071624
  |   Hirshfeld volume        :      6.11336316
  |   Hirshfeld dipole vector :      0.08546705      -0.09441998      -0.03069745
  |   Hirshfeld dipole moment :      0.13100413
  |   Hirshfeld second moments:      0.12071625      -0.00025683      -0.00126491
  |                                 -0.00025683       0.12673806       0.00714848
  |                                 -0.00126491       0.00714848       0.10383412
  ----------------------------------------------------------------------


  Total energy components:
  | Sum of eigenvalues            :        -180.53289132 Ha       -4912.54992057 eV
  | XC energy correction          :         -42.63785979 Ha       -1160.23519691 eV
  | XC potential correction       :          54.81755607 Ha        1491.66159556 eV
  | Free-atom electrostatic energy:        -146.86255224 Ha       -3996.33337764 eV
  | Hartree energy correction     :          -8.26422855 Ha        -224.88110063 eV
  | vdW energy correction         :          -0.00323218 Ha          -0.08795202 eV
  | Entropy correction            :           0.00000000 Ha           0.00000000 eV
  | ---------------------------
  | Total energy                  :        -323.48320800 Ha       -8802.42595220 eV
  | Total energy, T -> 0          :        -323.48320800 Ha       -8802.42595220 eV  <-- do not rely on this value for anything but (periodic) metals
  | Electronic free energy        :        -323.48320800 Ha       -8802.42595220 eV

  Derived energy quantities:
  | Kinetic energy                :         322.57789218 Ha        8777.79105531 eV
  | Electrostatic energy          :        -603.42000822 Ha      -16419.89385858 eV
  | Energy correction for multipole
  | error in Hartree potential    :           0.04183620 Ha           1.13842088 eV
  | Sum of eigenvalues per atom                           :        -377.88845543 eV
  | Total energy (T->0) per atom                          :        -677.10968863 eV  <-- do not rely on this value for anything but (periodic) metals
  | Electronic free energy per atom                       :        -677.10968863 eV

  atomic forces [eV/Ang]:
  -----------------------
  atom #    1
   Hellmann-Feynman              : -0.215562E+00  0.838286E+00  0.113872E+01
   Ionic forces                  :  0.000000E+00  0.000000E+00  0.000000E+00
   Multipole                     :  0.899102E-02  0.341590E+00 -0.285841E+00
   Pulay + GGA                   : -0.732954E+00 -0.523493E+00 -0.134573E+01
   Van der Waals                 :  0.298559E-02  0.784262E-02 -0.128668E-02
   ----------------------------------------------------------------
   Total forces(   1)            : -0.936539E+00  0.664226E+00 -0.494136E+00
  atom #    2
   Hellmann-Feynman              :  0.316012E+00 -0.173763E-01 -0.116813E-01
   Ionic forces                  :  0.000000E+00  0.000000E+00  0.000000E+00
   Multipole                     :  0.173248E+00  0.126322E-01 -0.306895E-01
   Pulay + GGA                   : -0.147867E+00  0.625577E-02  0.846460E-02
   Van der Waals                 :  0.475208E-02 -0.796596E-02 -0.516519E-02
   ----------------------------------------------------------------
   Total forces(   2)            :  0.346146E+00 -0.645425E-02 -0.390714E-01
  atom #    3
   Hellmann-Feynman              :  0.604328E+01 -0.901941E+01 -0.518911E+01
   Ionic forces                  :  0.000000E+00  0.000000E+00  0.000000E+00
   Multipole                     : -0.177370E+00  0.864802E-01 -0.922731E+00
   Pulay + GGA                   : -0.523776E+01  0.815690E+01  0.662806E+01
   Van der Waals                 :  0.353097E-02 -0.751646E-02 -0.707282E-02
   ----------------------------------------------------------------
   Total forces(   3)            :  0.631678E+00 -0.783541E+00  0.509143E+00
  atom #    4
   Hellmann-Feynman              : -0.189522E+00  0.229024E+00 -0.478973E-01
   Ionic forces                  :  0.000000E+00  0.000000E+00  0.000000E+00
   Multipole                     : -0.976891E-01 -0.228508E-02 -0.541959E-01
   Pulay + GGA                   :  0.239707E+00 -0.604323E-01 -0.465754E-01
   Van der Waals                 : -0.651723E-04 -0.241317E-02 -0.903398E-02
   ----------------------------------------------------------------
   Total forces(   4)            : -0.475692E-01  0.163893E+00 -0.157703E+00
  atom #    5
   Hellmann-Feynman              : -0.140947E+00  0.282709E+00  0.794227E-03
   Ionic forces                  :  0.000000E+00  0.000000E+00  0.000000E+00
   Multipole                     : -0.369300E-01  0.603266E-01 -0.735052E-01
   Pulay + GGA                   :  0.100573E-01 -0.235273E+00  0.310756E-01
   Van der Waals                 : -0.429992E-02 -0.559410E-02 -0.408866E-02
   ----------------------------------------------------------------
   Total forces(   5)            : -0.172119E+00  0.102168E+00 -0.457240E-01
  atom #    6
   Hellmann-Feynman              :  0.297775E+00 -0.916237E+00  0.735055E+00
   Ionic forces                  :  0.000000E+00  0.000000E+00  0.000000E+00
   Multipole                     : -0.110684E+00  0.619822E+00  0.193089E+00
   Pulay + GGA                   :  0.859220E-01 -0.845144E-01 -0.490024E+00
   Van der Waals                 : -0.617720E-03  0.107143E-01  0.701447E-02
   ----------------------------------------------------------------
   Total forces(   6)            :  0.272395E+00 -0.370215E+00  0.445135E+00
  atom #    7
   Hellmann-Feynman              : -0.219156E+00 -0.549871E-01 -0.476541E-01
   Ionic forces                  :  0.000000E+00  0.000000E+00  0.000000E+00
   Multipole                     : -0.120354E+00  0.484826E-01  0.316580E-01
   Pulay + GGA                   :  0.113706E+00  0.914310E-02  0.914864E-02
   Van der Waals                 : -0.163782E-02  0.538009E-02  0.689855E-02
   ----------------------------------------------------------------
   Total forces(   7)            : -0.227442E+00  0.801871E-02  0.510401E-04
  atom #    8
   Hellmann-Feynman              :  0.671544E-01  0.664291E-01  0.246905E+00
   Ionic forces                  :  0.000000E+00  0.000000E+00  0.000000E+00
   Multipole                     :  0.156436E-01  0.614423E-01  0.124232E+00
   Pulay + GGA                   : -0.459380E-01 -0.394870E-01 -0.101569E+00
   Van der Waals                 : -0.286017E-02  0.114405E-01  0.572930E-03
   ----------------------------------------------------------------
   Total forces(   8)            :  0.339998E-01  0.998249E-01  0.270140E+00
  atom #    9
   Hellmann-Feynman              :  0.111641E+00  0.568027E-01 -0.186523E+00
   Ionic forces                  :  0.000000E+00  0.000000E+00  0.000000E+00
   Multipole                     :  0.217829E-01  0.131276E+00 -0.702265E-02
   Pulay + GGA                   : -0.414412E-01 -0.696196E-01  0.765997E-01
   Van der Waals                 : -0.265949E-02  0.557735E-02  0.785791E-02
   ----------------------------------------------------------------
   Total forces(   9)            :  0.893233E-01  0.124037E+00 -0.109088E+00
  atom #   10
   Hellmann-Feynman              :  0.319369E+01  0.534857E+01  0.149884E+01
   Ionic forces                  :  0.000000E+00  0.000000E+00  0.000000E+00
   Multipole                     : -0.287967E-01 -0.118290E+00  0.375253E+00
   Pulay + GGA                   : -0.206412E+01 -0.261254E+01 -0.910531E-01
   Van der Waals                 :  0.459044E-02 -0.114932E-01 -0.550179E-03
   ----------------------------------------------------------------
   Total forces(  10)            :  0.110537E+01  0.260624E+01  0.178249E+01
  atom #   11
   Hellmann-Feynman              :  0.401207E+01 -0.213447E+01  0.137446E+02
   Ionic forces                  :  0.000000E+00  0.000000E+00  0.000000E+00
   Multipole                     :  0.600186E-01 -0.710231E+00  0.816209E+00
   Pulay + GGA                   : -0.306950E+01  0.355915E+01 -0.135078E+02
   Van der Waals                 : -0.366136E-02 -0.109464E-01  0.325106E-02
   ----------------------------------------------------------------
   Total forces(  11)            :  0.998928E+00  0.703505E+00  0.105617E+01
  atom #   12
   Hellmann-Feynman              : -0.143040E+02 -0.311467E+00 -0.750967E+01
   Ionic forces                  :  0.000000E+00  0.000000E+00  0.000000E+00
   Multipole                     : -0.104704E+01 -0.112400E+01 -0.370476E+00
   Pulay + GGA                   :  0.138675E+02 -0.790030E+00  0.497199E+01
   Van der Waals                 :  0.122652E-02  0.453547E-02  0.548028E-02
   ----------------------------------------------------------------
   Total forces(  12)            : -0.148234E+01 -0.222096E+01 -0.290268E+01
  atom #   13
   Hellmann-Feynman              : -0.341310E+00 -0.132208E+01 -0.337593E+00
   Ionic forces                  :  0.000000E+00  0.000000E+00  0.000000E+00
   Multipole                     :  0.453437E-01 -0.398691E-01 -0.331023E-01
   Pulay + GGA                   : -0.313761E+00  0.268089E+00  0.563109E-01
   Van der Waals                 : -0.128395E-02  0.439007E-03 -0.387768E-02
   ----------------------------------------------------------------
   Total forces(  13)            : -0.611012E+00 -0.109342E+01 -0.318263E+00

  Timings for VdW correction (Tkatchenko-Scheffler 2009 or later):
  | CPU time:        0.089 s, Wall clock time:        0.090 s.
  Removing unitary transformations (pure translations, rotations) from forces on atoms.
  Atomic forces before filtering:
  | Net force on center of mass :   0.814139E-03 -0.266949E-02 -0.353648E-02 eV/A
  | Net torque on center of mass:  -0.336133E-02  0.143344E-02  0.120002E-02 eV
  Atomic forces after filtering:
  | Net force on center of mass :   0.356812E-15 -0.535218E-15 -0.892031E-16 eV/A
  | Net torque on center of mass:  -0.590053E-15  0.564238E-15  0.169935E-14 eV

  Energy and forces in a compact form:
  | Total energy uncorrected      :         -0.880242595220169E+04 eV
  | Total energy corrected        :         -0.880242595220169E+04 eV  <-- do not rely on this value for anything but (periodic) metals
  | Electronic free energy        :         -0.880242595220169E+04 eV
  Total atomic forces (unitary forces cleaned) [eV/Ang]:
  |   1         -0.936591566188663E+00          0.664426358978904E+00         -0.493829495563832E+00
  |   2          0.346092887369118E+00         -0.628894346683657E-02         -0.386943671151596E-01
  |   3          0.631716372478232E+00         -0.783216793906280E+00          0.509418105337724E+00
  |   4         -0.475370434992510E-01          0.164249879748466E+00         -0.157508737270180E+00
  |   5         -0.172025327699862E+00          0.102517888227395E+00         -0.453672579031721E-01
  |   6          0.272335371193482E+00         -0.370055104770755E+00          0.445506235738021E+00
  |   7         -0.227501258814318E+00          0.821232364874209E-02          0.353905303799102E-03
  |   8          0.338738817555621E-01          0.998937713602771E-01          0.270536268282965E+00
  |   9          0.893251308307841E-01          0.124224120503209E+00         -0.108623882599832E+00
  |  10          0.110522753675720E+01          0.260639767197237E+01          0.178266979276236E+01
  |  11          0.998703175706501E+00          0.703563489299907E+00          0.105635386962324E+01
  |  12         -0.148246903932920E+01         -0.222072646056787E+01         -0.290261424950690E+01
  |  13         -0.611150120559590E+00         -0.109319820102753E+01         -0.318200187089029E+00

  ------------------------------------ 
  Start decomposition of the XC Energy 
  ------------------------------------ 
  X and C from original XC functional choice 
  Hartree-Fock Energy :          0.000000000 Ha              0.000000000 eV
  X Energy            :        -41.037649533 Ha          -1116.691260421 eV
  C Energy            :         -1.600210254 Ha            -43.543936490 eV
  Total XC Energy     :        -42.637859787 Ha          -1160.235196911 eV
  ------------------------------------ 
  LDA X and C from self-consistent density 
  X Energy LDA        :        -37.255874697 Ha          -1013.783931269 eV
  C Energy LDA        :         -3.138494222 Ha            -85.402773013 eV
  ------------------------------------ 
  End decomposition of the XC Energy 
  ------------------------------------ 

------------------------------------------------------------

------------------------------------------------------------------------------
  Final output of selected total energy values:

  The following output summarizes some interesting total energy values
  at the end of a run (AFTER all relaxation, molecular dynamics, etc.).

  | Total energy of the DFT / Hartree-Fock s.c.f. calculation      :          -8802.425952202 eV
  | Final zero-broadening corrected energy (caution - metals only) :          -8802.425952202 eV
  | For reference only, the value of 1 Hartree used in FHI-aims is :             27.211384500 eV

  Before relying on these values, please be sure to understand exactly which
  total energy value is referred to by a given number. Different objects may
  all carry the same name 'total energy'. Definitions:

  Total energy of the DFT / Hartree-Fock s.c.f. calculation:
  | Note that this energy does not include ANY quantities calculated after the
  | s.c.f. cycle, in particular not ANY RPA, MP2, etc. many-body perturbation terms.

  Final zero-broadening corrected energy:
  | For metallic systems only, a broadening of the occupation numbers at the Fermi
  | level can be extrapolated back to zero broadening by an electron-gas inspired
  | formula. For all systems that are not real metals, this value can be
  | meaningless and should be avoided.

------------------------------------------------------------------------------
  Methods described in the following list of references were used in this FHI-aims run.
  If you publish the results, please make sure to cite these reference if they apply.
  FHI-aims is an academic code, and for our developers (often, Ph.D. students
  and postdocs), scientific credit in the community is essential.
  Thank you for helping us!

  For any use of FHI-aims, please cite:

    Volker Blum, Ralf Gehrke, Felix Hanke, Paula Havu, Ville Havu,
    Xinguo Ren, Karsten Reuter, and Matthias Scheffler
    'Ab initio molecular simulations with numeric atom-centered orbitals'
    Computer Physics Communications 180, 2175-2196 (2009)
    http://dx.doi.org/10.1016/j.cpc.2009.06.022


  The scalable eigensolver library ELPA was used in your run.
  ELPA is essential especially for large systems on hundreds or thousands of CPUs.
  For ELPA, please cite:

    Andreas Marek, Volker Blum, Rainer Johanni, Ville Havu, Bruno Lang,
    Thomas Auckenthaler, Alexander Heinecke, Hans-Joachim Bungartz, and Hermann Lederer,
    'The ELPA Library - Scalable Parallel Eigenvalue Solutions
    for Electronic Structure Theory and Computational Science'
    The Journal of Physics: Condensed Matter 26, 213201 (2014).
    http://dx.doi.org/10.1088/0953-8984/26/21/213201


  The ELSI infrastructure was used in your run to solve the Kohn-Sham electronic structure.
  Please check out http://elsi-interchange.org to learn more.
  If scalability is important for your project, please acknowledge ELSI by citing:

    V. W-z. Yu, F. Corsetti, A. Garcia, W. P. Huhn, M. Jacquelin, W. Jia,
    B. Lange, L. Lin, J. Lu, W. Mi, A. Seifitokaldani, A. Vazquez-Mayagoitia,
    C. Yang, H. Yang, and V. Blum
    'ELSI: A unified software interface for Kohn-Sham electronic structure solvers'
    Computer Physics Communications 222, 267-285 (2018).
    http://dx.doi.org/10.1016/j.cpc.2017.09.007


  For the real-space grid partitioning and parallelization used in this calculation, please cite:

    Ville Havu, Volker Blum, Paula Havu, and Matthias Scheffler,
    'Efficient O(N) integration for all-electron electronic structure calculation'
    'using numerically tabulated basis functions'
    Journal of Computational Physics 228, 8367-8379 (2009).
    http://dx.doi.org/10.1016/j.jcp.2009.08.008

  Of course, there are many other important community references, e.g., those cited in the
  above references. Our list is limited to references that describe implementations in the
  FHI-aims code. The reason is purely practical (length of this list) - please credit others as well.

------------------------------------------------------------
          Leaving FHI-aims.
          Date     :  20200710, Time     :  151021.181

          Computational steps:
          | Number of self-consistency cycles          :           16
          | Number of SCF (re)initializations          :            1

          Detailed time accounting                     :  max(cpu_time)    wall_clock(cpu1)
          | Total time                                 :       22.483 s          22.555 s
          | Preparation time                           :        0.146 s           0.147 s
          | Boundary condition initalization           :        0.000 s           0.001 s
          | Grid partitioning                          :        0.110 s           0.110 s
          | Preloading free-atom quantities on grid    :        0.002 s           0.003 s
          | Free-atom superposition energy             :        0.084 s           0.084 s
          | Total time for integrations                :        8.522 s           8.531 s
          | Total time for solution of K.-S. equations :        0.037 s           0.038 s
          | Total time for density & force components  :        7.057 s           7.065 s
          | Total time for mixing                      :        0.214 s           0.216 s
          | Total time for Hartree multipole update    :        0.140 s           0.139 s
          | Total time for Hartree multipole sum       :        5.772 s           5.783 s
          | Total time for total energy evaluation     :        0.003 s           0.002 s
          | Total time for vdW correction              :        0.089 s           0.090 s

          Partial memory accounting:
          | Residual value for overall tracked memory usage across tasks :           0.000 MB (should be 0.000 MB)
          | Peak values for overall tracked memory usage (after allocating hessian_basis_wave):
          |   Minimum:        1.622 MB (on task 1)
          |   Maximum:        1.622 MB (on task 1)
          |   Average:        1.622 MB
          | Largest tracked array allocation (hessian_basis_wave):
          |   Minimum:        0.794 MB (on task 1)
          |   Maximum:        0.794 MB (on task 1)
          |   Average:        0.794 MB
          Note:  These values currently only include a subset of arrays which are explicitly tracked.
          The "true" memory usage will be greater.

          Have a nice day.
------------------------------------------------------------
