  MPI-parallelism will be employed.
------------------------------------------------------------
          Invoking FHI-aims ...
          Version 171221_1
          Compiled on 2019/09/09 at 14:39:39 on host puhti-login2.bullx.

          When using FHI-aims, please cite the following reference:

          Volker Blum, Ralf Gehrke, Felix Hanke, Paula Havu,
          Ville Havu, Xinguo Ren, Karsten Reuter, and Matthias Scheffler,
          'Ab Initio Molecular Simulations with Numeric Atom-Centered Orbitals',
          Computer Physics Communications 180, 2175-2196 (2009)

          For any questions about FHI-aims, please visit the aimsclub website
          with its forums and wiki. Contributions to both the forums and the
          wiki are warmly encouraged - they are for you, and everyone is welcome there.

------------------------------------------------------------



  Date     :  20200815, Time     :  003408.907
  Time zero on CPU 1             :   0.114080000000000E-01  s.
  Internal wall clock time zero  :           366683648.907  s.

  FHI-aims created a unique identifier for this run for later identification
  aims_uuid : 3FAACF67-45BB-4ECE-AE03-06071E027A55

  Using        1 parallel tasks.
  Task        0 on host r16c29.bullx reporting.

  Performing system and environment tests:
  | Environment variable OMP_NUM_THREADS correctly set to 1.
  | Stacksize not measured: no C compiler
  | Checking for scalapack...
  | Testing pdtran()...
  | All pdtran() tests passed.

  Obtaining array dimensions for all initial allocations:
  
  -----------------------------------------------------------------------
  Parsing control.in (first pass over file, find array dimensions only).
  The contents of control.in will be repeated verbatim below
  unless switched off by setting 'verbatim_writeout .false.' .
  in the first line of control.in .
  -----------------------------------------------------------------------
  
  #########################################################################################
  #
  #  Volker Blum, FHI 2009 : Test run input file control.in for simple H2O
  #
  #########################################################################################
  #
  #  Physical model
  #
    xc                 pbe
    vdw_correction_hirshfeld
    spin               none
    relativistic       none
    charge             0.
  #
  #  SCF convergence
  #
    occupation_type    gaussian 0.01
    mixer              pulay
      n_max_pulay        10
      charge_mix_param   0.2
    sc_accuracy_rho    1E-5
    sc_accuracy_eev    1E-3
    sc_accuracy_etot   1E-6
    sc_accuracy_forces 1E-4
    sc_iter_limit      100
  #
  #  Relaxation
  #
  #  relax_geometry   bfgs 1.e-3
  #
  ################################################################################
  #
  #  FHI-aims code project
  #  VB, Fritz-Haber Institut, 2009
  #
  #  Suggested "light" defaults for H atom (to be pasted into control.in file)
  #  Be sure to double-check any results obtained with these settings for post-processing,
  #  e.g., with the "tight" defaults and larger basis sets.
  #
  ################################################################################
    species        H
  #     global species definitions
      nucleus             1
      mass                1.00794
  #
      l_hartree           4
  #
      cut_pot             3.5  1.5  1.0
      basis_dep_cutoff    1e-4
  #
      radial_base         24 5.0
      radial_multiplier   1
      angular_grids       specified
        division   0.2421   50
        division   0.3822  110
        division   0.4799  194
        division   0.5341  302
  #      division   0.5626  434
  #      division   0.5922  590
  #      division   0.6542  770
  #      division   0.6868 1202
  #      outer_grid  770
        outer_grid  302
  ################################################################################
  #
  #  Definition of "minimal" basis
  #
  ################################################################################
  #     valence basis states
      valence      1  s   1.
  #     ion occupancy
      ion_occ      1  s   0.5
  ################################################################################
  #
  #  Suggested additional basis functions. For production calculations,
  #  uncomment them one after another (the most important basis functions are
  #  listed first).
  #
  #  Basis constructed for dimers: 0.5 A, 0.7 A, 1.0 A, 1.5 A, 2.5 A
  #
  ################################################################################
  #  "First tier" - improvements: -1014.90 meV to -62.69 meV
       hydro 2 s 2.1
       hydro 2 p 3.5
  #  "Second tier" - improvements: -12.89 meV to -1.83 meV
  #     hydro 1 s 0.85
  #     hydro 2 p 3.7
  #     hydro 2 s 1.2
  #     hydro 3 d 7
  #  "Third tier" - improvements: -0.25 meV to -0.12 meV
  #     hydro 4 f 11.2
  #     hydro 3 p 4.8
  #     hydro 4 d 9
  #     hydro 3 s 3.2
  ################################################################################
  #
  #  FHI-aims code project
  #  VB, Fritz-Haber Institut, 2009
  #
  #  Suggested "light" defaults for C atom (to be pasted into control.in file)
  #  Be sure to double-check any results obtained with these settings for post-processing,
  #  e.g., with the "tight" defaults and larger basis sets.
  #
  ################################################################################
    species        C
  #     global species definitions
      nucleus             6
      mass                12.0107
  #
      l_hartree           4
  #
      cut_pot             3.5  1.5  1.0
      basis_dep_cutoff    1e-4
  #
      radial_base         34 5.0
      radial_multiplier   1
      angular_grids specified
        division   0.3326   50
        division   0.5710  110
        division   0.7727  194
        division   0.8772  302
  #      division   0.9334  434
  #      division   0.9625  590
  #      division   0.9924  770
  #      division   1.0230  974
  #      division   1.4589 1202
  #     outer_grid  974
       outer_grid 302
  ################################################################################
  #
  #  Definition of "minimal" basis
  #
  ################################################################################
  #     valence basis states
      valence      2  s   2.
      valence      2  p   2.
  #     ion occupancy
      ion_occ      2  s   1.
      ion_occ      2  p   1.
  ################################################################################
  #
  #  Suggested additional basis functions. For production calculations,
  #  uncomment them one after another (the most important basis functions are
  #  listed first).
  #
  #  Constructed for dimers: 1.0 A, 1.25 A, 1.5 A, 2.0 A, 3.0 A
  #
  ################################################################################
  #  "First tier" - improvements: -1214.57 meV to -155.61 meV
       hydro 2 p 1.7
       hydro 3 d 6
       hydro 2 s 4.9
  #  "Second tier" - improvements: -67.75 meV to -5.23 meV
  #     hydro 4 f 9.8
  #     hydro 3 p 5.2
  #     hydro 3 s 4.3
  #     hydro 5 g 14.4
  #     hydro 3 d 6.2
  #  "Third tier" - improvements: -2.43 meV to -0.60 meV
  #     hydro 2 p 5.6
  #     hydro 2 s 1.4
  #     hydro 3 d 4.9
  #     hydro 4 f 11.2
  #  "Fourth tier" - improvements: -0.39 meV to -0.18 meV
  #     hydro 2 p 2.1
  #     hydro 5 g 16.4
  #     hydro 4 d 13.2
  #     hydro 3 s 13.6
  #     hydro 4 f 17.6
  #  Further basis functions - improvements: -0.08 meV and below
  #     hydro 3 s 2
  #     hydro 3 p 6
  #     hydro 4 d 20
  ################################################################################
  #
  #  FHI-aims code project
  #  VB, Fritz-Haber Institut, 2009
  #
  #  Suggested "light" defaults for N atom (to be pasted into control.in file)
  #  Be sure to double-check any results obtained with these settings for post-processing,
  #  e.g., with the "tight" defaults and larger basis sets.
  #
  ################################################################################
    species        N
  #     global species definitions
      nucleus             7
      mass                14.0067
  #
      l_hartree           4
  #
      cut_pot             3.5  1.5  1.0
      basis_dep_cutoff    1e-4
  #
      radial_base         35 5.0
      radial_multiplier   1
      angular_grids       specified
        division   0.2599   50
        division   0.4601  110
        division   0.5885  194
        division   0.6503  302
  #      division   0.6939  434
  #      division   0.7396  590
  #      division   0.7632  770
  #      division   0.8122  974
  #      division   1.1604 1202
  #      outer_grid  974
        outer_grid  302
  ################################################################################
  #
  #  Definition of "minimal" basis
  #
  ################################################################################
  #     valence basis states
      valence      2  s   2.
      valence      2  p   3.
  #     ion occupancy
      ion_occ      2  s   1.
      ion_occ      2  p   2.
  ################################################################################
  #
  #  Suggested additional basis functions. For production calculations,
  #  uncomment them one after another (the most important basis functions are
  #  listed first).
  #
  #  Constructed for dimers: 1.0 A, 1.1 A, 1.5 A, 2.0 A, 3.0 A
  #
  ################################################################################
  #  "First tier" - improvements: -1193.42 meV to -220.60 meV
       hydro 2 p 1.8
       hydro 3 d 6.8
       hydro 3 s 5.8
  #  "Second tier" - improvements: -80.21 meV to -6.86 meV
  #     hydro 4 f 10.8
  #     hydro 3 p 5.8
  #     hydro 1 s 0.8
  #     hydro 5 g 16
  #     hydro 3 d 4.9
  #  "Third tier" - improvements: -4.29 meV to -0.53 meV
  #     hydro 3 s 16
  #     ionic 2 p auto
  #     hydro 3 d 6.6
  #     hydro 4 f 11.6
  #  "Fourth tier" - improvements: -0.75 meV to -0.25 meV
  #     hydro 2 p 4.5
  #     hydro 2 s 2.4
  #     hydro 5 g 14.4
  #     hydro 4 d 14.4
  #     hydro 4 f 16.8
  # Further basis functions - -0.21 meV and below
  #     hydro 3 p 14.8
  #     hydro 3 s 4.4
  #     hydro 3 d 19.6
  #     hydro 5 g 12.8
  ################################################################################
  #
  #  FHI-aims code project
  #  VB, Fritz-Haber Institut, 2009
  #
  #  Suggested "light" defaults for O atom (to be pasted into control.in file)
  #  Be sure to double-check any results obtained with these settings for post-processing,
  #  e.g., with the "tight" defaults and larger basis sets.
  #
  ################################################################################
    species        O
  #     global species definitions
      nucleus             8
      mass                15.9994
  #
      l_hartree           4
  #
      cut_pot             3.5  1.5  1.0
      basis_dep_cutoff    1e-4
  #
      radial_base         36 5.0
      radial_multiplier   1
       angular_grids specified
        division   0.2659   50
        division   0.4451  110
        division   0.6052  194
        division   0.7543  302
  #      division   0.8014  434
  #      division   0.8507  590
  #      division   0.8762  770
  #      division   0.9023  974
  #      division   1.2339 1202
  #      outer_grid 974
        outer_grid 302
  ################################################################################
  #
  #  Definition of "minimal" basis
  #
  ################################################################################
  #     valence basis states
      valence      2  s   2.
      valence      2  p   4.
  #     ion occupancy
      ion_occ      2  s   1.
      ion_occ      2  p   3.
  ################################################################################
  #
  #  Suggested additional basis functions. For production calculations,
  #  uncomment them one after another (the most important basis functions are
  #  listed first).
  #
  #  Constructed for dimers: 1.0 A, 1.208 A, 1.5 A, 2.0 A, 3.0 A
  #
  ################################################################################
  #  "First tier" - improvements: -699.05 meV to -159.38 meV
       hydro 2 p 1.8
       hydro 3 d 7.6
       hydro 3 s 6.4
  #  "Second tier" - improvements: -49.91 meV to -5.39 meV
  #     hydro 4 f 11.6
  #     hydro 3 p 6.2
  #     hydro 3 d 5.6
  #     hydro 5 g 17.6
  #     hydro 1 s 0.75
  #  "Third tier" - improvements: -2.83 meV to -0.50 meV
  #     ionic 2 p auto
  #     hydro 4 f 10.8
  #     hydro 4 d 4.7
  #     hydro 2 s 6.8
  #  "Fourth tier" - improvements: -0.40 meV to -0.12 meV
  #     hydro 3 p 5
  #     hydro 3 s 3.3
  #     hydro 5 g 15.6
  #     hydro 4 f 17.6
  #     hydro 4 d 14
  # Further basis functions - -0.08 meV and below
  #     hydro 3 s 2.1
  #     hydro 4 d 11.6
  #     hydro 3 p 16
  #     hydro 2 s 17.2
  
  -----------------------------------------------------------------------
  Completed first pass over input file control.in .
  -----------------------------------------------------------------------
  
  
  -----------------------------------------------------------------------
  Parsing geometry.in (first pass over file, find array dimensions only).
  The contents of geometry.in will be repeated verbatim below
  unless switched off by setting 'verbatim_writeout .false.' .
  in the first line of geometry.in .
  -----------------------------------------------------------------------
  
  atom  0.00000 0.00000 0.00000 C
  atom  1.09300 0.00000 0.00000 H
  atom  -0.47961 0.00000 -1.41207 N
  atom  -1.09020 0.80620 -1.55012 H
  atom  0.32634 0.05897 -2.03101 H
  atom  -0.49584 1.26211 0.72868 C
  atom  -1.58789 1.28919 0.74431 H
  atom  -0.13407 1.27425 1.75947 H
  atom  -0.13407 2.16087 0.22380 H
  atom  -0.39425 -1.28861 0.74398 C
  atom  -0.10189 -1.56493 1.88303 O
  atom  -1.10210 -2.13717 0.06896 O
  atom  -1.15615 -1.64368 -0.76682 H
  
  -----------------------------------------------------------------------
  Completed first pass over input file geometry.in .
  -----------------------------------------------------------------------
  

  Basic array size parameters:
  | Number of species                 :        4
  | Number of atoms                   :       13
  | Max. basis fn. angular momentum   :        2
  | Max. atomic/ionic basis occupied n:        2
  | Max. number of basis fn. types    :        2
  | Max. radial fns per species/type  :        3
  | Max. logarithmic grid size        :     1301
  | Max. radial integration grid size :       36
  | Max. angular integration grid size:      302
  | Max. angular grid division number :        8
  | Radial grid for Hartree potential :     1301
  | Number of spin channels           :        1

------------------------------------------------------------
          Reading file control.in.
------------------------------------------------------------
  XC: Using PBE gradient-corrected functionals.
  Spin treatment: No spin polarisation.
  Non-relativistic treatment of kinetic energy.
  Charge =   0.000000E+00: Neutral system requested explicitly.
  Occupation type: Gaussian broadening, width =   0.100000E-01 eV.
  Using pulay charge density mixing.
  Pulay mixing - number of memorized iterations:   10
  Charge density mixing - mixing parameter:     0.2000
  Convergence accuracy of self-consistent charge density:  0.1000E-04
  Convergence accuracy of sum of eigenvalues:  0.1000E-02
  Convergence accuracy of total energy:  0.1000E-05
  Convergence accuracy of forces:  0.1000E-03
  Maximum number of s.-c. iterations  :   100
 
  Reading configuration options for species H                   .
  | Found nuclear charge :   1.0000
  | Found atomic mass :    1.00794000000000      amu
  | Found l_max for Hartree potential  :   4
  | Found cutoff potl. onset [A], width [A], scale factor :    3.50000    1.50000    1.00000
  | Threshold for basis-dependent cutoff potential is   0.100000E-03
  | Found data for basic radial integration grid :    24 points, outermost radius =    5.000 A
  | Found multiplier for basic radial grid :   1
  | Found angular grid specification: user-specified.
  | Specified grid contains     5 separate shells.
  | Check grid settings after all constraints further below.
  | Found free-atom valence shell :  1 s   1.000
  | No ionic wave fns used. Skipping ion_occ.
  | Found hydrogenic basis function :  2 s   2.100
  | Found hydrogenic basis function :  2 p   3.500
  Species H                   : Missing cutoff potential type.
  Defaulting to exp(1/x)/(1-x)^2 type cutoff potential.
  Species H : No 'logarithmic' tag. Using default grid for free atom:
  | Default logarithmic grid data [bohr] : 0.1000E-03 0.1000E+03 0.1012E+01
  Species H : On-site basis accuracy parameter (for Gram-Schmidt orthonormalisation) not specified.
  Using default value basis_acc =  0.1000000E-03.
  Species H                   : Using default innermost maximum threshold i_radial=  2 for radial functions.
  Species H                   : Default cutoff onset for free atom density etc. : 0.35000000E+01 AA.
  Species H                   : Basic radial grid will be enhanced according to radial_multiplier =   1, to contain    24 grid points.
 
  Reading configuration options for species C                   .
  | Found nuclear charge :   6.0000
  | Found atomic mass :    12.0107000000000      amu
  | Found l_max for Hartree potential  :   4
  | Found cutoff potl. onset [A], width [A], scale factor :    3.50000    1.50000    1.00000
  | Threshold for basis-dependent cutoff potential is   0.100000E-03
  | Found data for basic radial integration grid :    34 points, outermost radius =    5.000 A
  | Found multiplier for basic radial grid :   1
  | Found angular grid specification: user-specified.
  | Specified grid contains     5 separate shells.
  | Check grid settings after all constraints further below.
  | Found free-atom valence shell :  2 s   2.000
  | Found free-atom valence shell :  2 p   2.000
  | No ionic wave fns used. Skipping ion_occ.
  | No ionic wave fns used. Skipping ion_occ.
  | Found hydrogenic basis function :  2 p   1.700
  | Found hydrogenic basis function :  3 d   6.000
  | Found hydrogenic basis function :  2 s   4.900
  Species C                   : Missing cutoff potential type.
  Defaulting to exp(1/x)/(1-x)^2 type cutoff potential.
  Species C : No 'logarithmic' tag. Using default grid for free atom:
  | Default logarithmic grid data [bohr] : 0.1000E-03 0.1000E+03 0.1012E+01
  Species C : On-site basis accuracy parameter (for Gram-Schmidt orthonormalisation) not specified.
  Using default value basis_acc =  0.1000000E-03.
  Species C                   : Using default innermost maximum threshold i_radial=  2 for radial functions.
  Species C                   : Default cutoff onset for free atom density etc. : 0.35000000E+01 AA.
  Species C                   : Basic radial grid will be enhanced according to radial_multiplier =   1, to contain    34 grid points.
 
  Reading configuration options for species N                   .
  | Found nuclear charge :   7.0000
  | Found atomic mass :    14.0067000000000      amu
  | Found l_max for Hartree potential  :   4
  | Found cutoff potl. onset [A], width [A], scale factor :    3.50000    1.50000    1.00000
  | Threshold for basis-dependent cutoff potential is   0.100000E-03
  | Found data for basic radial integration grid :    35 points, outermost radius =    5.000 A
  | Found multiplier for basic radial grid :   1
  | Found angular grid specification: user-specified.
  | Specified grid contains     5 separate shells.
  | Check grid settings after all constraints further below.
  | Found free-atom valence shell :  2 s   2.000
  | Found free-atom valence shell :  2 p   3.000
  | No ionic wave fns used. Skipping ion_occ.
  | No ionic wave fns used. Skipping ion_occ.
  | Found hydrogenic basis function :  2 p   1.800
  | Found hydrogenic basis function :  3 d   6.800
  | Found hydrogenic basis function :  3 s   5.800
  Species N                   : Missing cutoff potential type.
  Defaulting to exp(1/x)/(1-x)^2 type cutoff potential.
  Species N : No 'logarithmic' tag. Using default grid for free atom:
  | Default logarithmic grid data [bohr] : 0.1000E-03 0.1000E+03 0.1012E+01
  Species N : On-site basis accuracy parameter (for Gram-Schmidt orthonormalisation) not specified.
  Using default value basis_acc =  0.1000000E-03.
  Species N                   : Using default innermost maximum threshold i_radial=  2 for radial functions.
  Species N                   : Default cutoff onset for free atom density etc. : 0.35000000E+01 AA.
  Species N                   : Basic radial grid will be enhanced according to radial_multiplier =   1, to contain    35 grid points.
 
  Reading configuration options for species O                   .
  | Found nuclear charge :   8.0000
  | Found atomic mass :    15.9994000000000      amu
  | Found l_max for Hartree potential  :   4
  | Found cutoff potl. onset [A], width [A], scale factor :    3.50000    1.50000    1.00000
  | Threshold for basis-dependent cutoff potential is   0.100000E-03
  | Found data for basic radial integration grid :    36 points, outermost radius =    5.000 A
  | Found multiplier for basic radial grid :   1
  | Found angular grid specification: user-specified.
  | Specified grid contains     5 separate shells.
  | Check grid settings after all constraints further below.
  | Found free-atom valence shell :  2 s   2.000
  | Found free-atom valence shell :  2 p   4.000
  | No ionic wave fns used. Skipping ion_occ.
  | No ionic wave fns used. Skipping ion_occ.
  | Found hydrogenic basis function :  2 p   1.800
  | Found hydrogenic basis function :  3 d   7.600
  | Found hydrogenic basis function :  3 s   6.400
  Species O                   : Missing cutoff potential type.
  Defaulting to exp(1/x)/(1-x)^2 type cutoff potential.
  Species O : No 'logarithmic' tag. Using default grid for free atom:
  | Default logarithmic grid data [bohr] : 0.1000E-03 0.1000E+03 0.1012E+01
  Species O : On-site basis accuracy parameter (for Gram-Schmidt orthonormalisation) not specified.
  Using default value basis_acc =  0.1000000E-03.
  Species O                   : Using default innermost maximum threshold i_radial=  2 for radial functions.
  Species O                   : Default cutoff onset for free atom density etc. : 0.35000000E+01 AA.
  Species O                   : Basic radial grid will be enhanced according to radial_multiplier =   1, to contain    36 grid points.
 
  Finished reading input file 'control.in'. Consistency checks are next.
 
  MPI_IN_PLACE appears to work with this MPI implementation.
  | Keeping use_mpi_in_place .true. (see manual).
  Target number of points in a grid batch is not set. Defaulting to  100
  Method for grid partitioning is not set. Defaulting to parallel hash+maxmin partitioning.
  Batch size limit is not set. Defaulting to    200
  By default, will store active basis functions for each batch.
  If in need of memory, prune_basis_once .false. can be used to disable this option.
  communication_type for Hartree potential was not specified.
  Defaulting to calc_hartree .
  Pulay mixer: Number of initial linear mixing iterations not set.
  Defaulting to    0 iterations.
  Work space size for distributed Hartree potential not set.
  Defaulting to   0.200000E+03 MB.
  Algorithm-dependent basis array size parameters:
  | n_max_pulay                         :       10
  Presetting      1001 iterations before the initial mixing cycle
  is restarted anyway using the sc_init_iter criterion / keyword.
  Presetting a factor      1.000 between actual scf density residual
  and density convergence criterion sc_accuracy_rho below which sc_init_iter
  takes no effect.
  Geometry relaxation not requested: no relaxation will be performed.
  Handling of forces: Unphysical translation and rotation will be removed from forces.
  No accuracy limit for integral partition fn. given. Defaulting to  0.1000E-14.
  No threshold value for u(r) in integrations given. Defaulting to  0.1000E-05.
  No accuracy for occupation numbers given. Defaulting to  0.1000E-12.
  No threshold value for occupation numbers given. Defaulting to  0.0000E+00.
  No accuracy for fermi level given. Defaulting to  0.1000E-19.
  Maximum # of iterations to find E_F not set. Defaulting to  200.
  Preferred method for the eigenvalue solver ('KS_method') not specified in 'control.in'.
  Defaulting to serial version, 'lapack_fast'.
  Will not use alltoall communication since running on < 1024 CPUs.
  Threshold for basis singularities not set.
  Default threshold for basis singularities:  0.1000E-04
  partition_type (choice of integration weights) for integrals was not specified.
  | Using a version of the partition function of Stratmann and coworkers ('stratmann_smoother').
  | At each grid point, the set of atoms used to build the partition table is smoothly restricted to
  | only those atoms whose free-atom density would be non-zero at that grid point.
  Partitioning for Hartree potential was not defined. Using partition_type for integrals.
  | Adjusted default value of keyword multip_moments_threshold to:       0.10000000E-11
  | This value may affect high angular momentum components of the Hartree potential in periodic systems.
  No q(lm)/r^(l+1) cutoff set for long-range Hartree potential.
  | Using default value of  0.100000E-09 .
  | Verify using the multipole_threshold keyword.
  Defaulting to new monopole extrapolation.
  Density update method: automatic selection selected.
------------------------------------------------------------


------------------------------------------------------------
          Reading geometry description geometry.in.
------------------------------------------------------------
  Input structure read successfully.
  The structure contains       13 atoms,  and a total of         48.000 electrons.

  Input geometry:
  | No unit cell requested.
  | Atomic structure:
  |       Atom                x [A]            y [A]            z [A]
  |    1: Species C             0.00000000        0.00000000        0.00000000
  |    2: Species H             1.09300000        0.00000000        0.00000000
  |    3: Species N            -0.47961000        0.00000000       -1.41207000
  |    4: Species H            -1.09020000        0.80620000       -1.55012000
  |    5: Species H             0.32634000        0.05897000       -2.03101000
  |    6: Species C            -0.49584000        1.26211000        0.72868000
  |    7: Species H            -1.58789000        1.28919000        0.74431000
  |    8: Species H            -0.13407000        1.27425000        1.75947000
  |    9: Species H            -0.13407000        2.16087000        0.22380000
  |   10: Species C            -0.39425000       -1.28861000        0.74398000
  |   11: Species O            -0.10189000       -1.56493000        1.88303000
  |   12: Species O            -1.10210000       -2.13717000        0.06896000
  |   13: Species H            -1.15615000       -1.64368000       -0.76682000
  |

  | The smallest distance between any two atoms is         0.97210184 AA.
  |
  | The first atom of this pair is atom number                     12 .
  | The second atom of this pair is atom number                    13 .

  Number of empty states per atom not set in control.in - providing a guess from actual geometry.
  | Total number of empty states used during s.c.f. cycle:       29
  If you use a very high smearing, use empty_states (per atom!) in control.in to increase this value.

  Structure-dependent array size parameters: 
  | Maximum number of distinct radial functions  :       21
  | Maximum number of basis functions            :      119
  | Number of Kohn-Sham states (occupied + empty):       53
------------------------------------------------------------

------------------------------------------------------------
          Preparing all fixed parts of the calculation.
------------------------------------------------------------
  Determining machine precision:
    2.225073858507201E-308
  Setting up grids for atomic and cluster calculations.

  Creating wave function, potential, and density for free atoms.

  Species: H

  List of occupied orbitals and eigenvalues:
    n    l              occ      energy [Ha]    energy [eV]
    1    0           1.0000        -0.237589        -6.4651


  Species: C

  List of occupied orbitals and eigenvalues:
    n    l              occ      energy [Ha]    energy [eV]
    1    0           2.0000       -10.038835      -273.1706
    2    0           2.0000        -0.502696       -13.6791
    2    1           2.0000        -0.191971        -5.2238


  Species: N

  List of occupied orbitals and eigenvalues:
    n    l              occ      energy [Ha]    energy [eV]
    1    0           2.0000       -14.128000      -384.4424
    2    0           2.0000        -0.681077       -18.5330
    2    1           3.0000        -0.259788        -7.0692


  Species: O

  List of occupied orbitals and eigenvalues:
    n    l              occ      energy [Ha]    energy [eV]
    1    0           2.0000       -18.898188      -514.2459
    2    0           2.0000        -0.878505       -23.9053
    2    1           4.0000        -0.331779        -9.0282

  Creating fixed part of basis set: Ionic, confined, hydrogenic.
 
  H                    hydrogenic:
 
  List of hydrogenic basis orbitals: 
    n    l      effective z      eigenvalue [eV]  inner max. [A]     outer max. [A]     outer radius [A]   
    2    0         2.100000       -14.9728           0.193243           1.317208           4.583499
    2    1         3.500000       -41.6669           0.602369           0.602369           3.723403
 
 
  C                    hydrogenic:
 
  List of hydrogenic basis orbitals: 
    n    l      effective z      eigenvalue [eV]  inner max. [A]     outer max. [A]     outer radius [A]   
    2    1         1.700000        -9.7616           1.230570           1.230570           4.607917
    3    2         6.000000       -54.4224           0.792453           0.792453           3.883070
    2    0         4.900000       -81.6679           0.082559           0.562749           3.078220
 
 
  N                    hydrogenic:
 
  List of hydrogenic basis orbitals: 
    n    l      effective z      eigenvalue [eV]  inner max. [A]     outer max. [A]     outer radius [A]   
    2    1         1.800000       -10.9749           1.177451           1.177451           4.573712
    3    2         6.800000       -69.9026           0.704619           0.704619           3.538137
    3    0         5.800000       -50.8545           0.067388           1.191934           4.250239
 
 
  O                    hydrogenic:
 
  List of hydrogenic basis orbitals: 
    n    l      effective z      eigenvalue [eV]  inner max. [A]     outer max. [A]     outer radius [A]   
    2    1         1.800000       -10.9749           1.164242           1.164242           4.578029
    3    2         7.600000       -87.3180           0.624125           0.624125           3.251020
    3    0         6.400000       -61.9207           0.061167           1.081902           4.001998
 

  Adding cutoff potential to free-atom effective potential.
  Creating atomic-like basis functions for current effective potential.

  Species H                   :

  List of atomic basis orbitals and eigenvalues:
    n    l      energy [Ha]    energy [eV]    outer radius [A]
    1    0        -0.237589        -6.4651       4.527807


  Species C                   :

  List of atomic basis orbitals and eigenvalues:
    n    l      energy [Ha]    energy [eV]    outer radius [A]
    1    0       -10.038835      -273.1706       1.934409
    2    0        -0.502696       -13.6791       4.496620
    2    1        -0.191971        -5.2238       4.551928


  Species N                   :

  List of atomic basis orbitals and eigenvalues:
    n    l      energy [Ha]    energy [eV]    outer radius [A]
    1    0       -14.128000      -384.4424       1.637919
    2    0        -0.681077       -18.5330       4.463241
    2    1        -0.259788        -7.0692       4.518138


  Species O                   :

  List of atomic basis orbitals and eigenvalues:
    n    l      energy [Ha]    energy [eV]    outer radius [A]
    1    0       -18.898188      -514.2459       1.415765
    2    0        -0.878505       -23.9053       4.413171
    2    1        -0.331779        -9.0282       4.522403

  Assembling full basis from fixed parts.
  | Species H :   atomic orbital   1 s accepted.
  | Species H :    hydro orbital   2 s accepted.
  | Species H :    hydro orbital   2 p accepted.
  | Species C :   atomic orbital   1 s accepted.
  | Species C :    hydro orbital   2 s accepted.
  | Species C :   atomic orbital   2 s accepted.
  | Species C :   atomic orbital   2 p accepted.
  | Species C :    hydro orbital   2 p accepted.
  | Species C :    hydro orbital   3 d accepted.
  | Species N :   atomic orbital   1 s accepted.
  | Species N :    hydro orbital   3 s accepted.
  | Species N :   atomic orbital   2 s accepted.
  | Species N :   atomic orbital   2 p accepted.
  | Species N :    hydro orbital   2 p accepted.
  | Species N :    hydro orbital   3 d accepted.
  | Species O :   atomic orbital   1 s accepted.
  | Species O :    hydro orbital   3 s accepted.
  | Species O :   atomic orbital   2 s accepted.
  | Species O :   atomic orbital   2 p accepted.
  | Species O :    hydro orbital   2 p accepted.
  | Species O :    hydro orbital   3 d accepted.
 
  Basis size parameters after reduction:
  | Total number of radial functions:       21
  | Total number of basis functions :      119
 
  Per-task memory consumption for arrays in subroutine allocate_ext:
  |           5.250512MB.
  Testing on-site integration grid accuracy.
  |  Species  Function  <phi|h_atom|phi> (log., in eV)  <phi|h_atom|phi> (rad., in eV)
           1        1                 -6.4663192853                 -6.4651273558
           1        2                 13.7111246313                 13.7170609718
           1        3                 25.2673269279                 25.2674696378
           2        4               -273.1705927641               -273.1705631568
           2        5                -10.7109323383                -10.7107120029
           2        6                 17.4381822266                 17.4352413244
           2        7                 -5.2255326521                 -5.2270484734
           2        8                  8.6835629259                  8.6603288385
           2        9                 27.4952418996                 27.4953360207
           3       10               -384.4424306495               -384.4423701208
           3       11                 12.5842251816                 12.5842222903
           3       12                -15.7264628251                -15.7264433455
           3       13                 -7.0696854293                 -7.0701769954
           3       14                  8.8090390882                  8.7901077751
           3       15                 35.9586762123                 35.9588528632
           4       16               -514.2458688638               -514.2457643834
           4       17                 15.1795651126                 15.1795290741
           4       18                -21.5359799773                -21.5360846186
           4       19                 -9.0283069236                 -9.0284644067
           4       20                  8.3027758564                  8.2834874195
           4       21                 45.8339351984                 45.8338762259

  Preparing densities etc. for the partition functions (integrals / Hartree potential).

  Preparations completed.
  max(cpu_time)          :      0.145 s.
  Wall clock time (cpu1) :      0.147 s.
------------------------------------------------------------

------------------------------------------------------------
          Begin self-consistency loop: Initialization.

          Date     :  20200815, Time     :  003409.067
------------------------------------------------------------

  Initializing index lists of integration centers etc. from given atomic structure:
  | Number of centers in hartree potential         :        13
  | Number of centers in hartree multipole         :        13
  | Number of centers in electron density summation:        13
  | Number of centers in basis integrals           :        13
  | Number of centers in integrals                 :        13
  | Number of centers in hamiltonian               :        13
  Partitioning the integration grid into batches with parallel hashing+maxmin method.
  | Number of batches:      959
  | Maximal batch size:     139
  | Minimal batch size:      66
  | Average batch size:      72.624
  | Standard deviation of batch sizes:      17.115

  Integration load balanced across     1 MPI tasks.
  Work distribution over tasks is as follows:
  Task     0 has      69646 integration points.
  Initializing partition tables, free-atom densities, potentials, etc. across the integration grid (initialize_grid_storage).
  | initialize_grid_storage: Actual outermost partition radius vs. multipole_radius_free
  | (-- VB: in principle, multipole_radius_free should be larger, hence this output)
  | Species        1: Confinement radius =              4.999999999999999 AA, multipole_radius_free =              5.054417573612229 AA.
  | Species        1: outer_partition_radius set to              5.054417573612229 AA .
  | Species        2: Confinement radius =              4.999999999999999 AA, multipole_radius_free =              5.019602836301480 AA.
  | Species        2: outer_partition_radius set to              5.019602836301480 AA .
  | Species        3: Confinement radius =              4.999999999999999 AA, multipole_radius_free =              5.043624274424571 AA.
  | Species        3: outer_partition_radius set to              5.043624274424571 AA .
  | Species        4: Confinement radius =              4.999999999999999 AA, multipole_radius_free =              5.048384829883283 AA.
  | Species        4: outer_partition_radius set to              5.048384829883283 AA .
  | Original list of interatomic distances with          13 x         13 entries is created.
  | Net number of integration points:    69646
  | of which are non-zero points    :    59428
  Renormalizing the initial density to the exact electron count on the 3D integration grid.
  | Initial density: Formal number of electrons (from input files) :      48.0000000000
  | Integrated number of electrons on 3D grid     :      47.9999325567
  | Charge integration error                      :      -0.0000674433
  | Normalization factor for density and gradient :       1.0000014051
  Obtaining max. number of non-zero basis functions in each batch (get_n_compute_maxes).
  | Maximal number of non-zero basis functions:      119 in task     0
  Selecting the method for density update.
  Loop over occupied states selected for charge density update.
  Allocating        0.050 MB for KS_eigenvector
  Integrating Hamiltonian matrix: batch-based integration.
  Time summed over all CPUs for integration: real work        0.496 s, elapsed        0.496 s
  Integrating overlap matrix.
  Time summed over all CPUs for integration: real work        0.212 s, elapsed        0.212 s

  Updating Kohn-Sham eigenvalues and eigenvectors using ELSI and the ELPA eigensolver.
  Overlap matrix is nonsingular
  | Lowest eigenvalue of overlap  :  0.44E-02
  | Highest eigenvalue of overlap :  0.63E+01
  Finished singularity check of overlap matrix
  | Time :     0.002 s
  Finished Cholesky decomposition
  | Time :     0.000 s
  Finished transformation to standard eigenproblem
  | Time :     0.000 s
  Starting LAPACK eigensolver
  Finished solving standard eigenproblem
  | Time :     0.002 s
  Finished back-transformation of eigenvectors
  | Time :     0.000 s

  Obtaining occupation numbers and chemical potential using ELSI.
  | Chemical potential (Fermi level):    -9.88621686eV
  Writing Kohn-Sham eigenvalues.

  State    Occupation    Eigenvalue [Ha]    Eigenvalue [eV]
      1       2.00000         -19.007486         -517.22000
      2       2.00000         -18.977117         -516.39362
      3       2.00000         -14.247810         -387.70265
      4       2.00000         -10.166911         -276.65572
      5       2.00000         -10.142046         -275.97911
      6       2.00000         -10.131882         -275.70253
      7       2.00000          -1.181326          -32.14551
      8       2.00000          -1.101452          -29.97203
      9       2.00000          -0.994201          -27.05360
     10       2.00000          -0.859561          -23.38984
     11       2.00000          -0.756426          -20.58341
     12       2.00000          -0.680469          -18.51649
     13       2.00000          -0.629279          -17.12355
     14       2.00000          -0.616362          -16.77207
     15       2.00000          -0.590856          -16.07800
     16       2.00000          -0.557010          -15.15700
     17       2.00000          -0.550739          -14.98637
     18       2.00000          -0.527747          -14.36073
     19       2.00000          -0.520647          -14.16752
     20       2.00000          -0.493862          -13.43866
     21       2.00000          -0.473094          -12.87355
     22       2.00000          -0.428429          -11.65816
     23       2.00000          -0.423952          -11.53633
     24       2.00000          -0.385395          -10.48713
     25       0.00000          -0.148079           -4.02944
     26       0.00000          -0.063498           -1.72786
     27       0.00000          -0.029088           -0.79152
     28       0.00000          -0.010144           -0.27602
     29       0.00000           0.007308            0.19887
     30       0.00000           0.012649            0.34420
     31       0.00000           0.018738            0.50988
     32       0.00000           0.030173            0.82106
     33       0.00000           0.034237            0.93163
     34       0.00000           0.076713            2.08746
     35       0.00000           0.094985            2.58466
     36       0.00000           0.132136            3.59560
     37       0.00000           0.175175            4.76675
     38       0.00000           0.189470            5.15575
     39       0.00000           0.202320            5.50541
     40       0.00000           0.224929            6.12064
     41       0.00000           0.249220            6.78163
     42       0.00000           0.267028            7.26619
     43       0.00000           0.291175            7.92328
     44       0.00000           0.303038            8.24607
     45       0.00000           0.346880            9.43910
     46       0.00000           0.351933            9.57657
     47       0.00000           0.367394            9.99731
     48       0.00000           0.381903           10.39210
     49       0.00000           0.426371           11.60214
     50       0.00000           0.492289           13.39587
     51       0.00000           0.500459           13.61818
     52       0.00000           0.546324           14.86624
     53       0.00000           0.553615           15.06462

  Highest occupied state (VBM) at    -10.48713294 eV
  | Occupation number:      2.00000000

  Lowest unoccupied state (CBM) at    -4.02944231 eV
  | Occupation number:      0.00000000

  Overall HOMO-LUMO gap:      6.45769063 eV.
  Calculating total energy contributions from superposition of free atom densities.

  Total energy components:
  | Sum of eigenvalues            :        -188.88811762 Ha       -5139.90719614 eV
  | XC energy correction          :         -41.80310027 Ha       -1137.52023487 eV
  | XC potential correction       :          53.73985298 Ha        1462.33580240 eV
  | Free-atom electrostatic energy:        -146.82278747 Ha       -3995.25132315 eV
  | Hartree energy correction     :           0.00000000 Ha           0.00000000 eV
  | vdW energy correction         :           0.00000000 Ha           0.00000000 eV
  | Entropy correction            :           0.00000000 Ha           0.00000000 eV
  | ---------------------------
  | Total energy                  :        -323.77415239 Ha       -8810.34295175 eV
  | Total energy, T -> 0          :        -323.77415239 Ha       -8810.34295175 eV  <-- do not rely on this value for anything but (periodic) metals
  | Electronic free energy        :        -323.77415239 Ha       -8810.34295175 eV

  Derived energy quantities:
  | Kinetic energy                :         320.51248409 Ha        8721.58844152 eV
  | Electrostatic energy          :        -602.48353620 Ha      -16394.41115841 eV
  | Energy correction for multipole
  | error in Hartree potential    :           0.00000000 Ha           0.00000000 eV
  | Sum of eigenvalues per atom                           :        -395.37747663 eV
  | Total energy (T->0) per atom                          :        -677.71868860 eV  <-- do not rely on this value for anything but (periodic) metals
  | Electronic free energy per atom                       :        -677.71868860 eV
  Initialize hartree_potential_storage
  Max. number of atoms included in rho_multipole:           13

  End scf initialization - timings             :  max(cpu_time)    wall_clock(cpu1)
  | Time for scf. initialization               :        1.152 s           1.155 s
  | Boundary condition initialization          :        0.000 s           0.000 s
  | Integration                                :        0.708 s           0.709 s
  | Solution of K.-S. eqns.                    :        0.004 s           0.004 s
  | Grid partitioning                          :        0.111 s           0.112 s
  | Preloading free-atom quantities on grid    :        0.002 s           0.002 s
  | Free-atom superposition energy             :        0.085 s           0.085 s
  | Total energy evaluation                    :        0.000 s           0.001 s

  Partial memory accounting:
  | Current value for overall tracked memory usage on task 0  :           0.165 MB
  | Peak value for overall tracked memory usage on task 0     :           0.678 MB after allocating wave
  | Largest tracked array allocation on task 0 so far         :           0.132 MB  when allocating H_times_psi
  Note:  These values currently only include a subset of arrays which are explicitly tracked.
  The "true" memory usage will be greater.
------------------------------------------------------------

------------------------------------------------------------
          Begin self-consistency iteration #    1

  Date     :  20200815, Time     :  003410.222
------------------------------------------------------------
  Evaluating new KS density.
  Integration grid: deviation in total charge (<rho> - N_e) =  -4.263256E-14
  Pulay mixing of updated and previous charge densities.

  Evaluating partitioned Hartree potential by multipole expansion.
  | Analytical far-field extrapolation by fixed multipoles:
  | Hartree multipole sum: apparent total charge =  -0.165702E-03
  Summing up the Hartree potential.
  Time summed over all CPUs for potential: real work        0.283 s, elapsed        0.283 s
  | RMS charge density error from multipole expansion :   0.591331E-02

  Integrating Hamiltonian matrix: batch-based integration.
  Time summed over all CPUs for integration: real work        0.494 s, elapsed        0.494 s

  Updating Kohn-Sham eigenvalues and eigenvectors using ELSI and the ELPA eigensolver.
  Finished Cholesky decomposition
  | Time :     0.000 s
  Finished transformation to standard eigenproblem
  | Time :     0.000 s
  Starting LAPACK eigensolver
  Finished solving standard eigenproblem
  | Time :     0.002 s
  Finished back-transformation of eigenvectors
  | Time :     0.000 s

  Obtaining occupation numbers and chemical potential using ELSI.
  | Chemical potential (Fermi level):    -4.63970476eV
  Writing Kohn-Sham eigenvalues.

  State    Occupation    Eigenvalue [Ha]    Eigenvalue [eV]
      1       2.00000         -18.899656         -514.28581
      2       2.00000         -18.826460         -512.29404
      3       2.00000         -14.116149         -384.11995
      4       2.00000         -10.108983         -275.07942
      5       2.00000         -10.069364         -274.00133
      6       2.00000         -10.036115         -273.09659
      7       2.00000          -1.126522          -30.65423
      8       2.00000          -1.031340          -28.06419
      9       2.00000          -0.934484          -25.42861
     10       2.00000          -0.798649          -21.73233
     11       2.00000          -0.706222          -19.21728
     12       2.00000          -0.629812          -17.13806
     13       2.00000          -0.582203          -15.84254
     14       2.00000          -0.560951          -15.26426
     15       2.00000          -0.532020          -14.47699
     16       2.00000          -0.498947          -13.57704
     17       2.00000          -0.485846          -13.22055
     18       2.00000          -0.472456          -12.85619
     19       2.00000          -0.460683          -12.53582
     20       2.00000          -0.436692          -11.88299
     21       2.00000          -0.419794          -11.42317
     22       2.00000          -0.359840           -9.79174
     23       2.00000          -0.356033           -9.68814
     24       2.00000          -0.314781           -8.56562
     25       0.00000          -0.106386           -2.89490
     26       0.00000          -0.040708           -1.10771
     27       0.00000           0.009245            0.25158
     28       0.00000           0.015347            0.41760
     29       0.00000           0.041311            1.12414
     30       0.00000           0.045319            1.23318
     31       0.00000           0.050978            1.38719
     32       0.00000           0.061985            1.68670
     33       0.00000           0.070722            1.92445
     34       0.00000           0.115037            3.13031
     35       0.00000           0.132959            3.61801
     36       0.00000           0.163456            4.44786
     37       0.00000           0.206351            5.61509
     38       0.00000           0.215468            5.86318
     39       0.00000           0.230654            6.27641
     40       0.00000           0.257876            7.01717
     41       0.00000           0.281737            7.66646
     42       0.00000           0.298982            8.13571
     43       0.00000           0.324642            8.83396
     44       0.00000           0.344078            9.36283
     45       0.00000           0.380664           10.35840
     46       0.00000           0.394341           10.73056
     47       0.00000           0.405244           11.02724
     48       0.00000           0.422434           11.49500
     49       0.00000           0.462094           12.57422
     50       0.00000           0.523899           14.25603
     51       0.00000           0.529103           14.39761
     52       0.00000           0.576495           15.68722
     53       0.00000           0.590842           16.07762

  Highest occupied state (VBM) at     -8.56561616 eV
  | Occupation number:      2.00000000

  Lowest unoccupied state (CBM) at    -2.89489940 eV
  | Occupation number:      0.00000000

  Overall HOMO-LUMO gap:      5.67071677 eV.

  Total energy components:
  | Sum of eigenvalues            :        -185.52800237 Ha       -5048.47380790 eV
  | XC energy correction          :         -42.12766021 Ha       -1146.35196010 eV
  | XC potential correction       :          54.16194619 Ha        1473.82154298 eV
  | Free-atom electrostatic energy:        -146.82278747 Ha       -3995.25132315 eV
  | Hartree energy correction     :          -3.28420032 Ha         -89.36763780 eV
  | vdW energy correction         :           0.00000000 Ha           0.00000000 eV
  | Entropy correction            :           0.00000000 Ha           0.00000000 eV
  | ---------------------------
  | Total energy                  :        -323.60070418 Ha       -8805.62318597 eV
  | Total energy, T -> 0          :        -323.60070418 Ha       -8805.62318597 eV  <-- do not rely on this value for anything but (periodic) metals
  | Electronic free energy        :        -323.60070418 Ha       -8805.62318597 eV

  Derived energy quantities:
  | Kinetic energy                :         322.27732007 Ha        8769.61207211 eV
  | Electrostatic energy          :        -603.75036404 Ha      -16428.88329798 eV
  | Energy correction for multipole
  | error in Hartree potential    :           0.01176744 Ha           0.32020835 eV
  | Sum of eigenvalues per atom                           :        -388.34413907 eV
  | Total energy (T->0) per atom                          :        -677.35562969 eV  <-- do not rely on this value for anything but (periodic) metals
  | Electronic free energy per atom                       :        -677.35562969 eV

  Self-consistency convergence accuracy:
  | Change of charge density      :  0.5741E+00
  | Change of sum of eigenvalues  :  0.9143E+02 eV
  | Change of total energy        :  0.4720E+01 eV

  End self-consistency iteration #     1       :  max(cpu_time)    wall_clock(cpu1)
  | Time for this iteration                    :        1.187 s           1.188 s
  | Charge density update                      :        0.393 s           0.393 s
  | Density mixing                             :        0.005 s           0.006 s
  | Hartree multipole update                   :        0.009 s           0.009 s
  | Hartree multipole summation                :        0.284 s           0.283 s
  | Integration                                :        0.494 s           0.494 s
  | Solution of K.-S. eqns.                    :        0.002 s           0.002 s
  | Total energy evaluation                    :        0.000 s           0.000 s

  Partial memory accounting:
  | Current value for overall tracked memory usage on task 0  :           0.165 MB
  | Peak value for overall tracked memory usage on task 0     :           0.695 MB after allocating gradient_basis_wave
  | Largest tracked array allocation on task 0 so far         :           0.397 MB  when allocating gradient_basis_wave
  Note:  These values currently only include a subset of arrays which are explicitly tracked.
  The "true" memory usage will be greater.
------------------------------------------------------------

------------------------------------------------------------
          Begin self-consistency iteration #    2

  Date     :  20200815, Time     :  003411.413
------------------------------------------------------------
  Evaluating new KS density.
  Integration grid: deviation in total charge (<rho> - N_e) =  -7.105427E-15
  Pulay mixing of updated and previous charge densities.

  Evaluating partitioned Hartree potential by multipole expansion.
  | Analytical far-field extrapolation by fixed multipoles:
  | Hartree multipole sum: apparent total charge =  -0.292951E-03
  Summing up the Hartree potential.
  Time summed over all CPUs for potential: real work        0.282 s, elapsed        0.282 s
  | RMS charge density error from multipole expansion :   0.141510E-01

  Integrating Hamiltonian matrix: batch-based integration.
  Time summed over all CPUs for integration: real work        0.495 s, elapsed        0.495 s

  Updating Kohn-Sham eigenvalues and eigenvectors using ELSI and the ELPA eigensolver.
  Finished Cholesky decomposition
  | Time :     0.000 s
  Finished transformation to standard eigenproblem
  | Time :     0.000 s
  Starting LAPACK eigensolver
  Finished solving standard eigenproblem
  | Time :     0.002 s
  Finished back-transformation of eigenvectors
  | Time :     0.000 s

  Obtaining occupation numbers and chemical potential using ELSI.
  | Chemical potential (Fermi level):    -3.33651137eV
  Highest occupied state (VBM) at     -6.59746864 eV
  | Occupation number:      2.00000000

  Lowest unoccupied state (CBM) at    -1.46394790 eV
  | Occupation number:      0.00000000

  Overall HOMO-LUMO gap:      5.13352075 eV.

  Checking to see if s.c.f. parameters should be adjusted.

  Total energy components:
  | Sum of eigenvalues            :        -181.93837725 Ha       -4950.79513857 eV
  | XC energy correction          :         -42.48697825 Ha       -1156.12950132 eV
  | XC potential correction       :          54.62771095 Ha        1486.49564696 eV
  | Free-atom electrostatic energy:        -146.82278747 Ha       -3995.25132315 eV
  | Hartree energy correction     :          -6.90405177 Ha        -187.86880730 eV
  | vdW energy correction         :           0.00000000 Ha           0.00000000 eV
  | Entropy correction            :           0.00000000 Ha           0.00000000 eV
  | ---------------------------
  | Total energy                  :        -323.52448378 Ha       -8803.54912338 eV
  | Total energy, T -> 0          :        -323.52448378 Ha       -8803.54912338 eV  <-- do not rely on this value for anything but (periodic) metals
  | Electronic free energy        :        -323.52448378 Ha       -8803.54912338 eV

  Derived energy quantities:
  | Kinetic energy                :         323.60227686 Ha        8805.66598058 eV
  | Electrostatic energy          :        -604.63978239 Ha      -16453.08560264 eV
  | Energy correction for multipole
  | error in Hartree potential    :           0.02593805 Ha           0.70581035 eV
  | Sum of eigenvalues per atom                           :        -380.83039527 eV
  | Total energy (T->0) per atom                          :        -677.19608641 eV  <-- do not rely on this value for anything but (periodic) metals
  | Electronic free energy per atom                       :        -677.19608641 eV

  Self-consistency convergence accuracy:
  | Change of charge density      :  0.3585E+00
  | Change of sum of eigenvalues  :  0.9768E+02 eV
  | Change of total energy        :  0.2074E+01 eV

  End self-consistency iteration #     2       :  max(cpu_time)    wall_clock(cpu1)
  | Time for this iteration                    :        1.182 s           1.184 s
  | Charge density update                      :        0.386 s           0.387 s
  | Density mixing                             :        0.007 s           0.007 s
  | Hartree multipole update                   :        0.009 s           0.009 s
  | Hartree multipole summation                :        0.283 s           0.283 s
  | Integration                                :        0.495 s           0.495 s
  | Solution of K.-S. eqns.                    :        0.002 s           0.002 s
  | Total energy evaluation                    :        0.000 s           0.000 s

  Partial memory accounting:
  | Current value for overall tracked memory usage on task 0  :           0.166 MB
  | Peak value for overall tracked memory usage on task 0     :           0.695 MB after allocating gradient_basis_wave
  | Largest tracked array allocation on task 0 so far         :           0.397 MB  when allocating gradient_basis_wave
  Note:  These values currently only include a subset of arrays which are explicitly tracked.
  The "true" memory usage will be greater.
------------------------------------------------------------

------------------------------------------------------------
          Begin self-consistency iteration #    3

  Date     :  20200815, Time     :  003412.599
------------------------------------------------------------
  Evaluating new KS density.
  Integration grid: deviation in total charge (<rho> - N_e) =  -2.131628E-14
  Pulay mixing of updated and previous charge densities.

  Evaluating partitioned Hartree potential by multipole expansion.
  | Analytical far-field extrapolation by fixed multipoles:
  | Hartree multipole sum: apparent total charge =  -0.385518E-03
  Summing up the Hartree potential.
  Time summed over all CPUs for potential: real work        0.283 s, elapsed        0.283 s
  | RMS charge density error from multipole expansion :   0.224321E-01

  Integrating Hamiltonian matrix: batch-based integration.
  Time summed over all CPUs for integration: real work        0.495 s, elapsed        0.495 s

  Updating Kohn-Sham eigenvalues and eigenvectors using ELSI and the ELPA eigensolver.
  Finished Cholesky decomposition
  | Time :     0.000 s
  Finished transformation to standard eigenproblem
  | Time :     0.000 s
  Starting LAPACK eigensolver
  Finished solving standard eigenproblem
  | Time :     0.002 s
  Finished back-transformation of eigenvectors
  | Time :     0.000 s

  Obtaining occupation numbers and chemical potential using ELSI.
  | Chemical potential (Fermi level):    -2.63038195eV
  Highest occupied state (VBM) at     -5.93442909 eV
  | Occupation number:      2.00000000

  Lowest unoccupied state (CBM) at    -0.70018846 eV
  | Occupation number:      0.00000000

  Overall HOMO-LUMO gap:      5.23424063 eV.

  Total energy components:
  | Sum of eigenvalues            :        -180.57274422 Ha       -4913.63437308 eV
  | XC energy correction          :         -42.64121886 Ha       -1160.32660182 eV
  | XC potential correction       :          54.82448036 Ha        1491.85001516 eV
  | Free-atom electrostatic energy:        -146.82278747 Ha       -3995.25132315 eV
  | Hartree energy correction     :          -8.30008659 Ha        -225.85684762 eV
  | vdW energy correction         :           0.00000000 Ha           0.00000000 eV
  | Entropy correction            :           0.00000000 Ha           0.00000000 eV
  | ---------------------------
  | Total energy                  :        -323.51235677 Ha       -8803.21913051 eV
  | Total energy, T -> 0          :        -323.51235677 Ha       -8803.21913051 eV  <-- do not rely on this value for anything but (periodic) metals
  | Electronic free energy        :        -323.51235677 Ha       -8803.21913051 eV

  Derived energy quantities:
  | Kinetic energy                :         323.20202580 Ha        8794.77459517 eV
  | Electrostatic energy          :        -604.07316371 Ha      -16437.66712386 eV
  | Energy correction for multipole
  | error in Hartree potential    :           0.03648696 Ha           0.99286057 eV
  | Sum of eigenvalues per atom                           :        -377.97187485 eV
  | Total energy (T->0) per atom                          :        -677.17070235 eV  <-- do not rely on this value for anything but (periodic) metals
  | Electronic free energy per atom                       :        -677.17070235 eV

  Self-consistency convergence accuracy:
  | Change of charge density      :  0.1987E+00
  | Change of sum of eigenvalues  :  0.3716E+02 eV
  | Change of total energy        :  0.3300E+00 eV

  End self-consistency iteration #     3       :  max(cpu_time)    wall_clock(cpu1)
  | Time for this iteration                    :        1.183 s           1.186 s
  | Charge density update                      :        0.386 s           0.387 s
  | Density mixing                             :        0.008 s           0.008 s
  | Hartree multipole update                   :        0.009 s           0.009 s
  | Hartree multipole summation                :        0.283 s           0.284 s
  | Integration                                :        0.495 s           0.495 s
  | Solution of K.-S. eqns.                    :        0.002 s           0.002 s
  | Total energy evaluation                    :        0.000 s           0.000 s

  Partial memory accounting:
  | Current value for overall tracked memory usage on task 0  :           0.166 MB
  | Peak value for overall tracked memory usage on task 0     :           0.695 MB after allocating gradient_basis_wave
  | Largest tracked array allocation on task 0 so far         :           0.397 MB  when allocating gradient_basis_wave
  Note:  These values currently only include a subset of arrays which are explicitly tracked.
  The "true" memory usage will be greater.
------------------------------------------------------------

------------------------------------------------------------
          Begin self-consistency iteration #    4

  Date     :  20200815, Time     :  003413.787
------------------------------------------------------------
  Evaluating new KS density.
  Integration grid: deviation in total charge (<rho> - N_e) =   0.000000E+00
  Pulay mixing of updated and previous charge densities.

  Evaluating partitioned Hartree potential by multipole expansion.
  | Analytical far-field extrapolation by fixed multipoles:
  | Hartree multipole sum: apparent total charge =  -0.415520E-03
  Summing up the Hartree potential.
  Time summed over all CPUs for potential: real work        0.283 s, elapsed        0.283 s
  | RMS charge density error from multipole expansion :   0.259118E-01

  Integrating Hamiltonian matrix: batch-based integration.
  Time summed over all CPUs for integration: real work        0.495 s, elapsed        0.495 s

  Updating Kohn-Sham eigenvalues and eigenvectors using ELSI and the ELPA eigensolver.
  Finished Cholesky decomposition
  | Time :     0.000 s
  Finished transformation to standard eigenproblem
  | Time :     0.000 s
  Starting LAPACK eigensolver
  Finished solving standard eigenproblem
  | Time :     0.001 s
  Finished back-transformation of eigenvectors
  | Time :     0.000 s

  Obtaining occupation numbers and chemical potential using ELSI.
  | Chemical potential (Fermi level):    -2.53397768eV
  Highest occupied state (VBM) at     -5.64378836 eV
  | Occupation number:      2.00000000

  Lowest unoccupied state (CBM) at    -0.63384668 eV
  | Occupation number:      0.00000000

  Overall HOMO-LUMO gap:      5.00994169 eV.

  Total energy components:
  | Sum of eigenvalues            :        -180.49257747 Ha       -4911.45292500 eV
  | XC energy correction          :         -42.67346327 Ha       -1161.20401693 eV
  | XC potential correction       :          54.86476745 Ha        1492.94628249 eV
  | Free-atom electrostatic energy:        -146.82278747 Ha       -3995.25132315 eV
  | Hartree energy correction     :          -8.38735943 Ha        -228.23166243 eV
  | vdW energy correction         :           0.00000000 Ha           0.00000000 eV
  | Entropy correction            :           0.00000000 Ha           0.00000000 eV
  | ---------------------------
  | Total energy                  :        -323.51142019 Ha       -8803.19364501 eV
  | Total energy, T -> 0          :        -323.51142019 Ha       -8803.19364501 eV  <-- do not rely on this value for anything but (periodic) metals
  | Electronic free energy        :        -323.51142019 Ha       -8803.19364501 eV

  Derived energy quantities:
  | Kinetic energy                :         322.78400748 Ha        8783.39973810 eV
  | Electrostatic energy          :        -603.62196441 Ha      -16425.38936618 eV
  | Energy correction for multipole
  | error in Hartree potential    :           0.04025498 Ha           1.09539383 eV
  | Sum of eigenvalues per atom                           :        -377.80407115 eV
  | Total energy (T->0) per atom                          :        -677.16874192 eV  <-- do not rely on this value for anything but (periodic) metals
  | Electronic free energy per atom                       :        -677.16874192 eV

  Self-consistency convergence accuracy:
  | Change of charge density      :  0.6383E-01
  | Change of sum of eigenvalues  :  0.2181E+01 eV
  | Change of total energy        :  0.2549E-01 eV

  End self-consistency iteration #     4       :  max(cpu_time)    wall_clock(cpu1)
  | Time for this iteration                    :        1.184 s           1.192 s
  | Charge density update                      :        0.386 s           0.393 s
  | Density mixing                             :        0.009 s           0.009 s
  | Hartree multipole update                   :        0.009 s           0.009 s
  | Hartree multipole summation                :        0.283 s           0.283 s
  | Integration                                :        0.495 s           0.496 s
  | Solution of K.-S. eqns.                    :        0.002 s           0.002 s
  | Total energy evaluation                    :        0.000 s           0.000 s

  Partial memory accounting:
  | Current value for overall tracked memory usage on task 0  :           0.166 MB
  | Peak value for overall tracked memory usage on task 0     :           0.696 MB after allocating gradient_basis_wave
  | Largest tracked array allocation on task 0 so far         :           0.397 MB  when allocating gradient_basis_wave
  Note:  These values currently only include a subset of arrays which are explicitly tracked.
  The "true" memory usage will be greater.
------------------------------------------------------------

------------------------------------------------------------
          Begin self-consistency iteration #    5

  Date     :  20200815, Time     :  003414.980
------------------------------------------------------------
  Evaluating new KS density.
  Integration grid: deviation in total charge (<rho> - N_e) =   6.394885E-14
  Pulay mixing of updated and previous charge densities.

  Evaluating partitioned Hartree potential by multipole expansion.
  | Analytical far-field extrapolation by fixed multipoles:
  | Hartree multipole sum: apparent total charge =  -0.411372E-03
  Summing up the Hartree potential.
  Time summed over all CPUs for potential: real work        0.282 s, elapsed        0.282 s
  | RMS charge density error from multipole expansion :   0.256523E-01

  Integrating Hamiltonian matrix: batch-based integration.
  Time summed over all CPUs for integration: real work        0.495 s, elapsed        0.495 s

  Updating Kohn-Sham eigenvalues and eigenvectors using ELSI and the ELPA eigensolver.
  Finished Cholesky decomposition
  | Time :     0.000 s
  Finished transformation to standard eigenproblem
  | Time :     0.000 s
  Starting LAPACK eigensolver
  Finished solving standard eigenproblem
  | Time :     0.002 s
  Finished back-transformation of eigenvectors
  | Time :     0.000 s

  Obtaining occupation numbers and chemical potential using ELSI.
  | Chemical potential (Fermi level):    -2.57566986eV
  Highest occupied state (VBM) at     -5.76270124 eV
  | Occupation number:      2.00000000

  Lowest unoccupied state (CBM) at    -0.69013024 eV
  | Occupation number:      0.00000000

  Overall HOMO-LUMO gap:      5.07257100 eV.

  Total energy components:
  | Sum of eigenvalues            :        -180.61645593 Ha       -4914.82382945 eV
  | XC energy correction          :         -42.65697988 Ha       -1160.75548120 eV
  | XC potential correction       :          54.84342222 Ha        1492.36544942 eV
  | Free-atom electrostatic energy:        -146.82278747 Ha       -3995.25132315 eV
  | Hartree energy correction     :          -8.25832227 Ha        -224.72038254 eV
  | vdW energy correction         :           0.00000000 Ha           0.00000000 eV
  | Entropy correction            :           0.00000000 Ha           0.00000000 eV
  | ---------------------------
  | Total energy                  :        -323.51112333 Ha       -8803.18556691 eV
  | Total energy, T -> 0          :        -323.51112333 Ha       -8803.18556691 eV  <-- do not rely on this value for anything but (periodic) metals
  | Electronic free energy        :        -323.51112333 Ha       -8803.18556691 eV

  Derived energy quantities:
  | Kinetic energy                :         322.72270065 Ha        8781.73149422 eV
  | Electrostatic energy          :        -603.57684409 Ha      -16424.16157994 eV
  | Energy correction for multipole
  | error in Hartree potential    :           0.03970771 Ha           1.08050187 eV
  | Sum of eigenvalues per atom                           :        -378.06337150 eV
  | Total energy (T->0) per atom                          :        -677.16812053 eV  <-- do not rely on this value for anything but (periodic) metals
  | Electronic free energy per atom                       :        -677.16812053 eV

  Self-consistency convergence accuracy:
  | Change of charge density      :  0.2260E-01
  | Change of sum of eigenvalues  : -0.3371E+01 eV
  | Change of total energy        :  0.8078E-02 eV

  End self-consistency iteration #     5       :  max(cpu_time)    wall_clock(cpu1)
  | Time for this iteration                    :        1.186 s           1.187 s
  | Charge density update                      :        0.386 s           0.387 s
  | Density mixing                             :        0.011 s           0.011 s
  | Hartree multipole update                   :        0.009 s           0.009 s
  | Hartree multipole summation                :        0.283 s           0.282 s
  | Integration                                :        0.495 s           0.496 s
  | Solution of K.-S. eqns.                    :        0.002 s           0.002 s
  | Total energy evaluation                    :        0.000 s           0.000 s

  Partial memory accounting:
  | Current value for overall tracked memory usage on task 0  :           0.166 MB
  | Peak value for overall tracked memory usage on task 0     :           0.696 MB after allocating gradient_basis_wave
  | Largest tracked array allocation on task 0 so far         :           0.397 MB  when allocating gradient_basis_wave
  Note:  These values currently only include a subset of arrays which are explicitly tracked.
  The "true" memory usage will be greater.
------------------------------------------------------------

------------------------------------------------------------
          Begin self-consistency iteration #    6

  Date     :  20200815, Time     :  003416.168
------------------------------------------------------------
  Evaluating new KS density.
  Integration grid: deviation in total charge (<rho> - N_e) =   1.421085E-14
  Pulay mixing of updated and previous charge densities.

  Evaluating partitioned Hartree potential by multipole expansion.
  | Analytical far-field extrapolation by fixed multipoles:
  | Hartree multipole sum: apparent total charge =  -0.412563E-03
  Summing up the Hartree potential.
  Time summed over all CPUs for potential: real work        0.282 s, elapsed        0.282 s
  | RMS charge density error from multipole expansion :   0.258995E-01

  Integrating Hamiltonian matrix: batch-based integration.
  Time summed over all CPUs for integration: real work        0.495 s, elapsed        0.495 s

  Updating Kohn-Sham eigenvalues and eigenvectors using ELSI and the ELPA eigensolver.
  Finished Cholesky decomposition
  | Time :     0.000 s
  Finished transformation to standard eigenproblem
  | Time :     0.000 s
  Starting LAPACK eigensolver
  Finished solving standard eigenproblem
  | Time :     0.002 s
  Finished back-transformation of eigenvectors
  | Time :     0.000 s

  Obtaining occupation numbers and chemical potential using ELSI.
  | Chemical potential (Fermi level):    -2.59854653eV
  Highest occupied state (VBM) at     -5.80542075 eV
  | Occupation number:      2.00000000

  Lowest unoccupied state (CBM) at    -0.73199530 eV
  | Occupation number:      0.00000000

  Overall HOMO-LUMO gap:      5.07342545 eV.

  Total energy components:
  | Sum of eigenvalues            :        -180.68560560 Ha       -4916.70548765 eV
  | XC energy correction          :         -42.64757597 Ha       -1160.49958776 eV
  | XC potential correction       :          54.83122210 Ha        1492.03346714 eV
  | Free-atom electrostatic energy:        -146.82278747 Ha       -3995.25132315 eV
  | Hartree energy correction     :          -8.18629157 Ha        -222.76032765 eV
  | vdW energy correction         :           0.00000000 Ha           0.00000000 eV
  | Entropy correction            :           0.00000000 Ha           0.00000000 eV
  | ---------------------------
  | Total energy                  :        -323.51103852 Ha       -8803.18325907 eV
  | Total energy, T -> 0          :        -323.51103852 Ha       -8803.18325907 eV  <-- do not rely on this value for anything but (periodic) metals
  | Electronic free energy        :        -323.51103852 Ha       -8803.18325907 eV

  Derived energy quantities:
  | Kinetic energy                :         322.62194259 Ha        8778.98972788 eV
  | Electrostatic energy          :        -603.48540513 Ha      -16421.67339918 eV
  | Energy correction for multipole
  | error in Hartree potential    :           0.03965742 Ha           1.07913336 eV
  | Sum of eigenvalues per atom                           :        -378.20811443 eV
  | Total energy (T->0) per atom                          :        -677.16794301 eV  <-- do not rely on this value for anything but (periodic) metals
  | Electronic free energy per atom                       :        -677.16794301 eV

  Self-consistency convergence accuracy:
  | Change of charge density      :  0.1116E-01
  | Change of sum of eigenvalues  : -0.1882E+01 eV
  | Change of total energy        :  0.2308E-02 eV

  End self-consistency iteration #     6       :  max(cpu_time)    wall_clock(cpu1)
  | Time for this iteration                    :        1.186 s           1.188 s
  | Charge density update                      :        0.386 s           0.387 s
  | Density mixing                             :        0.012 s           0.012 s
  | Hartree multipole update                   :        0.009 s           0.008 s
  | Hartree multipole summation                :        0.283 s           0.283 s
  | Integration                                :        0.495 s           0.495 s
  | Solution of K.-S. eqns.                    :        0.002 s           0.003 s
  | Total energy evaluation                    :        0.000 s           0.000 s

  Partial memory accounting:
  | Current value for overall tracked memory usage on task 0  :           0.166 MB
  | Peak value for overall tracked memory usage on task 0     :           0.696 MB after allocating gradient_basis_wave
  | Largest tracked array allocation on task 0 so far         :           0.397 MB  when allocating gradient_basis_wave
  Note:  These values currently only include a subset of arrays which are explicitly tracked.
  The "true" memory usage will be greater.
------------------------------------------------------------

------------------------------------------------------------
          Begin self-consistency iteration #    7

  Date     :  20200815, Time     :  003417.358
------------------------------------------------------------
  Evaluating new KS density.
  Integration grid: deviation in total charge (<rho> - N_e) =   2.842171E-14
  Pulay mixing of updated and previous charge densities.

  Evaluating partitioned Hartree potential by multipole expansion.
  | Analytical far-field extrapolation by fixed multipoles:
  | Hartree multipole sum: apparent total charge =  -0.414351E-03
  Summing up the Hartree potential.
  Time summed over all CPUs for potential: real work        0.282 s, elapsed        0.282 s
  | RMS charge density error from multipole expansion :   0.260650E-01

  Integrating Hamiltonian matrix: batch-based integration.
  Time summed over all CPUs for integration: real work        0.495 s, elapsed        0.495 s

  Updating Kohn-Sham eigenvalues and eigenvectors using ELSI and the ELPA eigensolver.
  Finished Cholesky decomposition
  | Time :     0.000 s
  Finished transformation to standard eigenproblem
  | Time :     0.000 s
  Starting LAPACK eigensolver
  Finished solving standard eigenproblem
  | Time :     0.001 s
  Finished back-transformation of eigenvectors
  | Time :     0.000 s

[...]
  |   Hirshfeld dipole moment :      0.06570982
  |   Hirshfeld second moments:     -0.00541558      -0.02457178      -0.01501670
  |                                 -0.02457178      -0.03053271       0.00566876
  |                                 -0.01501670       0.00566876      -0.02613158
  ----------------------------------------------------------------------
  | Atom    12: O
  |   Hirshfeld charge        :     -0.15432191
  |   Free atom volume        :     23.61338643
  |   Hirshfeld volume        :     21.30234854
  |   Hirshfeld dipole vector :      0.01596215       0.03843574      -0.01096556
  |   Hirshfeld dipole moment :      0.04303882
  |   Hirshfeld second moments:      0.05118482      -0.01137384       0.01260316
  |                                 -0.01137384       0.02349691       0.01057477
  |                                  0.01260316       0.01057477       0.07019755
  ----------------------------------------------------------------------
  | Atom    13: H
  |   Hirshfeld charge        :      0.11309999
  |   Free atom volume        :      9.95071624
  |   Hirshfeld volume        :      7.27685386
  |   Hirshfeld dipole vector :     -0.02303473       0.00164809      -0.05772731
  |   Hirshfeld dipole moment :      0.06217521
  |   Hirshfeld second moments:      0.10139655      -0.00973584       0.00641010
  |                                 -0.00973584       0.06303523       0.03438931
  |                                  0.00641010       0.03438931       0.06844324
  ----------------------------------------------------------------------


  Total energy components:
  | Sum of eigenvalues            :        -180.67110657 Ha       -4916.31094880 eV
  | XC energy correction          :         -42.64618976 Ha       -1160.46186689 eV
  | XC potential correction       :          54.82950219 Ha        1491.98666601 eV
  | Free-atom electrostatic energy:        -146.82278747 Ha       -3995.25132315 eV
  | Hartree energy correction     :          -8.20043902 Ha        -223.14529934 eV
  | vdW energy correction         :          -0.00346033 Ha          -0.09416042 eV
  | Entropy correction            :           0.00000000 Ha           0.00000000 eV
  | ---------------------------
  | Total energy                  :        -323.51448096 Ha       -8803.27693260 eV
  | Total energy, T -> 0          :        -323.51448096 Ha       -8803.27693260 eV  <-- do not rely on this value for anything but (periodic) metals
  | Electronic free energy        :        -323.51448096 Ha       -8803.27693260 eV

  Derived energy quantities:
  | Kinetic energy                :         322.58557232 Ha        8778.00004246 eV
  | Electrostatic energy          :        -603.45040318 Ha      -16420.72094774 eV
  | Energy correction for multipole
  | error in Hartree potential    :           0.03970343 Ha           1.08038522 eV
  | Sum of eigenvalues per atom                           :        -378.17776529 eV
  | Total energy (T->0) per atom                          :        -677.17514866 eV  <-- do not rely on this value for anything but (periodic) metals
  | Electronic free energy per atom                       :        -677.17514866 eV

  atomic forces [eV/Ang]:
  -----------------------
  atom #    1
   Hellmann-Feynman              :  0.838460E+00  0.145739E+00  0.176117E+01
   Ionic forces                  :  0.000000E+00  0.000000E+00  0.000000E+00
   Multipole                     :  0.543521E-01  0.411963E+00 -0.285561E+00
   Pulay + GGA                   : -0.959178E+00  0.165803E+00 -0.156968E+01
   Van der Waals                 :  0.201444E-02  0.703824E-03 -0.108627E-02
   ----------------------------------------------------------------
   Total forces(   1)            : -0.643516E-01  0.724209E+00 -0.951577E-01
  atom #    2
   Hellmann-Feynman              :  0.238785E+00 -0.145327E-01 -0.217451E-02
   Ionic forces                  :  0.000000E+00  0.000000E+00  0.000000E+00
   Multipole                     :  0.183518E+00  0.373928E-01  0.167628E-01
   Pulay + GGA                   : -0.133220E+00  0.538377E-02  0.600319E-01
   Van der Waals                 :  0.453055E-02 -0.426102E-02 -0.646343E-02
   ----------------------------------------------------------------
   Total forces(   2)            :  0.293613E+00  0.239829E-01  0.681568E-01
  atom #    3
   Hellmann-Feynman              : -0.513812E+01 -0.938024E+01  0.270413E-01
   Ionic forces                  :  0.000000E+00  0.000000E+00  0.000000E+00
   Multipole                     : -0.140206E+00  0.139370E+00 -0.858194E+00
   Pulay + GGA                   :  0.529230E+01  0.869566E+01  0.149494E+01
   Van der Waals                 :  0.358113E-02 -0.522184E-02 -0.909810E-02
   ----------------------------------------------------------------
   Total forces(   3)            :  0.175503E-01 -0.550431E+00  0.654689E+00
  atom #    4
   Hellmann-Feynman              :  0.719046E-01  0.128281E+00 -0.214041E+00
   Ionic forces                  :  0.000000E+00  0.000000E+00  0.000000E+00
   Multipole                     : -0.828569E-01  0.585030E-01 -0.864074E-01
   Pulay + GGA                   :  0.871179E-01 -0.217340E+00  0.407763E-01
   Van der Waals                 : -0.328792E-03 -0.344008E-02 -0.706719E-02
   ----------------------------------------------------------------
   Total forces(   4)            :  0.758368E-01 -0.339965E-01 -0.266739E+00
  atom #    5
   Hellmann-Feynman              : -0.601287E-02  0.178345E+00 -0.278905E+00
   Ionic forces                  :  0.000000E+00  0.000000E+00  0.000000E+00
   Multipole                     :  0.405851E-01 -0.602293E-02 -0.128571E+00
   Pulay + GGA                   : -0.187263E+00 -0.788087E-01  0.137794E+00
   Van der Waals                 : -0.108173E-02  0.301946E-02  0.411807E-02
   ----------------------------------------------------------------
   Total forces(   5)            : -0.153773E+00  0.965324E-01 -0.265563E+00
  atom #    6
   Hellmann-Feynman              :  0.117928E+00 -0.417826E+00  0.212501E+00
   Ionic forces                  :  0.000000E+00  0.000000E+00  0.000000E+00
   Multipole                     : -0.625869E-01  0.589077E+00  0.256032E+00
   Pulay + GGA                   :  0.210982E+00 -0.601692E+00 -0.331890E+00
   Van der Waals                 : -0.260237E-02  0.426616E-02 -0.358057E-02
   ----------------------------------------------------------------
   Total forces(   6)            :  0.263721E+00 -0.426174E+00  0.133063E+00
  atom #    7
   Hellmann-Feynman              : -0.251422E+00 -0.660304E-01 -0.343701E-01
   Ionic forces                  :  0.000000E+00  0.000000E+00  0.000000E+00
   Multipole                     : -0.119617E+00  0.491684E-01  0.260939E-01
   Pulay + GGA                   :  0.110190E+00  0.454710E-02  0.453753E-01
   Van der Waals                 : -0.271573E-02  0.220954E-02  0.822564E-02
   ----------------------------------------------------------------
   Total forces(   7)            : -0.263564E+00 -0.101054E-01  0.453247E-01
  atom #    8
   Hellmann-Feynman              :  0.134184E-01 -0.219606E-01  0.171723E+00
   Ionic forces                  :  0.000000E+00  0.000000E+00  0.000000E+00
   Multipole                     :  0.175917E-01  0.647698E-01  0.120236E+00
   Pulay + GGA                   : -0.534841E-01 -0.562576E-01 -0.119797E+00
   Van der Waals                 : -0.300427E-02  0.113784E-01  0.575557E-03
   ----------------------------------------------------------------
   Total forces(   8)            : -0.254783E-01 -0.206999E-02  0.172737E+00
  atom #    9
   Hellmann-Feynman              :  0.126762E+00  0.684960E-01 -0.168892E+00
   Ionic forces                  :  0.000000E+00  0.000000E+00  0.000000E+00
   Multipole                     :  0.162020E-01  0.127240E+00 -0.111285E-01
   Pulay + GGA                   : -0.277259E-01 -0.699400E-01  0.658782E-01
   Van der Waals                 :  0.308253E-03  0.596209E-02  0.711170E-02
   ----------------------------------------------------------------
   Total forces(   9)            :  0.115546E+00  0.131758E+00 -0.107031E+00
  atom #   10
   Hellmann-Feynman              :  0.180524E+01  0.296591E+01  0.150774E+01
   Ionic forces                  :  0.000000E+00  0.000000E+00  0.000000E+00
   Multipole                     :  0.423216E-01 -0.829063E-01  0.239531E+00
   Pulay + GGA                   : -0.122175E+01 -0.242903E+01 -0.128768E+00
   Van der Waals                 :  0.271165E-02 -0.108850E-01 -0.321116E-02
   ----------------------------------------------------------------
   Total forces(  10)            :  0.628529E+00  0.443094E+00  0.161529E+01
  atom #   11
   Hellmann-Feynman              :  0.420284E+01 -0.231187E+01  0.143521E+02
   Ionic forces                  :  0.000000E+00  0.000000E+00  0.000000E+00
   Multipole                     :  0.145005E+00 -0.611673E+00  0.964078E+00
   Pulay + GGA                   : -0.346255E+01  0.365291E+01 -0.140798E+02
   Van der Waals                 : -0.106240E-02 -0.121918E-01  0.803088E-02
   ----------------------------------------------------------------
   Total forces(  11)            :  0.884223E+00  0.717172E+00  0.124445E+01
  atom #   12
   Hellmann-Feynman              : -0.613532E+01 -0.125824E+02  0.134711E+01
   Ionic forces                  :  0.000000E+00  0.000000E+00  0.000000E+00
   Multipole                     : -0.810022E+00 -0.146202E+01 -0.101840E-01
   Pulay + GGA                   :  0.579396E+01  0.129152E+02 -0.279846E+01
   Van der Waals                 :  0.163365E-02  0.104165E-01  0.890508E-03
   ----------------------------------------------------------------
   Total forces(  12)            : -0.114975E+01 -0.111876E+01 -0.146065E+01
  atom #   13
   Hellmann-Feynman              : -0.669723E+00  0.119707E+00 -0.202477E+01
   Ionic forces                  :  0.000000E+00  0.000000E+00  0.000000E+00
   Multipole                     :  0.681775E-02  0.728317E-01 -0.755393E-01
   Pulay + GGA                   :  0.447220E-01 -0.182708E+00  0.352277E+00
   Van der Waals                 : -0.398439E-02 -0.195619E-02  0.155435E-02
   ----------------------------------------------------------------
   Total forces(  13)            : -0.622168E+00  0.787421E-02 -0.174648E+01

  Timings for VdW correction (Tkatchenko-Scheffler 2009 or later):
  | CPU time:        0.090 s, Wall clock time:        0.092 s.
  Removing unitary transformations (pure translations, rotations) from forces on atoms.
  Atomic forces before filtering:
  | Net force on center of mass :  -0.684536E-04  0.308544E-02 -0.790674E-02 eV/A
  | Net torque on center of mass:   0.948051E-02 -0.258797E-02 -0.242067E-02 eV
  Atomic forces after filtering:
  | Net force on center of mass :   0.892031E-16  0.135198E-15  0.000000E+00 eV/A
  | Net torque on center of mass:   0.744942E-16  0.188817E-15 -0.188817E-15 eV

  Energy and forces in a compact form:
  | Total energy uncorrected      :         -0.880327693259541E+04 eV
  | Total energy corrected        :         -0.880327693259541E+04 eV  <-- do not rely on this value for anything but (periodic) metals
  | Electronic free energy        :         -0.880327693259541E+04 eV
  Total atomic forces (unitary forces cleaned) [eV/Ang]:
  |   1         -0.643479890472133E-01          0.723998612416362E+00         -0.945864316449432E-01
  |   2          0.293617038091954E+00          0.238667091553072E-01          0.686175314528316E-01
  |   3          0.174111556460469E-01         -0.551020544164739E+00          0.655308749545031E+00
  |   4          0.756145075787682E-01         -0.346712102319441E-01         -0.266250993587051E+00
  |   5         -0.153979800933148E+00          0.958639597227883E-01         -0.265039020590525E+00
  |   6          0.263689652445046E+00         -0.426251833402725E+00          0.133382131937882E+00
  |   7         -0.263595957641741E+00         -0.102730830709007E-01          0.457477999664975E-01
  |   8         -0.254059706271005E-01         -0.186989063740204E-02          0.173016564388034E+00
  |   9          0.115386974599467E+00          0.131590674571396E+00         -0.106963296800516E+00
  |  10          0.628718750995428E+00          0.443028550268504E+00          0.161620935092077E+01
  |  11          0.884551620391504E+00          0.717404814772866E+00          0.124540823968359E+01
  |  12         -0.114955883642986E+01         -0.111904825268157E+01         -0.145945080992823E+01
  |  13         -0.622101145069153E+00          0.738149328206033E-02         -0.174539981534337E+01

  ------------------------------------ 
  Start decomposition of the XC Energy 
  ------------------------------------ 
  X and C from original XC functional choice 
  Hartree-Fock Energy :          0.000000000 Ha              0.000000000 eV
  X Energy            :        -41.042971965 Ha          -1116.836091156 eV
  C Energy            :         -1.603217790 Ha            -43.625775731 eV
  Total XC Energy     :        -42.646189755 Ha          -1160.461866887 eV
  ------------------------------------ 
  LDA X and C from self-consistent density 
  X Energy LDA        :        -37.265447007 Ha          -1014.044407084 eV
  C Energy LDA        :         -3.139423855 Ha            -85.428069620 eV
  ------------------------------------ 
  End decomposition of the XC Energy 
  ------------------------------------ 

------------------------------------------------------------

------------------------------------------------------------------------------
  Final output of selected total energy values:

  The following output summarizes some interesting total energy values
  at the end of a run (AFTER all relaxation, molecular dynamics, etc.).

  | Total energy of the DFT / Hartree-Fock s.c.f. calculation      :          -8803.276932595 eV
  | Final zero-broadening corrected energy (caution - metals only) :          -8803.276932595 eV
  | For reference only, the value of 1 Hartree used in FHI-aims is :             27.211384500 eV

  Before relying on these values, please be sure to understand exactly which
  total energy value is referred to by a given number. Different objects may
  all carry the same name 'total energy'. Definitions:

  Total energy of the DFT / Hartree-Fock s.c.f. calculation:
  | Note that this energy does not include ANY quantities calculated after the
  | s.c.f. cycle, in particular not ANY RPA, MP2, etc. many-body perturbation terms.

  Final zero-broadening corrected energy:
  | For metallic systems only, a broadening of the occupation numbers at the Fermi
  | level can be extrapolated back to zero broadening by an electron-gas inspired
  | formula. For all systems that are not real metals, this value can be
  | meaningless and should be avoided.

------------------------------------------------------------------------------
  Methods described in the following list of references were used in this FHI-aims run.
  If you publish the results, please make sure to cite these reference if they apply.
  FHI-aims is an academic code, and for our developers (often, Ph.D. students
  and postdocs), scientific credit in the community is essential.
  Thank you for helping us!

  For any use of FHI-aims, please cite:

    Volker Blum, Ralf Gehrke, Felix Hanke, Paula Havu, Ville Havu,
    Xinguo Ren, Karsten Reuter, and Matthias Scheffler
    'Ab initio molecular simulations with numeric atom-centered orbitals'
    Computer Physics Communications 180, 2175-2196 (2009)
    http://dx.doi.org/10.1016/j.cpc.2009.06.022


  The scalable eigensolver library ELPA was used in your run.
  ELPA is essential especially for large systems on hundreds or thousands of CPUs.
  For ELPA, please cite:

    Andreas Marek, Volker Blum, Rainer Johanni, Ville Havu, Bruno Lang,
    Thomas Auckenthaler, Alexander Heinecke, Hans-Joachim Bungartz, and Hermann Lederer,
    'The ELPA Library - Scalable Parallel Eigenvalue Solutions
    for Electronic Structure Theory and Computational Science'
    The Journal of Physics: Condensed Matter 26, 213201 (2014).
    http://dx.doi.org/10.1088/0953-8984/26/21/213201


  The ELSI infrastructure was used in your run to solve the Kohn-Sham electronic structure.
  Please check out http://elsi-interchange.org to learn more.
  If scalability is important for your project, please acknowledge ELSI by citing:

    V. W-z. Yu, F. Corsetti, A. Garcia, W. P. Huhn, M. Jacquelin, W. Jia,
    B. Lange, L. Lin, J. Lu, W. Mi, A. Seifitokaldani, A. Vazquez-Mayagoitia,
    C. Yang, H. Yang, and V. Blum
    'ELSI: A unified software interface for Kohn-Sham electronic structure solvers'
    Computer Physics Communications 222, 267-285 (2018).
    http://dx.doi.org/10.1016/j.cpc.2017.09.007


  For the real-space grid partitioning and parallelization used in this calculation, please cite:

    Ville Havu, Volker Blum, Paula Havu, and Matthias Scheffler,
    'Efficient O(N) integration for all-electron electronic structure calculation'
    'using numerically tabulated basis functions'
    Journal of Computational Physics 228, 8367-8379 (2009).
    http://dx.doi.org/10.1016/j.jcp.2009.08.008

  Of course, there are many other important community references, e.g., those cited in the
  above references. Our list is limited to references that describe implementations in the
  FHI-aims code. The reason is purely practical (length of this list) - please credit others as well.

------------------------------------------------------------
          Leaving FHI-aims.
          Date     :  20200815, Time     :  003431.657

          Computational steps:
          | Number of self-consistency cycles          :           16
          | Number of SCF (re)initializations          :            1

          Detailed time accounting                     :  max(cpu_time)    wall_clock(cpu1)
          | Total time                                 :       22.675 s          22.750 s
          | Preparation time                           :        0.145 s           0.147 s
          | Boundary condition initalization           :        0.000 s           0.000 s
          | Grid partitioning                          :        0.111 s           0.112 s
          | Preloading free-atom quantities on grid    :        0.002 s           0.002 s
          | Free-atom superposition energy             :        0.085 s           0.085 s
          | Total time for integrations                :        8.624 s           8.634 s
          | Total time for solution of K.-S. equations :        0.036 s           0.038 s
          | Total time for density & force components  :        7.133 s           7.157 s
          | Total time for mixing                      :        0.213 s           0.215 s
          | Total time for Hartree multipole update    :        0.140 s           0.143 s
          | Total time for Hartree multipole sum       :        5.784 s           5.789 s
          | Total time for total energy evaluation     :        0.003 s           0.003 s
          | Total time for vdW correction              :        0.090 s           0.092 s

          Partial memory accounting:
          | Residual value for overall tracked memory usage across tasks :           0.000 MB (should be 0.000 MB)
          | Peak values for overall tracked memory usage (after allocating hessian_basis_wave):
          |   Minimum:        1.622 MB (on task 1)
          |   Maximum:        1.622 MB (on task 1)
          |   Average:        1.622 MB
          | Largest tracked array allocation (hessian_basis_wave):
          |   Minimum:        0.794 MB (on task 1)
          |   Maximum:        0.794 MB (on task 1)
          |   Average:        0.794 MB
          Note:  These values currently only include a subset of arrays which are explicitly tracked.
          The "true" memory usage will be greater.

          Have a nice day.
------------------------------------------------------------
