  MPI-parallelism will be employed.
------------------------------------------------------------
          Invoking FHI-aims ...
          Version 171221_1
          Compiled on 2019/09/09 at 14:39:39 on host puhti-login2.bullx.

          When using FHI-aims, please cite the following reference:

          Volker Blum, Ralf Gehrke, Felix Hanke, Paula Havu,
          Ville Havu, Xinguo Ren, Karsten Reuter, and Matthias Scheffler,
          'Ab Initio Molecular Simulations with Numeric Atom-Centered Orbitals',
          Computer Physics Communications 180, 2175-2196 (2009)

          For any questions about FHI-aims, please visit the aimsclub website
          with its forums and wiki. Contributions to both the forums and the
          wiki are warmly encouraged - they are for you, and everyone is welcome there.

------------------------------------------------------------



  Date     :  20200805, Time     :  185144.503
  Time zero on CPU 1             :   0.179820000000000E-01  s.
  Internal wall clock time zero  :           365885504.503  s.

  FHI-aims created a unique identifier for this run for later identification
  aims_uuid : 00E9D39A-E49B-417B-A131-532346345E59

  Using        1 parallel tasks.
  Task        0 on host r18c08.bullx reporting.

  Performing system and environment tests:
  | Environment variable OMP_NUM_THREADS correctly set to 1.
  | Stacksize not measured: no C compiler
  | Checking for scalapack...
  | Testing pdtran()...
  | All pdtran() tests passed.

  Obtaining array dimensions for all initial allocations:
  
  -----------------------------------------------------------------------
  Parsing control.in (first pass over file, find array dimensions only).
  The contents of control.in will be repeated verbatim below
  unless switched off by setting 'verbatim_writeout .false.' .
  in the first line of control.in .
  -----------------------------------------------------------------------
  
  #########################################################################################
  #
  #  Volker Blum, FHI 2009 : Test run input file control.in for simple H2O
  #
  #########################################################################################
  #
  #  Physical model
  #
    xc                 pbe
    vdw_correction_hirshfeld
    spin               none
    relativistic       none
    charge             0.
  #
  #  SCF convergence
  #
    occupation_type    gaussian 0.01
    mixer              pulay
      n_max_pulay        10
      charge_mix_param   0.2
    sc_accuracy_rho    1E-5
    sc_accuracy_eev    1E-3
    sc_accuracy_etot   1E-6
    sc_accuracy_forces 1E-4
    sc_iter_limit      100
  #
  #  Relaxation
  #
  #  relax_geometry   bfgs 1.e-3
  #
  ################################################################################
  #
  #  FHI-aims code project
  #  VB, Fritz-Haber Institut, 2009
  #
  #  Suggested "light" defaults for H atom (to be pasted into control.in file)
  #  Be sure to double-check any results obtained with these settings for post-processing,
  #  e.g., with the "tight" defaults and larger basis sets.
  #
  ################################################################################
    species        H
  #     global species definitions
      nucleus             1
      mass                1.00794
  #
      l_hartree           4
  #
      cut_pot             3.5  1.5  1.0
      basis_dep_cutoff    1e-4
  #
      radial_base         24 5.0
      radial_multiplier   1
      angular_grids       specified
        division   0.2421   50
        division   0.3822  110
        division   0.4799  194
        division   0.5341  302
  #      division   0.5626  434
  #      division   0.5922  590
  #      division   0.6542  770
  #      division   0.6868 1202
  #      outer_grid  770
        outer_grid  302
  ################################################################################
  #
  #  Definition of "minimal" basis
  #
  ################################################################################
  #     valence basis states
      valence      1  s   1.
  #     ion occupancy
      ion_occ      1  s   0.5
  ################################################################################
  #
  #  Suggested additional basis functions. For production calculations,
  #  uncomment them one after another (the most important basis functions are
  #  listed first).
  #
  #  Basis constructed for dimers: 0.5 A, 0.7 A, 1.0 A, 1.5 A, 2.5 A
  #
  ################################################################################
  #  "First tier" - improvements: -1014.90 meV to -62.69 meV
       hydro 2 s 2.1
       hydro 2 p 3.5
  #  "Second tier" - improvements: -12.89 meV to -1.83 meV
  #     hydro 1 s 0.85
  #     hydro 2 p 3.7
  #     hydro 2 s 1.2
  #     hydro 3 d 7
  #  "Third tier" - improvements: -0.25 meV to -0.12 meV
  #     hydro 4 f 11.2
  #     hydro 3 p 4.8
  #     hydro 4 d 9
  #     hydro 3 s 3.2
  ################################################################################
  #
  #  FHI-aims code project
  #  VB, Fritz-Haber Institut, 2009
  #
  #  Suggested "light" defaults for C atom (to be pasted into control.in file)
  #  Be sure to double-check any results obtained with these settings for post-processing,
  #  e.g., with the "tight" defaults and larger basis sets.
  #
  ################################################################################
    species        C
  #     global species definitions
      nucleus             6
      mass                12.0107
  #
      l_hartree           4
  #
      cut_pot             3.5  1.5  1.0
      basis_dep_cutoff    1e-4
  #
      radial_base         34 5.0
      radial_multiplier   1
      angular_grids specified
        division   0.3326   50
        division   0.5710  110
        division   0.7727  194
        division   0.8772  302
  #      division   0.9334  434
  #      division   0.9625  590
  #      division   0.9924  770
  #      division   1.0230  974
  #      division   1.4589 1202
  #     outer_grid  974
       outer_grid 302
  ################################################################################
  #
  #  Definition of "minimal" basis
  #
  ################################################################################
  #     valence basis states
      valence      2  s   2.
      valence      2  p   2.
  #     ion occupancy
      ion_occ      2  s   1.
      ion_occ      2  p   1.
  ################################################################################
  #
  #  Suggested additional basis functions. For production calculations,
  #  uncomment them one after another (the most important basis functions are
  #  listed first).
  #
  #  Constructed for dimers: 1.0 A, 1.25 A, 1.5 A, 2.0 A, 3.0 A
  #
  ################################################################################
  #  "First tier" - improvements: -1214.57 meV to -155.61 meV
       hydro 2 p 1.7
       hydro 3 d 6
       hydro 2 s 4.9
  #  "Second tier" - improvements: -67.75 meV to -5.23 meV
  #     hydro 4 f 9.8
  #     hydro 3 p 5.2
  #     hydro 3 s 4.3
  #     hydro 5 g 14.4
  #     hydro 3 d 6.2
  #  "Third tier" - improvements: -2.43 meV to -0.60 meV
  #     hydro 2 p 5.6
  #     hydro 2 s 1.4
  #     hydro 3 d 4.9
  #     hydro 4 f 11.2
  #  "Fourth tier" - improvements: -0.39 meV to -0.18 meV
  #     hydro 2 p 2.1
  #     hydro 5 g 16.4
  #     hydro 4 d 13.2
  #     hydro 3 s 13.6
  #     hydro 4 f 17.6
  #  Further basis functions - improvements: -0.08 meV and below
  #     hydro 3 s 2
  #     hydro 3 p 6
  #     hydro 4 d 20
  ################################################################################
  #
  #  FHI-aims code project
  #  VB, Fritz-Haber Institut, 2009
  #
  #  Suggested "light" defaults for N atom (to be pasted into control.in file)
  #  Be sure to double-check any results obtained with these settings for post-processing,
  #  e.g., with the "tight" defaults and larger basis sets.
  #
  ################################################################################
    species        N
  #     global species definitions
      nucleus             7
      mass                14.0067
  #
      l_hartree           4
  #
      cut_pot             3.5  1.5  1.0
      basis_dep_cutoff    1e-4
  #
      radial_base         35 5.0
      radial_multiplier   1
      angular_grids       specified
        division   0.2599   50
        division   0.4601  110
        division   0.5885  194
        division   0.6503  302
  #      division   0.6939  434
  #      division   0.7396  590
  #      division   0.7632  770
  #      division   0.8122  974
  #      division   1.1604 1202
  #      outer_grid  974
        outer_grid  302
  ################################################################################
  #
  #  Definition of "minimal" basis
  #
  ################################################################################
  #     valence basis states
      valence      2  s   2.
      valence      2  p   3.
  #     ion occupancy
      ion_occ      2  s   1.
      ion_occ      2  p   2.
  ################################################################################
  #
  #  Suggested additional basis functions. For production calculations,
  #  uncomment them one after another (the most important basis functions are
  #  listed first).
  #
  #  Constructed for dimers: 1.0 A, 1.1 A, 1.5 A, 2.0 A, 3.0 A
  #
  ################################################################################
  #  "First tier" - improvements: -1193.42 meV to -220.60 meV
       hydro 2 p 1.8
       hydro 3 d 6.8
       hydro 3 s 5.8
  #  "Second tier" - improvements: -80.21 meV to -6.86 meV
  #     hydro 4 f 10.8
  #     hydro 3 p 5.8
  #     hydro 1 s 0.8
  #     hydro 5 g 16
  #     hydro 3 d 4.9
  #  "Third tier" - improvements: -4.29 meV to -0.53 meV
  #     hydro 3 s 16
  #     ionic 2 p auto
  #     hydro 3 d 6.6
  #     hydro 4 f 11.6
  #  "Fourth tier" - improvements: -0.75 meV to -0.25 meV
  #     hydro 2 p 4.5
  #     hydro 2 s 2.4
  #     hydro 5 g 14.4
  #     hydro 4 d 14.4
  #     hydro 4 f 16.8
  # Further basis functions - -0.21 meV and below
  #     hydro 3 p 14.8
  #     hydro 3 s 4.4
  #     hydro 3 d 19.6
  #     hydro 5 g 12.8
  ################################################################################
  #
  #  FHI-aims code project
  #  VB, Fritz-Haber Institut, 2009
  #
  #  Suggested "light" defaults for O atom (to be pasted into control.in file)
  #  Be sure to double-check any results obtained with these settings for post-processing,
  #  e.g., with the "tight" defaults and larger basis sets.
  #
  ################################################################################
    species        O
  #     global species definitions
      nucleus             8
      mass                15.9994
  #
      l_hartree           4
  #
      cut_pot             3.5  1.5  1.0
      basis_dep_cutoff    1e-4
  #
      radial_base         36 5.0
      radial_multiplier   1
       angular_grids specified
        division   0.2659   50
        division   0.4451  110
        division   0.6052  194
        division   0.7543  302
  #      division   0.8014  434
  #      division   0.8507  590
  #      division   0.8762  770
  #      division   0.9023  974
  #      division   1.2339 1202
  #      outer_grid 974
        outer_grid 302
  ################################################################################
  #
  #  Definition of "minimal" basis
  #
  ################################################################################
  #     valence basis states
      valence      2  s   2.
      valence      2  p   4.
  #     ion occupancy
      ion_occ      2  s   1.
      ion_occ      2  p   3.
  ################################################################################
  #
  #  Suggested additional basis functions. For production calculations,
  #  uncomment them one after another (the most important basis functions are
  #  listed first).
  #
  #  Constructed for dimers: 1.0 A, 1.208 A, 1.5 A, 2.0 A, 3.0 A
  #
  ################################################################################
  #  "First tier" - improvements: -699.05 meV to -159.38 meV
       hydro 2 p 1.8
       hydro 3 d 7.6
       hydro 3 s 6.4
  #  "Second tier" - improvements: -49.91 meV to -5.39 meV
  #     hydro 4 f 11.6
  #     hydro 3 p 6.2
  #     hydro 3 d 5.6
  #     hydro 5 g 17.6
  #     hydro 1 s 0.75
  #  "Third tier" - improvements: -2.83 meV to -0.50 meV
  #     ionic 2 p auto
  #     hydro 4 f 10.8
  #     hydro 4 d 4.7
  #     hydro 2 s 6.8
  #  "Fourth tier" - improvements: -0.40 meV to -0.12 meV
  #     hydro 3 p 5
  #     hydro 3 s 3.3
  #     hydro 5 g 15.6
  #     hydro 4 f 17.6
  #     hydro 4 d 14
  # Further basis functions - -0.08 meV and below
  #     hydro 3 s 2.1
  #     hydro 4 d 11.6
  #     hydro 3 p 16
  #     hydro 2 s 17.2
  
  -----------------------------------------------------------------------
  Completed first pass over input file control.in .
  -----------------------------------------------------------------------
  
  
  -----------------------------------------------------------------------
  Parsing geometry.in (first pass over file, find array dimensions only).
  The contents of geometry.in will be repeated verbatim below
  unless switched off by setting 'verbatim_writeout .false.' .
  in the first line of geometry.in .
  -----------------------------------------------------------------------
  
  atom  0.00000 0.00000 0.00000 C
  atom  1.09300 0.00000 0.00000 H
  atom  -0.47961 0.00000 -1.41207 N
  atom  0.00368 0.74067 -1.92165 H
  atom  -0.27254 -0.90586 -1.82760 H
  atom  -0.49584 1.26211 0.72868 C
  atom  -1.58789 1.28919 0.74431 H
  atom  -0.13407 1.27425 1.75947 H
  atom  -0.13407 2.16087 0.22380 H
  atom  -0.39425 -1.28861 0.74398 C
  atom  -0.10189 -1.56493 1.88303 O
  atom  -1.10210 -2.13717 0.06896 O
  atom  -1.97989 -1.88814 0.40430 H
  
  -----------------------------------------------------------------------
  Completed first pass over input file geometry.in .
  -----------------------------------------------------------------------
  

  Basic array size parameters:
  | Number of species                 :        4
  | Number of atoms                   :       13
  | Max. basis fn. angular momentum   :        2
  | Max. atomic/ionic basis occupied n:        2
  | Max. number of basis fn. types    :        2
  | Max. radial fns per species/type  :        3
  | Max. logarithmic grid size        :     1301
  | Max. radial integration grid size :       36
  | Max. angular integration grid size:      302
  | Max. angular grid division number :        8
  | Radial grid for Hartree potential :     1301
  | Number of spin channels           :        1

------------------------------------------------------------
          Reading file control.in.
------------------------------------------------------------
  XC: Using PBE gradient-corrected functionals.
  Spin treatment: No spin polarisation.
  Non-relativistic treatment of kinetic energy.
  Charge =   0.000000E+00: Neutral system requested explicitly.
  Occupation type: Gaussian broadening, width =   0.100000E-01 eV.
  Using pulay charge density mixing.
  Pulay mixing - number of memorized iterations:   10
  Charge density mixing - mixing parameter:     0.2000
  Convergence accuracy of self-consistent charge density:  0.1000E-04
  Convergence accuracy of sum of eigenvalues:  0.1000E-02
  Convergence accuracy of total energy:  0.1000E-05
  Convergence accuracy of forces:  0.1000E-03
  Maximum number of s.-c. iterations  :   100
 
  Reading configuration options for species H                   .
  | Found nuclear charge :   1.0000
  | Found atomic mass :    1.00794000000000      amu
  | Found l_max for Hartree potential  :   4
  | Found cutoff potl. onset [A], width [A], scale factor :    3.50000    1.50000    1.00000
  | Threshold for basis-dependent cutoff potential is   0.100000E-03
  | Found data for basic radial integration grid :    24 points, outermost radius =    5.000 A
  | Found multiplier for basic radial grid :   1
  | Found angular grid specification: user-specified.
  | Specified grid contains     5 separate shells.
  | Check grid settings after all constraints further below.
  | Found free-atom valence shell :  1 s   1.000
  | No ionic wave fns used. Skipping ion_occ.
  | Found hydrogenic basis function :  2 s   2.100
  | Found hydrogenic basis function :  2 p   3.500
  Species H                   : Missing cutoff potential type.
  Defaulting to exp(1/x)/(1-x)^2 type cutoff potential.
  Species H : No 'logarithmic' tag. Using default grid for free atom:
  | Default logarithmic grid data [bohr] : 0.1000E-03 0.1000E+03 0.1012E+01
  Species H : On-site basis accuracy parameter (for Gram-Schmidt orthonormalisation) not specified.
  Using default value basis_acc =  0.1000000E-03.
  Species H                   : Using default innermost maximum threshold i_radial=  2 for radial functions.
  Species H                   : Default cutoff onset for free atom density etc. : 0.35000000E+01 AA.
  Species H                   : Basic radial grid will be enhanced according to radial_multiplier =   1, to contain    24 grid points.
 
  Reading configuration options for species C                   .
  | Found nuclear charge :   6.0000
  | Found atomic mass :    12.0107000000000      amu
  | Found l_max for Hartree potential  :   4
  | Found cutoff potl. onset [A], width [A], scale factor :    3.50000    1.50000    1.00000
  | Threshold for basis-dependent cutoff potential is   0.100000E-03
  | Found data for basic radial integration grid :    34 points, outermost radius =    5.000 A
  | Found multiplier for basic radial grid :   1
  | Found angular grid specification: user-specified.
  | Specified grid contains     5 separate shells.
  | Check grid settings after all constraints further below.
  | Found free-atom valence shell :  2 s   2.000
  | Found free-atom valence shell :  2 p   2.000
  | No ionic wave fns used. Skipping ion_occ.
  | No ionic wave fns used. Skipping ion_occ.
  | Found hydrogenic basis function :  2 p   1.700
  | Found hydrogenic basis function :  3 d   6.000
  | Found hydrogenic basis function :  2 s   4.900
  Species C                   : Missing cutoff potential type.
  Defaulting to exp(1/x)/(1-x)^2 type cutoff potential.
  Species C : No 'logarithmic' tag. Using default grid for free atom:
  | Default logarithmic grid data [bohr] : 0.1000E-03 0.1000E+03 0.1012E+01
  Species C : On-site basis accuracy parameter (for Gram-Schmidt orthonormalisation) not specified.
  Using default value basis_acc =  0.1000000E-03.
  Species C                   : Using default innermost maximum threshold i_radial=  2 for radial functions.
  Species C                   : Default cutoff onset for free atom density etc. : 0.35000000E+01 AA.
  Species C                   : Basic radial grid will be enhanced according to radial_multiplier =   1, to contain    34 grid points.
 
  Reading configuration options for species N                   .
  | Found nuclear charge :   7.0000
  | Found atomic mass :    14.0067000000000      amu
  | Found l_max for Hartree potential  :   4
  | Found cutoff potl. onset [A], width [A], scale factor :    3.50000    1.50000    1.00000
  | Threshold for basis-dependent cutoff potential is   0.100000E-03
  | Found data for basic radial integration grid :    35 points, outermost radius =    5.000 A
  | Found multiplier for basic radial grid :   1
  | Found angular grid specification: user-specified.
  | Specified grid contains     5 separate shells.
  | Check grid settings after all constraints further below.
  | Found free-atom valence shell :  2 s   2.000
  | Found free-atom valence shell :  2 p   3.000
  | No ionic wave fns used. Skipping ion_occ.
  | No ionic wave fns used. Skipping ion_occ.
  | Found hydrogenic basis function :  2 p   1.800
  | Found hydrogenic basis function :  3 d   6.800
  | Found hydrogenic basis function :  3 s   5.800
  Species N                   : Missing cutoff potential type.
  Defaulting to exp(1/x)/(1-x)^2 type cutoff potential.
  Species N : No 'logarithmic' tag. Using default grid for free atom:
  | Default logarithmic grid data [bohr] : 0.1000E-03 0.1000E+03 0.1012E+01
  Species N : On-site basis accuracy parameter (for Gram-Schmidt orthonormalisation) not specified.
  Using default value basis_acc =  0.1000000E-03.
  Species N                   : Using default innermost maximum threshold i_radial=  2 for radial functions.
  Species N                   : Default cutoff onset for free atom density etc. : 0.35000000E+01 AA.
  Species N                   : Basic radial grid will be enhanced according to radial_multiplier =   1, to contain    35 grid points.
 
  Reading configuration options for species O                   .
  | Found nuclear charge :   8.0000
  | Found atomic mass :    15.9994000000000      amu
  | Found l_max for Hartree potential  :   4
  | Found cutoff potl. onset [A], width [A], scale factor :    3.50000    1.50000    1.00000
  | Threshold for basis-dependent cutoff potential is   0.100000E-03
  | Found data for basic radial integration grid :    36 points, outermost radius =    5.000 A
  | Found multiplier for basic radial grid :   1
  | Found angular grid specification: user-specified.
  | Specified grid contains     5 separate shells.
  | Check grid settings after all constraints further below.
  | Found free-atom valence shell :  2 s   2.000
  | Found free-atom valence shell :  2 p   4.000
  | No ionic wave fns used. Skipping ion_occ.
  | No ionic wave fns used. Skipping ion_occ.
  | Found hydrogenic basis function :  2 p   1.800
  | Found hydrogenic basis function :  3 d   7.600
  | Found hydrogenic basis function :  3 s   6.400
  Species O                   : Missing cutoff potential type.
  Defaulting to exp(1/x)/(1-x)^2 type cutoff potential.
  Species O : No 'logarithmic' tag. Using default grid for free atom:
  | Default logarithmic grid data [bohr] : 0.1000E-03 0.1000E+03 0.1012E+01
  Species O : On-site basis accuracy parameter (for Gram-Schmidt orthonormalisation) not specified.
  Using default value basis_acc =  0.1000000E-03.
  Species O                   : Using default innermost maximum threshold i_radial=  2 for radial functions.
  Species O                   : Default cutoff onset for free atom density etc. : 0.35000000E+01 AA.
  Species O                   : Basic radial grid will be enhanced according to radial_multiplier =   1, to contain    36 grid points.
 
  Finished reading input file 'control.in'. Consistency checks are next.
 
  MPI_IN_PLACE appears to work with this MPI implementation.
  | Keeping use_mpi_in_place .true. (see manual).
  Target number of points in a grid batch is not set. Defaulting to  100
  Method for grid partitioning is not set. Defaulting to parallel hash+maxmin partitioning.
  Batch size limit is not set. Defaulting to    200
  By default, will store active basis functions for each batch.
  If in need of memory, prune_basis_once .false. can be used to disable this option.
  communication_type for Hartree potential was not specified.
  Defaulting to calc_hartree .
  Pulay mixer: Number of initial linear mixing iterations not set.
  Defaulting to    0 iterations.
  Work space size for distributed Hartree potential not set.
  Defaulting to   0.200000E+03 MB.
  Algorithm-dependent basis array size parameters:
  | n_max_pulay                         :       10
  Presetting      1001 iterations before the initial mixing cycle
  is restarted anyway using the sc_init_iter criterion / keyword.
  Presetting a factor      1.000 between actual scf density residual
  and density convergence criterion sc_accuracy_rho below which sc_init_iter
  takes no effect.
  Geometry relaxation not requested: no relaxation will be performed.
  Handling of forces: Unphysical translation and rotation will be removed from forces.
  No accuracy limit for integral partition fn. given. Defaulting to  0.1000E-14.
  No threshold value for u(r) in integrations given. Defaulting to  0.1000E-05.
  No accuracy for occupation numbers given. Defaulting to  0.1000E-12.
  No threshold value for occupation numbers given. Defaulting to  0.0000E+00.
  No accuracy for fermi level given. Defaulting to  0.1000E-19.
  Maximum # of iterations to find E_F not set. Defaulting to  200.
  Preferred method for the eigenvalue solver ('KS_method') not specified in 'control.in'.
  Defaulting to serial version, 'lapack_fast'.
  Will not use alltoall communication since running on < 1024 CPUs.
  Threshold for basis singularities not set.
  Default threshold for basis singularities:  0.1000E-04
  partition_type (choice of integration weights) for integrals was not specified.
  | Using a version of the partition function of Stratmann and coworkers ('stratmann_smoother').
  | At each grid point, the set of atoms used to build the partition table is smoothly restricted to
  | only those atoms whose free-atom density would be non-zero at that grid point.
  Partitioning for Hartree potential was not defined. Using partition_type for integrals.
  | Adjusted default value of keyword multip_moments_threshold to:       0.10000000E-11
  | This value may affect high angular momentum components of the Hartree potential in periodic systems.
  No q(lm)/r^(l+1) cutoff set for long-range Hartree potential.
  | Using default value of  0.100000E-09 .
  | Verify using the multipole_threshold keyword.
  Defaulting to new monopole extrapolation.
  Density update method: automatic selection selected.
------------------------------------------------------------


------------------------------------------------------------
          Reading geometry description geometry.in.
------------------------------------------------------------
  Input structure read successfully.
  The structure contains       13 atoms,  and a total of         48.000 electrons.

  Input geometry:
  | No unit cell requested.
  | Atomic structure:
  |       Atom                x [A]            y [A]            z [A]
  |    1: Species C             0.00000000        0.00000000        0.00000000
  |    2: Species H             1.09300000        0.00000000        0.00000000
  |    3: Species N            -0.47961000        0.00000000       -1.41207000
  |    4: Species H             0.00368000        0.74067000       -1.92165000
  |    5: Species H            -0.27254000       -0.90586000       -1.82760000
  |    6: Species C            -0.49584000        1.26211000        0.72868000
  |    7: Species H            -1.58789000        1.28919000        0.74431000
  |    8: Species H            -0.13407000        1.27425000        1.75947000
  |    9: Species H            -0.13407000        2.16087000        0.22380000
  |   10: Species C            -0.39425000       -1.28861000        0.74398000
  |   11: Species O            -0.10189000       -1.56493000        1.88303000
  |   12: Species O            -1.10210000       -2.13717000        0.06896000
  |   13: Species H            -1.97989000       -1.88814000        0.40430000
  |

  | The smallest distance between any two atoms is         0.97210295 AA.
  |
  | The first atom of this pair is atom number                     12 .
  | The second atom of this pair is atom number                    13 .

  Number of empty states per atom not set in control.in - providing a guess from actual geometry.
  | Total number of empty states used during s.c.f. cycle:       29
  If you use a very high smearing, use empty_states (per atom!) in control.in to increase this value.

  Structure-dependent array size parameters: 
  | Maximum number of distinct radial functions  :       21
  | Maximum number of basis functions            :      119
  | Number of Kohn-Sham states (occupied + empty):       53
------------------------------------------------------------

------------------------------------------------------------
          Preparing all fixed parts of the calculation.
------------------------------------------------------------
  Determining machine precision:
    2.225073858507201E-308
  Setting up grids for atomic and cluster calculations.

  Creating wave function, potential, and density for free atoms.

  Species: H

  List of occupied orbitals and eigenvalues:
    n    l              occ      energy [Ha]    energy [eV]
    1    0           1.0000        -0.237589        -6.4651


  Species: C

  List of occupied orbitals and eigenvalues:
    n    l              occ      energy [Ha]    energy [eV]
    1    0           2.0000       -10.038835      -273.1706
    2    0           2.0000        -0.502696       -13.6791
    2    1           2.0000        -0.191971        -5.2238


  Species: N

  List of occupied orbitals and eigenvalues:
    n    l              occ      energy [Ha]    energy [eV]
    1    0           2.0000       -14.128000      -384.4424
    2    0           2.0000        -0.681077       -18.5330
    2    1           3.0000        -0.259788        -7.0692


  Species: O

  List of occupied orbitals and eigenvalues:
    n    l              occ      energy [Ha]    energy [eV]
    1    0           2.0000       -18.898188      -514.2459
    2    0           2.0000        -0.878505       -23.9053
    2    1           4.0000        -0.331779        -9.0282

  Creating fixed part of basis set: Ionic, confined, hydrogenic.
 
  H                    hydrogenic:
 
  List of hydrogenic basis orbitals: 
    n    l      effective z      eigenvalue [eV]  inner max. [A]     outer max. [A]     outer radius [A]   
    2    0         2.100000       -14.9728           0.193243           1.317208           4.583499
    2    1         3.500000       -41.6669           0.602369           0.602369           3.723403
 
 
  C                    hydrogenic:
 
  List of hydrogenic basis orbitals: 
    n    l      effective z      eigenvalue [eV]  inner max. [A]     outer max. [A]     outer radius [A]   
    2    1         1.700000        -9.7616           1.230570           1.230570           4.607917
    3    2         6.000000       -54.4224           0.792453           0.792453           3.883070
    2    0         4.900000       -81.6679           0.082559           0.562749           3.078220
 
 
  N                    hydrogenic:
 
  List of hydrogenic basis orbitals: 
    n    l      effective z      eigenvalue [eV]  inner max. [A]     outer max. [A]     outer radius [A]   
    2    1         1.800000       -10.9749           1.177451           1.177451           4.573712
    3    2         6.800000       -69.9026           0.704619           0.704619           3.538137
    3    0         5.800000       -50.8545           0.067388           1.191934           4.250239
 
 
  O                    hydrogenic:
 
  List of hydrogenic basis orbitals: 
    n    l      effective z      eigenvalue [eV]  inner max. [A]     outer max. [A]     outer radius [A]   
    2    1         1.800000       -10.9749           1.164242           1.164242           4.578029
    3    2         7.600000       -87.3180           0.624125           0.624125           3.251020
    3    0         6.400000       -61.9207           0.061167           1.081902           4.001998
 

  Adding cutoff potential to free-atom effective potential.
  Creating atomic-like basis functions for current effective potential.

  Species H                   :

  List of atomic basis orbitals and eigenvalues:
    n    l      energy [Ha]    energy [eV]    outer radius [A]
    1    0        -0.237589        -6.4651       4.527807


  Species C                   :

  List of atomic basis orbitals and eigenvalues:
    n    l      energy [Ha]    energy [eV]    outer radius [A]
    1    0       -10.038835      -273.1706       1.934409
    2    0        -0.502696       -13.6791       4.496620
    2    1        -0.191971        -5.2238       4.551928


  Species N                   :

  List of atomic basis orbitals and eigenvalues:
    n    l      energy [Ha]    energy [eV]    outer radius [A]
    1    0       -14.128000      -384.4424       1.637919
    2    0        -0.681077       -18.5330       4.463241
    2    1        -0.259788        -7.0692       4.518138


  Species O                   :

  List of atomic basis orbitals and eigenvalues:
    n    l      energy [Ha]    energy [eV]    outer radius [A]
    1    0       -18.898188      -514.2459       1.415765
    2    0        -0.878505       -23.9053       4.413171
    2    1        -0.331779        -9.0282       4.522403

  Assembling full basis from fixed parts.
  | Species H :   atomic orbital   1 s accepted.
  | Species H :    hydro orbital   2 s accepted.
  | Species H :    hydro orbital   2 p accepted.
  | Species C :   atomic orbital   1 s accepted.
  | Species C :    hydro orbital   2 s accepted.
  | Species C :   atomic orbital   2 s accepted.
  | Species C :   atomic orbital   2 p accepted.
  | Species C :    hydro orbital   2 p accepted.
  | Species C :    hydro orbital   3 d accepted.
  | Species N :   atomic orbital   1 s accepted.
  | Species N :    hydro orbital   3 s accepted.
  | Species N :   atomic orbital   2 s accepted.
  | Species N :   atomic orbital   2 p accepted.
  | Species N :    hydro orbital   2 p accepted.
  | Species N :    hydro orbital   3 d accepted.
  | Species O :   atomic orbital   1 s accepted.
  | Species O :    hydro orbital   3 s accepted.
  | Species O :   atomic orbital   2 s accepted.
  | Species O :   atomic orbital   2 p accepted.
  | Species O :    hydro orbital   2 p accepted.
  | Species O :    hydro orbital   3 d accepted.
 
  Basis size parameters after reduction:
  | Total number of radial functions:       21
  | Total number of basis functions :      119
 
  Per-task memory consumption for arrays in subroutine allocate_ext:
  |           5.250512MB.
  Testing on-site integration grid accuracy.
  |  Species  Function  <phi|h_atom|phi> (log., in eV)  <phi|h_atom|phi> (rad., in eV)
           1        1                 -6.4663192853                 -6.4651273558
           1        2                 13.7111246313                 13.7170609718
           1        3                 25.2673269279                 25.2674696378
           2        4               -273.1705927641               -273.1705631568
           2        5                -10.7109323383                -10.7107120029
           2        6                 17.4381822266                 17.4352413244
           2        7                 -5.2255326521                 -5.2270484734
           2        8                  8.6835629259                  8.6603288385
           2        9                 27.4952418996                 27.4953360207
           3       10               -384.4424306495               -384.4423701208
           3       11                 12.5842251816                 12.5842222903
           3       12                -15.7264628251                -15.7264433455
           3       13                 -7.0696854293                 -7.0701769954
           3       14                  8.8090390882                  8.7901077751
           3       15                 35.9586762123                 35.9588528632
           4       16               -514.2458688638               -514.2457643834
           4       17                 15.1795651126                 15.1795290741
           4       18                -21.5359799773                -21.5360846186
           4       19                 -9.0283069236                 -9.0284644067
           4       20                  8.3027758564                  8.2834874195
           4       21                 45.8339351984                 45.8338762259

  Preparing densities etc. for the partition functions (integrals / Hartree potential).

  Preparations completed.
  max(cpu_time)          :      0.146 s.
  Wall clock time (cpu1) :      0.147 s.
------------------------------------------------------------

------------------------------------------------------------
          Begin self-consistency loop: Initialization.

          Date     :  20200805, Time     :  185144.667
------------------------------------------------------------

  Initializing index lists of integration centers etc. from given atomic structure:
  | Number of centers in hartree potential         :        13
  | Number of centers in hartree multipole         :        13
  | Number of centers in electron density summation:        13
  | Number of centers in basis integrals           :        13
  | Number of centers in integrals                 :        13
  | Number of centers in hamiltonian               :        13
  Partitioning the integration grid into batches with parallel hashing+maxmin method.
  | Number of batches:      956
  | Maximal batch size:     139
  | Minimal batch size:      66
  | Average batch size:      72.851
  | Standard deviation of batch sizes:      17.533

  Integration load balanced across     1 MPI tasks.
  Work distribution over tasks is as follows:
  Task     0 has      69646 integration points.
  Initializing partition tables, free-atom densities, potentials, etc. across the integration grid (initialize_grid_storage).
  | initialize_grid_storage: Actual outermost partition radius vs. multipole_radius_free
  | (-- VB: in principle, multipole_radius_free should be larger, hence this output)
  | Species        1: Confinement radius =              4.999999999999999 AA, multipole_radius_free =              5.054417573612229 AA.
  | Species        1: outer_partition_radius set to              5.054417573612229 AA .
  | Species        2: Confinement radius =              4.999999999999999 AA, multipole_radius_free =              5.019602836301480 AA.
  | Species        2: outer_partition_radius set to              5.019602836301480 AA .
  | Species        3: Confinement radius =              4.999999999999999 AA, multipole_radius_free =              5.043624274424571 AA.
  | Species        3: outer_partition_radius set to              5.043624274424571 AA .
  | Species        4: Confinement radius =              4.999999999999999 AA, multipole_radius_free =              5.048384829883283 AA.
  | Species        4: outer_partition_radius set to              5.048384829883283 AA .
  | Original list of interatomic distances with          13 x         13 entries is created.
  | Net number of integration points:    69646
  | of which are non-zero points    :    59520
  Renormalizing the initial density to the exact electron count on the 3D integration grid.
  | Initial density: Formal number of electrons (from input files) :      48.0000000000
  | Integrated number of electrons on 3D grid     :      47.9998757038
  | Charge integration error                      :      -0.0001242962
  | Normalization factor for density and gradient :       1.0000025895
  Obtaining max. number of non-zero basis functions in each batch (get_n_compute_maxes).
  | Maximal number of non-zero basis functions:      119 in task     0
  Selecting the method for density update.
  Loop over occupied states selected for charge density update.
  Allocating        0.050 MB for KS_eigenvector
  Integrating Hamiltonian matrix: batch-based integration.
  Time summed over all CPUs for integration: real work        0.494 s, elapsed        0.494 s
  Integrating overlap matrix.
  Time summed over all CPUs for integration: real work        0.211 s, elapsed        0.211 s

  Updating Kohn-Sham eigenvalues and eigenvectors using ELSI and the ELPA eigensolver.
  Overlap matrix is nonsingular
  | Lowest eigenvalue of overlap  :  0.52E-02
  | Highest eigenvalue of overlap :  0.61E+01
  Finished singularity check of overlap matrix
  | Time :     0.002 s
  Finished Cholesky decomposition
  | Time :     0.000 s
  Finished transformation to standard eigenproblem
  | Time :     0.000 s
  Starting LAPACK eigensolver
  Finished solving standard eigenproblem
  | Time :     0.002 s
  Finished back-transformation of eigenvectors
  | Time :     0.000 s

  Obtaining occupation numbers and chemical potential using ELSI.
  | Chemical potential (Fermi level):    -9.18899300eV
  Writing Kohn-Sham eigenvalues.

  State    Occupation    Eigenvalue [Ha]    Eigenvalue [eV]
      1       2.00000         -19.007790         -517.22828
      2       2.00000         -18.977372         -516.40058
      3       2.00000         -14.245813         -387.64830
      4       2.00000         -10.166648         -276.64858
      5       2.00000         -10.141303         -275.95889
      6       2.00000         -10.132017         -275.70620
      7       2.00000          -1.183972          -32.21753
      8       2.00000          -1.096639          -29.84108
      9       2.00000          -0.990875          -26.96308
     10       2.00000          -0.861135          -23.43267
     11       2.00000          -0.755941          -20.57020
     12       2.00000          -0.678385          -18.45979
     13       2.00000          -0.627798          -17.08325
     14       2.00000          -0.600898          -16.35126
     15       2.00000          -0.599415          -16.31091
     16       2.00000          -0.563478          -15.33302
     17       2.00000          -0.552688          -15.03942
     18       2.00000          -0.531120          -14.45251
     19       2.00000          -0.516992          -14.06808
     20       2.00000          -0.506659          -13.78689
     21       2.00000          -0.459915          -12.51493
     22       2.00000          -0.426128          -11.59553
     23       2.00000          -0.400500          -10.89816
     24       2.00000          -0.387424          -10.54233
     25       0.00000          -0.163275           -4.44294
     26       0.00000          -0.063549           -1.72925
     27       0.00000          -0.034178           -0.93002
     28       0.00000          -0.020055           -0.54572
     29       0.00000           0.006364            0.17318
     30       0.00000           0.012851            0.34969
     31       0.00000           0.014229            0.38720
     32       0.00000           0.031767            0.86442
     33       0.00000           0.047152            1.28306
     34       0.00000           0.057629            1.56816
     35       0.00000           0.078650            2.14017
     36       0.00000           0.133430            3.63082
     37       0.00000           0.161166            4.38556
     38       0.00000           0.210387            5.72491
     39       0.00000           0.215798            5.87216
     40       0.00000           0.221343            6.02306
     41       0.00000           0.259717            7.06725
     42       0.00000           0.269852            7.34303
     43       0.00000           0.286272            7.78985
     44       0.00000           0.300726            8.18318
     45       0.00000           0.314590            8.56044
     46       0.00000           0.366294            9.96737
     47       0.00000           0.380327           10.34922
     48       0.00000           0.410364           11.16657
     49       0.00000           0.453776           12.34787
     50       0.00000           0.465165           12.65778
     51       0.00000           0.485911           13.22231
     52       0.00000           0.525464           14.29861
     53       0.00000           0.580512           15.79655

  Highest occupied state (VBM) at    -10.54233316 eV
  | Occupation number:      2.00000000

  Lowest unoccupied state (CBM) at    -4.44294289 eV
  | Occupation number:      0.00000000

  Overall HOMO-LUMO gap:      6.09939027 eV.
  Calculating total energy contributions from superposition of free atom densities.

  Total energy components:
  | Sum of eigenvalues            :        -188.82181083 Ha       -5138.10289650 eV
  | XC energy correction          :         -41.78352745 Ha       -1136.98763130 eV
  | XC potential correction       :          53.71286180 Ha        1461.60133513 eV
  | Free-atom electrostatic energy:        -146.86544346 Ha       -3996.41205169 eV
  | Hartree energy correction     :           0.00000000 Ha           0.00000000 eV
  | vdW energy correction         :           0.00000000 Ha           0.00000000 eV
  | Entropy correction            :           0.00000000 Ha           0.00000000 eV
  | ---------------------------
  | Total energy                  :        -323.75791994 Ha       -8809.90124436 eV
  | Total energy, T -> 0          :        -323.75791994 Ha       -8809.90124436 eV  <-- do not rely on this value for anything but (periodic) metals
  | Electronic free energy        :        -323.75791994 Ha       -8809.90124436 eV

  Derived energy quantities:
  | Kinetic energy                :         320.48766433 Ha        8720.91306155 eV
  | Electrostatic energy          :        -602.46205681 Ha      -16393.82667460 eV
  | Energy correction for multipole
  | error in Hartree potential    :           0.00000000 Ha           0.00000000 eV
  | Sum of eigenvalues per atom                           :        -395.23868435 eV
  | Total energy (T->0) per atom                          :        -677.68471110 eV  <-- do not rely on this value for anything but (periodic) metals
  | Electronic free energy per atom                       :        -677.68471110 eV
  Initialize hartree_potential_storage
  Max. number of atoms included in rho_multipole:           13

  End scf initialization - timings             :  max(cpu_time)    wall_clock(cpu1)
  | Time for scf. initialization               :        1.146 s           1.150 s
  | Boundary condition initialization          :        0.000 s           0.001 s
  | Integration                                :        0.705 s           0.706 s
  | Solution of K.-S. eqns.                    :        0.004 s           0.004 s
  | Grid partitioning                          :        0.110 s           0.111 s
  | Preloading free-atom quantities on grid    :        0.002 s           0.002 s
  | Free-atom superposition energy             :        0.085 s           0.086 s
  | Total energy evaluation                    :        0.000 s           0.000 s

  Partial memory accounting:
  | Current value for overall tracked memory usage on task 0  :           0.165 MB
  | Peak value for overall tracked memory usage on task 0     :           0.678 MB after allocating wave
  | Largest tracked array allocation on task 0 so far         :           0.132 MB  when allocating H_times_psi
  Note:  These values currently only include a subset of arrays which are explicitly tracked.
  The "true" memory usage will be greater.
------------------------------------------------------------

------------------------------------------------------------
          Begin self-consistency iteration #    1

  Date     :  20200805, Time     :  185145.817
------------------------------------------------------------
  Evaluating new KS density.
  Integration grid: deviation in total charge (<rho> - N_e) =   2.842171E-14
  Pulay mixing of updated and previous charge densities.

  Evaluating partitioned Hartree potential by multipole expansion.
  | Analytical far-field extrapolation by fixed multipoles:
  | Hartree multipole sum: apparent total charge =  -0.229493E-03
  Summing up the Hartree potential.
  Time summed over all CPUs for potential: real work        0.282 s, elapsed        0.282 s
  | RMS charge density error from multipole expansion :   0.587371E-02

  Integrating Hamiltonian matrix: batch-based integration.
  Time summed over all CPUs for integration: real work        0.492 s, elapsed        0.492 s

  Updating Kohn-Sham eigenvalues and eigenvectors using ELSI and the ELPA eigensolver.
  Finished Cholesky decomposition
  | Time :     0.000 s
  Finished transformation to standard eigenproblem
  | Time :     0.000 s
  Starting LAPACK eigensolver
  Finished solving standard eigenproblem
  | Time :     0.001 s
  Finished back-transformation of eigenvectors
  | Time :     0.000 s

  Obtaining occupation numbers and chemical potential using ELSI.
  | Chemical potential (Fermi level):    -8.03583573eV
  Writing Kohn-Sham eigenvalues.

  State    Occupation    Eigenvalue [Ha]    Eigenvalue [eV]
      1       2.00000         -18.895272         -514.16651
      2       2.00000         -18.840483         -512.67561
      3       2.00000         -14.095721         -383.56407
      4       2.00000         -10.118271         -275.33215
      5       2.00000         -10.062695         -273.81986
      6       2.00000         -10.031465         -272.97006
      7       2.00000          -1.132920          -30.82833
      8       2.00000          -1.033869          -28.13302
      9       2.00000          -0.920935          -25.05993
     10       2.00000          -0.795192          -21.63827
     11       2.00000          -0.704683          -19.17539
     12       2.00000          -0.630850          -17.16629
     13       2.00000          -0.572451          -15.57717
     14       2.00000          -0.547392          -14.89528
     15       2.00000          -0.536264          -14.59248
     16       2.00000          -0.503793          -13.70890
     17       2.00000          -0.491511          -13.37468
     18       2.00000          -0.470488          -12.80262
     19       2.00000          -0.454227          -12.36013
     20       2.00000          -0.444461          -12.09439
     21       2.00000          -0.399054          -10.85881
     22       2.00000          -0.369156          -10.04524
     23       2.00000          -0.328683           -8.94391
     24       2.00000          -0.315190           -8.57674
     25       0.00000          -0.128713           -3.50247
     26       0.00000          -0.041962           -1.14184
     27       0.00000          -0.006327           -0.17218
     28       0.00000           0.017170            0.46721
     29       0.00000           0.040144            1.09237
     30       0.00000           0.043314            1.17863
     31       0.00000           0.056953            1.54978
     32       0.00000           0.070023            1.90542
     33       0.00000           0.090427            2.46064
     34       0.00000           0.095737            2.60514
     35       0.00000           0.118429            3.22261
     36       0.00000           0.161126            4.38447
     37       0.00000           0.186019            5.06183
     38       0.00000           0.239847            6.52656
     39       0.00000           0.248016            6.74885
     40       0.00000           0.259582            7.06360
     41       0.00000           0.291610            7.93512
     42       0.00000           0.302285            8.22560
     43       0.00000           0.326537            8.88553
     44       0.00000           0.336516            9.15706
     45       0.00000           0.354730            9.65269
     46       0.00000           0.410686           11.17534
     47       0.00000           0.416839           11.34276
     48       0.00000           0.446544           12.15107
     49       0.00000           0.492611           13.40463
     50       0.00000           0.497873           13.54781
     51       0.00000           0.521632           14.19433
     52       0.00000           0.559223           15.21724
     53       0.00000           0.619441           16.85584

  Highest occupied state (VBM) at     -8.57674340 eV
  | Occupation number:      2.00000000

  Lowest unoccupied state (CBM) at    -3.50246966 eV
  | Occupation number:      0.00000000

  Overall HOMO-LUMO gap:      5.07427375 eV.

  Total energy components:
  | Sum of eigenvalues            :        -185.39004323 Ha       -5044.71974891 eV
  | XC energy correction          :         -42.11439960 Ha       -1145.99112063 eV
  | XC potential correction       :          54.14323751 Ha        1473.31245390 eV
  | Free-atom electrostatic energy:        -146.86544346 Ha       -3996.41205169 eV
  | Hartree energy correction     :          -3.34642650 Ha         -91.06089808 eV
  | vdW energy correction         :           0.00000000 Ha           0.00000000 eV
  | Entropy correction            :           0.00000000 Ha           0.00000000 eV
  | ---------------------------
  | Total energy                  :        -323.57307528 Ha       -8804.87136540 eV
  | Total energy, T -> 0          :        -323.57307528 Ha       -8804.87136540 eV  <-- do not rely on this value for anything but (periodic) metals
  | Electronic free energy        :        -323.57307528 Ha       -8804.87136540 eV

  Derived energy quantities:
  | Kinetic energy                :         322.29271735 Ha        8770.03105338 eV
  | Electrostatic energy          :        -603.75139303 Ha      -16428.91129815 eV
  | Energy correction for multipole
  | error in Hartree potential    :           0.01206072 Ha           0.32818893 eV
  | Sum of eigenvalues per atom                           :        -388.05536530 eV
  | Total energy (T->0) per atom                          :        -677.29779734 eV  <-- do not rely on this value for anything but (periodic) metals
  | Electronic free energy per atom                       :        -677.29779734 eV

  Self-consistency convergence accuracy:
  | Change of charge density      :  0.5905E+00
  | Change of sum of eigenvalues  :  0.9338E+02 eV
  | Change of total energy        :  0.5030E+01 eV

  End self-consistency iteration #     1       :  max(cpu_time)    wall_clock(cpu1)
  | Time for this iteration                    :        1.185 s           1.194 s
  | Charge density update                      :        0.394 s           0.402 s
  | Density mixing                             :        0.005 s           0.005 s
  | Hartree multipole update                   :        0.009 s           0.009 s
  | Hartree multipole summation                :        0.283 s           0.283 s
  | Integration                                :        0.491 s           0.492 s
  | Solution of K.-S. eqns.                    :        0.002 s           0.003 s
  | Total energy evaluation                    :        0.000 s           0.000 s

  Partial memory accounting:
  | Current value for overall tracked memory usage on task 0  :           0.165 MB
  | Peak value for overall tracked memory usage on task 0     :           0.695 MB after allocating gradient_basis_wave
  | Largest tracked array allocation on task 0 so far         :           0.397 MB  when allocating gradient_basis_wave
  Note:  These values currently only include a subset of arrays which are explicitly tracked.
  The "true" memory usage will be greater.
------------------------------------------------------------

------------------------------------------------------------
          Begin self-consistency iteration #    2

  Date     :  20200805, Time     :  185147.012
------------------------------------------------------------
  Evaluating new KS density.
  Integration grid: deviation in total charge (<rho> - N_e) =   7.105427E-15
  Pulay mixing of updated and previous charge densities.

  Evaluating partitioned Hartree potential by multipole expansion.
  | Analytical far-field extrapolation by fixed multipoles:
  | Hartree multipole sum: apparent total charge =  -0.362851E-03
  Summing up the Hartree potential.
  Time summed over all CPUs for potential: real work        0.282 s, elapsed        0.282 s
  | RMS charge density error from multipole expansion :   0.138919E-01

  Integrating Hamiltonian matrix: batch-based integration.
  Time summed over all CPUs for integration: real work        0.497 s, elapsed        0.497 s

  Updating Kohn-Sham eigenvalues and eigenvectors using ELSI and the ELPA eigensolver.
  Finished Cholesky decomposition
  | Time :     0.000 s
  Finished transformation to standard eigenproblem
  | Time :     0.000 s
  Starting LAPACK eigensolver
  Finished solving standard eigenproblem
  | Time :     0.001 s
  Finished back-transformation of eigenvectors
  | Time :     0.000 s

  Obtaining occupation numbers and chemical potential using ELSI.
  | Chemical potential (Fermi level):    -2.54993548eV
  Highest occupied state (VBM) at     -6.56425962 eV
  | Occupation number:      2.00000000

  Lowest unoccupied state (CBM) at    -2.30882876 eV
  | Occupation number:      0.00000000

  Overall HOMO-LUMO gap:      4.25543085 eV.

  Checking to see if s.c.f. parameters should be adjusted.

  Total energy components:
  | Sum of eigenvalues            :        -181.80957500 Ha       -4947.29025112 eV
  | XC energy correction          :         -42.47347542 Ha       -1155.76207059 eV
  | XC potential correction       :          54.60876521 Ha        1485.98010725 eV
  | Free-atom electrostatic energy:        -146.86544346 Ha       -3996.41205169 eV
  | Hartree energy correction     :          -6.95378856 Ha        -189.22221429 eV
  | vdW energy correction         :           0.00000000 Ha           0.00000000 eV
  | Entropy correction            :          -0.00000000 Ha          -0.00000000 eV
  | ---------------------------
  | Total energy                  :        -323.49351722 Ha       -8802.70648043 eV
  | Total energy, T -> 0          :        -323.49351722 Ha       -8802.70648043 eV  <-- do not rely on this value for anything but (periodic) metals
  | Electronic free energy        :        -323.49351722 Ha       -8802.70648043 eV

  Derived energy quantities:
  | Kinetic energy                :         323.60465963 Ha        8805.73081925 eV
  | Electrostatic energy          :        -604.62470144 Ha      -16452.67522909 eV
  | Energy correction for multipole
  | error in Hartree potential    :           0.02649190 Ha           0.72088120 eV
  | Sum of eigenvalues per atom                           :        -380.56078855 eV
  | Total energy (T->0) per atom                          :        -677.13126773 eV  <-- do not rely on this value for anything but (periodic) metals
  | Electronic free energy per atom                       :        -677.13126773 eV

  Self-consistency convergence accuracy:
  | Change of charge density      :  0.3691E+00
  | Change of sum of eigenvalues  :  0.9743E+02 eV
  | Change of total energy        :  0.2165E+01 eV

  End self-consistency iteration #     2       :  max(cpu_time)    wall_clock(cpu1)
  | Time for this iteration                    :        1.183 s           1.185 s
  | Charge density update                      :        0.386 s           0.386 s
  | Density mixing                             :        0.007 s           0.007 s
  | Hartree multipole update                   :        0.009 s           0.009 s
  | Hartree multipole summation                :        0.282 s           0.283 s
  | Integration                                :        0.496 s           0.497 s
  | Solution of K.-S. eqns.                    :        0.002 s           0.002 s
  | Total energy evaluation                    :        0.000 s           0.000 s

  Partial memory accounting:
  | Current value for overall tracked memory usage on task 0  :           0.166 MB
  | Peak value for overall tracked memory usage on task 0     :           0.695 MB after allocating gradient_basis_wave
  | Largest tracked array allocation on task 0 so far         :           0.397 MB  when allocating gradient_basis_wave
  Note:  These values currently only include a subset of arrays which are explicitly tracked.
  The "true" memory usage will be greater.
------------------------------------------------------------

------------------------------------------------------------
          Begin self-consistency iteration #    3

  Date     :  20200805, Time     :  185148.197
------------------------------------------------------------
  Evaluating new KS density.
  Integration grid: deviation in total charge (<rho> - N_e) =   0.000000E+00
  Pulay mixing of updated and previous charge densities.

  Evaluating partitioned Hartree potential by multipole expansion.
  | Analytical far-field extrapolation by fixed multipoles:
  | Hartree multipole sum: apparent total charge =  -0.456286E-03
  Summing up the Hartree potential.
  Time summed over all CPUs for potential: real work        0.282 s, elapsed        0.282 s
  | RMS charge density error from multipole expansion :   0.218068E-01

  Integrating Hamiltonian matrix: batch-based integration.
  Time summed over all CPUs for integration: real work        0.496 s, elapsed        0.496 s

  Updating Kohn-Sham eigenvalues and eigenvectors using ELSI and the ELPA eigensolver.
  Finished Cholesky decomposition
  | Time :     0.000 s
  Finished transformation to standard eigenproblem
  | Time :     0.000 s
  Starting LAPACK eigensolver
  Finished solving standard eigenproblem
  | Time :     0.001 s
  Finished back-transformation of eigenvectors
  | Time :     0.000 s

  Obtaining occupation numbers and chemical potential using ELSI.
  | Chemical potential (Fermi level):    -1.91332202eV
  Highest occupied state (VBM) at     -5.87698143 eV
  | Occupation number:      2.00000000

  Lowest unoccupied state (CBM) at    -1.63960972 eV
  | Occupation number:      0.00000000

  Overall HOMO-LUMO gap:      4.23737171 eV.

  Total energy components:
  | Sum of eigenvalues            :        -180.50963864 Ha       -4911.91718298 eV
  | XC energy correction          :         -42.62389919 Ha       -1159.85530980 eV
  | XC potential correction       :          54.80067565 Ha        1491.20225585 eV
  | Free-atom electrostatic energy:        -146.86544346 Ha       -3996.41205169 eV
  | Hartree energy correction     :          -8.28192106 Ha        -225.36253839 eV
  | vdW energy correction         :           0.00000000 Ha           0.00000000 eV
  | Entropy correction            :           0.00000000 Ha           0.00000000 eV
  | ---------------------------
  | Total energy                  :        -323.48022671 Ha       -8802.34482702 eV
  | Total energy, T -> 0          :        -323.48022671 Ha       -8802.34482702 eV  <-- do not rely on this value for anything but (periodic) metals
  | Electronic free energy        :        -323.48022671 Ha       -8802.34482702 eV

  Derived energy quantities:
  | Kinetic energy                :         323.19173542 Ha        8794.49457982 eV
  | Electrostatic energy          :        -604.04806294 Ha      -16436.98409703 eV
  | Energy correction for multipole
  | error in Hartree potential    :           0.03744182 Ha           1.01884380 eV
  | Sum of eigenvalues per atom                           :        -377.83978331 eV
  | Total energy (T->0) per atom                          :        -677.10344823 eV  <-- do not rely on this value for anything but (periodic) metals
  | Electronic free energy per atom                       :        -677.10344823 eV

  Self-consistency convergence accuracy:
  | Change of charge density      :  0.2071E+00
  | Change of sum of eigenvalues  :  0.3537E+02 eV
  | Change of total energy        :  0.3617E+00 eV

  End self-consistency iteration #     3       :  max(cpu_time)    wall_clock(cpu1)
  | Time for this iteration                    :        1.183 s           1.185 s
  | Charge density update                      :        0.386 s           0.387 s
  | Density mixing                             :        0.008 s           0.008 s
  | Hartree multipole update                   :        0.009 s           0.009 s
  | Hartree multipole summation                :        0.282 s           0.283 s
  | Integration                                :        0.495 s           0.496 s
  | Solution of K.-S. eqns.                    :        0.002 s           0.002 s
  | Total energy evaluation                    :        0.000 s           0.000 s

  Partial memory accounting:
  | Current value for overall tracked memory usage on task 0  :           0.166 MB
  | Peak value for overall tracked memory usage on task 0     :           0.695 MB after allocating gradient_basis_wave
  | Largest tracked array allocation on task 0 so far         :           0.397 MB  when allocating gradient_basis_wave
  Note:  These values currently only include a subset of arrays which are explicitly tracked.
  The "true" memory usage will be greater.
------------------------------------------------------------

------------------------------------------------------------
          Begin self-consistency iteration #    4

  Date     :  20200805, Time     :  185149.383
------------------------------------------------------------
  Evaluating new KS density.
  Integration grid: deviation in total charge (<rho> - N_e) =   0.000000E+00
  Pulay mixing of updated and previous charge densities.

  Evaluating partitioned Hartree potential by multipole expansion.
  | Analytical far-field extrapolation by fixed multipoles:
  | Hartree multipole sum: apparent total charge =  -0.488086E-03
  Summing up the Hartree potential.
  Time summed over all CPUs for potential: real work        0.282 s, elapsed        0.282 s
  | RMS charge density error from multipole expansion :   0.252379E-01

  Integrating Hamiltonian matrix: batch-based integration.
  Time summed over all CPUs for integration: real work        0.497 s, elapsed        0.497 s

  Updating Kohn-Sham eigenvalues and eigenvectors using ELSI and the ELPA eigensolver.
  Finished Cholesky decomposition
  | Time :     0.000 s
  Finished transformation to standard eigenproblem
  | Time :     0.000 s
  Starting LAPACK eigensolver
  Finished solving standard eigenproblem
  | Time :     0.001 s
  Finished back-transformation of eigenvectors
  | Time :     0.000 s

  Obtaining occupation numbers and chemical potential using ELSI.
  | Chemical potential (Fermi level):    -1.81061774eV
  Highest occupied state (VBM) at     -5.71703256 eV
  | Occupation number:      2.00000000

  Lowest unoccupied state (CBM) at    -1.53693827 eV
  | Occupation number:      0.00000000

  Overall HOMO-LUMO gap:      4.18009429 eV.

  Total energy components:
  | Sum of eigenvalues            :        -180.35015608 Ha       -4907.57744161 eV
  | XC energy correction          :         -42.66266794 Ha       -1160.91026120 eV
  | XC potential correction       :          54.84952415 Ha        1492.53149120 eV
  | Free-atom electrostatic energy:        -146.86544346 Ha       -3996.41205169 eV
  | Hartree energy correction     :          -8.45048717 Ha        -229.94945556 eV
  | vdW energy correction         :           0.00000000 Ha           0.00000000 eV
  | Entropy correction            :           0.00000000 Ha           0.00000000 eV
  | ---------------------------
  | Total energy                  :        -323.47923050 Ha       -8802.31771886 eV
  | Total energy, T -> 0          :        -323.47923050 Ha       -8802.31771886 eV  <-- do not rely on this value for anything but (periodic) metals
  | Electronic free energy        :        -323.47923050 Ha       -8802.31771886 eV

  Derived energy quantities:
  | Kinetic energy                :         322.80410332 Ha        8783.94657374 eV
  | Electrostatic energy          :        -603.62066588 Ha      -16425.35403140 eV
  | Energy correction for multipole
  | error in Hartree potential    :           0.04173387 Ha           1.13563652 eV
  | Sum of eigenvalues per atom                           :        -377.50595705 eV
  | Total energy (T->0) per atom                          :        -677.10136299 eV  <-- do not rely on this value for anything but (periodic) metals
  | Electronic free energy per atom                       :        -677.10136299 eV

  Self-consistency convergence accuracy:
  | Change of charge density      :  0.6715E-01
  | Change of sum of eigenvalues  :  0.4340E+01 eV
  | Change of total energy        :  0.2711E-01 eV

  End self-consistency iteration #     4       :  max(cpu_time)    wall_clock(cpu1)
  | Time for this iteration                    :        1.184 s           1.186 s
  | Charge density update                      :        0.385 s           0.386 s
  | Density mixing                             :        0.009 s           0.009 s
  | Hartree multipole update                   :        0.009 s           0.009 s
  | Hartree multipole summation                :        0.282 s           0.283 s
  | Integration                                :        0.496 s           0.497 s
  | Solution of K.-S. eqns.                    :        0.002 s           0.002 s
  | Total energy evaluation                    :        0.000 s           0.000 s

  Partial memory accounting:
  | Current value for overall tracked memory usage on task 0  :           0.166 MB
  | Peak value for overall tracked memory usage on task 0     :           0.696 MB after allocating gradient_basis_wave
  | Largest tracked array allocation on task 0 so far         :           0.397 MB  when allocating gradient_basis_wave
  Note:  These values currently only include a subset of arrays which are explicitly tracked.
  The "true" memory usage will be greater.
------------------------------------------------------------

------------------------------------------------------------
          Begin self-consistency iteration #    5

  Date     :  20200805, Time     :  185150.570
------------------------------------------------------------
  Evaluating new KS density.
  Integration grid: deviation in total charge (<rho> - N_e) =   2.131628E-14
  Pulay mixing of updated and previous charge densities.

  Evaluating partitioned Hartree potential by multipole expansion.
  | Analytical far-field extrapolation by fixed multipoles:
  | Hartree multipole sum: apparent total charge =  -0.481929E-03
  Summing up the Hartree potential.
  Time summed over all CPUs for potential: real work        0.282 s, elapsed        0.282 s
  | RMS charge density error from multipole expansion :   0.250308E-01

  Integrating Hamiltonian matrix: batch-based integration.
  Time summed over all CPUs for integration: real work        0.496 s, elapsed        0.496 s

  Updating Kohn-Sham eigenvalues and eigenvectors using ELSI and the ELPA eigensolver.
  Finished Cholesky decomposition
  | Time :     0.000 s
  Finished transformation to standard eigenproblem
  | Time :     0.000 s
  Starting LAPACK eigensolver
  Finished solving standard eigenproblem
  | Time :     0.002 s
  Finished back-transformation of eigenvectors
  | Time :     0.000 s

  Obtaining occupation numbers and chemical potential using ELSI.
  | Chemical potential (Fermi level):    -1.88209790eV
  Highest occupied state (VBM) at     -5.79287432 eV
  | Occupation number:      2.00000000

  Lowest unoccupied state (CBM) at    -1.63957665 eV
  | Occupation number:      0.00000000

  Overall HOMO-LUMO gap:      4.15329766 eV.

  Total energy components:
  | Sum of eigenvalues            :        -180.57281922 Ha       -4913.63641400 eV
  | XC energy correction          :         -42.63588632 Ha       -1160.18149603 eV
  | XC potential correction       :          54.81476072 Ha        1491.58553015 eV
  | Free-atom electrostatic energy:        -146.86544346 Ha       -3996.41205169 eV
  | Hartree energy correction     :          -8.21955082 Ha        -223.66535779 eV
  | vdW energy correction         :           0.00000000 Ha           0.00000000 eV
  | Entropy correction            :          -0.00000000 Ha          -0.00000000 eV
  | ---------------------------
  | Total energy                  :        -323.47893909 Ha       -8802.30978936 eV
  | Total energy, T -> 0          :        -323.47893909 Ha       -8802.30978936 eV  <-- do not rely on this value for anything but (periodic) metals
  | Electronic free energy        :        -323.47893909 Ha       -8802.30978936 eV

  Derived energy quantities:
  | Kinetic energy                :         322.66782244 Ha        8780.23818210 eV
  | Electrostatic energy          :        -603.51087522 Ha      -16422.36647543 eV
  | Energy correction for multipole
  | error in Hartree potential    :           0.04111432 Ha           1.11877745 eV
  | Sum of eigenvalues per atom                           :        -377.97203185 eV
  | Total energy (T->0) per atom                          :        -677.10075303 eV  <-- do not rely on this value for anything but (periodic) metals
  | Electronic free energy per atom                       :        -677.10075303 eV

  Self-consistency convergence accuracy:
  | Change of charge density      :  0.2035E-01
  | Change of sum of eigenvalues  : -0.6059E+01 eV
  | Change of total energy        :  0.7929E-02 eV

  End self-consistency iteration #     5       :  max(cpu_time)    wall_clock(cpu1)
  | Time for this iteration                    :        1.185 s           1.188 s
  | Charge density update                      :        0.385 s           0.386 s
  | Density mixing                             :        0.011 s           0.011 s
  | Hartree multipole update                   :        0.009 s           0.009 s
  | Hartree multipole summation                :        0.282 s           0.282 s
  | Integration                                :        0.496 s           0.497 s
  | Solution of K.-S. eqns.                    :        0.002 s           0.002 s
  | Total energy evaluation                    :        0.000 s           0.000 s

  Partial memory accounting:
  | Current value for overall tracked memory usage on task 0  :           0.166 MB
  | Peak value for overall tracked memory usage on task 0     :           0.696 MB after allocating gradient_basis_wave
  | Largest tracked array allocation on task 0 so far         :           0.397 MB  when allocating gradient_basis_wave
  Note:  These values currently only include a subset of arrays which are explicitly tracked.
  The "true" memory usage will be greater.
------------------------------------------------------------

------------------------------------------------------------
          Begin self-consistency iteration #    6

  Date     :  20200805, Time     :  185151.758
------------------------------------------------------------
  Evaluating new KS density.
  Integration grid: deviation in total charge (<rho> - N_e) =   2.842171E-14
  Pulay mixing of updated and previous charge densities.

  Evaluating partitioned Hartree potential by multipole expansion.
  | Analytical far-field extrapolation by fixed multipoles:
  | Hartree multipole sum: apparent total charge =  -0.486564E-03
  Summing up the Hartree potential.
  Time summed over all CPUs for potential: real work        0.282 s, elapsed        0.282 s
  | RMS charge density error from multipole expansion :   0.255198E-01

  Integrating Hamiltonian matrix: batch-based integration.
  Time summed over all CPUs for integration: real work        0.496 s, elapsed        0.496 s

  Updating Kohn-Sham eigenvalues and eigenvectors using ELSI and the ELPA eigensolver.
  Finished Cholesky decomposition
  | Time :     0.000 s
  Finished transformation to standard eigenproblem
  | Time :     0.000 s
  Starting LAPACK eigensolver
  Finished solving standard eigenproblem
  | Time :     0.001 s
  Finished back-transformation of eigenvectors
  | Time :     0.000 s

  Obtaining occupation numbers and chemical potential using ELSI.
  | Chemical potential (Fermi level):    -1.86320739eV
  Highest occupied state (VBM) at     -5.74326041 eV
  | Occupation number:      2.00000000

  Lowest unoccupied state (CBM) at    -1.63770231 eV
  | Occupation number:      0.00000000

  Overall HOMO-LUMO gap:      4.10555811 eV.

  Total energy components:
  | Sum of eigenvalues            :        -180.53624296 Ha       -4912.64112343 eV
  | XC energy correction          :         -42.63938383 Ha       -1160.27666830 eV
  | XC potential correction       :          54.81927799 Ha        1491.70845145 eV
  | Free-atom electrostatic energy:        -146.86544346 Ha       -3996.41205169 eV
  | Hartree energy correction     :          -8.25710966 Ha        -224.68738579 eV
  | vdW energy correction         :           0.00000000 Ha           0.00000000 eV
  | Entropy correction            :          -0.00000000 Ha          -0.00000000 eV
  | ---------------------------
  | Total energy                  :        -323.47890192 Ha       -8802.30877777 eV
  | Total energy, T -> 0          :        -323.47890192 Ha       -8802.30877777 eV  <-- do not rely on this value for anything but (periodic) metals
  | Electronic free energy        :        -323.47890192 Ha       -8802.30877777 eV

  Derived energy quantities:
  | Kinetic energy                :         322.60538175 Ha        8778.53908450 eV
  | Electrostatic energy          :        -603.44489983 Ha      -16420.57119396 eV
  | Energy correction for multipole
  | error in Hartree potential    :           0.04164068 Ha           1.13310049 eV
  | Sum of eigenvalues per atom                           :        -377.89547103 eV
  | Total energy (T->0) per atom                          :        -677.10067521 eV  <-- do not rely on this value for anything but (periodic) metals
  | Electronic free energy per atom                       :        -677.10067521 eV

  Self-consistency convergence accuracy:
  | Change of charge density      :  0.1061E-01
  | Change of sum of eigenvalues  :  0.9953E+00 eV
  | Change of total energy        :  0.1012E-02 eV

  End self-consistency iteration #     6       :  max(cpu_time)    wall_clock(cpu1)
  | Time for this iteration                    :        1.186 s           1.189 s
  | Charge density update                      :        0.385 s           0.386 s
  | Density mixing                             :        0.012 s           0.012 s
  | Hartree multipole update                   :        0.009 s           0.009 s
  | Hartree multipole summation                :        0.282 s           0.282 s
  | Integration                                :        0.496 s           0.497 s
  | Solution of K.-S. eqns.                    :        0.002 s           0.002 s
  | Total energy evaluation                    :        0.000 s           0.000 s

  Partial memory accounting:
  | Current value for overall tracked memory usage on task 0  :           0.166 MB
  | Peak value for overall tracked memory usage on task 0     :           0.696 MB after allocating gradient_basis_wave
  | Largest tracked array allocation on task 0 so far         :           0.397 MB  when allocating gradient_basis_wave
  Note:  These values currently only include a subset of arrays which are explicitly tracked.
  The "true" memory usage will be greater.
------------------------------------------------------------

------------------------------------------------------------
          Begin self-consistency iteration #    7

  Date     :  20200805, Time     :  185152.947
------------------------------------------------------------
  Evaluating new KS density.
  Integration grid: deviation in total charge (<rho> - N_e) =  -1.421085E-14
  Pulay mixing of updated and previous charge densities.

  Evaluating partitioned Hartree potential by multipole expansion.
  | Analytical far-field extrapolation by fixed multipoles:
  | Hartree multipole sum: apparent total charge =  -0.486936E-03
  Summing up the Hartree potential.
  Time summed over all CPUs for potential: real work        0.282 s, elapsed        0.282 s
  | RMS charge density error from multipole expansion :   0.256056E-01

  Integrating Hamiltonian matrix: batch-based integration.
  Time summed over all CPUs for integration: real work        0.497 s, elapsed        0.497 s

  Updating Kohn-Sham eigenvalues and eigenvectors using ELSI and the ELPA eigensolver.
  Finished Cholesky decomposition
  | Time :     0.000 s
  Finished transformation to standard eigenproblem
  | Time :     0.000 s
  Starting LAPACK eigensolver
  Finished solving standard eigenproblem
  | Time :     0.002 s
  Finished back-transformation of eigenvectors
  | Time :     0.000 s

[...]
  |   Hirshfeld dipole moment :      0.05695480
  |   Hirshfeld second moments:      0.01916376      -0.03017988      -0.01818838
  |                                 -0.03017988      -0.02145945       0.00665055
  |                                 -0.01818838       0.00665055      -0.01658762
  ----------------------------------------------------------------------
  | Atom    12: O
  |   Hirshfeld charge        :     -0.16436167
  |   Free atom volume        :     23.61338643
  |   Hirshfeld volume        :     20.83230958
  |   Hirshfeld dipole vector :      0.00316659       0.03748212       0.01663615
  |   Hirshfeld dipole moment :      0.04113026
  |   Hirshfeld second moments:      0.11309180       0.00463673      -0.01591181
  |                                  0.00463673       0.03028919       0.00996756
  |                                 -0.01591181       0.00996756       0.03234043
  ----------------------------------------------------------------------
  | Atom    13: H
  |   Hirshfeld charge        :      0.19024725
  |   Free atom volume        :      9.95071624
  |   Hirshfeld volume        :      6.11724473
  |   Hirshfeld dipole vector :     -0.12248643       0.02727617       0.03734274
  |   Hirshfeld dipole moment :      0.13092515
  |   Hirshfeld second moments:      0.12649140       0.00562793      -0.00380361
  |                                  0.00562793       0.11566283       0.00715323
  |                                 -0.00380361       0.00715323       0.10990293
  ----------------------------------------------------------------------


  Total energy components:
  | Sum of eigenvalues            :        -180.54101738 Ha       -4912.77104190 eV
  | XC energy correction          :         -42.63547103 Ha       -1160.17019554 eV
  | XC potential correction       :          54.81429883 Ha        1491.57296158 eV
  | Free-atom electrostatic energy:        -146.86544346 Ha       -3996.41205169 eV
  | Hartree energy correction     :          -8.25124421 Ha        -224.52777890 eV
  | vdW energy correction         :          -0.00324432 Ha          -0.08828251 eV
  | Entropy correction            :          -0.00000000 Ha          -0.00000000 eV
  | ---------------------------
  | Total energy                  :        -323.48212157 Ha       -8802.39638895 eV
  | Total energy, T -> 0          :        -323.48212157 Ha       -8802.39638895 eV  <-- do not rely on this value for anything but (periodic) metals
  | Electronic free energy        :        -323.48212157 Ha       -8802.39638895 eV

  Derived energy quantities:
  | Kinetic energy                :         322.56670811 Ha        8777.48672119 eV
  | Electrostatic energy          :        -603.41011433 Ha      -16419.62463210 eV
  | Energy correction for multipole
  | error in Hartree potential    :           0.04167002 Ha           1.13389887 eV
  | Sum of eigenvalues per atom                           :        -377.90546476 eV
  | Total energy (T->0) per atom                          :        -677.10741453 eV  <-- do not rely on this value for anything but (periodic) metals
  | Electronic free energy per atom                       :        -677.10741453 eV

  atomic forces [eV/Ang]:
  -----------------------
  atom #    1
   Hellmann-Feynman              :  0.133329E+01  0.411128E-02  0.807149E+00
   Ionic forces                  :  0.000000E+00  0.000000E+00  0.000000E+00
   Multipole                     :  0.142219E+00  0.290989E+00 -0.292364E+00
   Pulay + GGA                   : -0.143114E+01 -0.100117E+00 -0.113541E+01
   Van der Waals                 :  0.657894E-02  0.542263E-02 -0.235709E-02
   ----------------------------------------------------------------
   Total forces(   1)            :  0.509487E-01  0.200406E+00 -0.622986E+00
  atom #    2
   Hellmann-Feynman              :  0.483489E+00  0.135876E-01  0.405456E+00
   Ionic forces                  :  0.000000E+00  0.000000E+00  0.000000E+00
   Multipole                     :  0.146161E+00  0.249166E-01 -0.423391E-01
   Pulay + GGA                   : -0.122965E+00  0.604806E-02  0.338958E-02
   Van der Waals                 :  0.848175E-02 -0.364800E-02 -0.116332E-02
   ----------------------------------------------------------------
   Total forces(   2)            :  0.515167E+00  0.409043E-01  0.365343E+00
  atom #    3
   Hellmann-Feynman              : -0.123516E+02  0.157570E+01  0.951797E+00
   Ionic forces                  :  0.000000E+00  0.000000E+00  0.000000E+00
   Multipole                     : -0.107842E+00  0.121767E+00 -0.858904E+00
   Pulay + GGA                   :  0.120796E+02 -0.168645E+01  0.759789E+00
   Van der Waals                 :  0.370660E-02 -0.511843E-02 -0.840576E-02
   ----------------------------------------------------------------
   Total forces(   3)            : -0.376155E+00  0.590414E-02  0.844277E+00
  atom #    4
   Hellmann-Feynman              :  0.197214E+00 -0.117788E-01 -0.914901E-01
   Ionic forces                  :  0.000000E+00  0.000000E+00  0.000000E+00
   Multipole                     :  0.380817E-01  0.123905E-01 -0.999448E-01
   Pulay + GGA                   : -0.167476E+00 -0.124221E+00  0.967920E-01
   Van der Waals                 : -0.281797E-02 -0.667871E-02 -0.555452E-02
   ----------------------------------------------------------------
   Total forces(   4)            :  0.650015E-01 -0.130288E+00 -0.100197E+00
  atom #    5
   Hellmann-Feynman              :  0.210358E+00 -0.894924E-01 -0.257820E+00
   Ionic forces                  :  0.000000E+00  0.000000E+00  0.000000E+00
   Multipole                     :  0.297014E-01 -0.565681E-01 -0.104213E+00
   Pulay + GGA                   : -0.150071E+00  0.155232E+00  0.952930E-01
   Van der Waals                 : -0.371316E-02  0.328506E-02 -0.933618E-03
   ----------------------------------------------------------------
   Total forces(   5)            :  0.862752E-01  0.124569E-01 -0.267674E+00
  atom #    6
   Hellmann-Feynman              : -0.146840E+00 -0.695084E+00  0.487275E+00
   Ionic forces                  :  0.000000E+00  0.000000E+00  0.000000E+00
   Multipole                     : -0.121394E+00  0.675323E+00  0.236545E+00
   Pulay + GGA                   :  0.377393E+00 -0.421973E+00 -0.647633E+00
   Van der Waals                 : -0.570665E-02  0.247691E-02  0.568984E-03
   ----------------------------------------------------------------
   Total forces(   6)            :  0.103452E+00 -0.439256E+00  0.767551E-01
  atom #    7
   Hellmann-Feynman              : -0.213188E+00 -0.317023E-01 -0.647869E-01
   Ionic forces                  :  0.000000E+00  0.000000E+00  0.000000E+00
   Multipole                     : -0.121987E+00  0.480058E-01  0.316345E-01
   Pulay + GGA                   :  0.114565E+00  0.982749E-02 -0.337468E-01
   Van der Waals                 : -0.947390E-03 -0.133399E-03  0.215070E-02
   ----------------------------------------------------------------
   Total forces(   7)            : -0.221558E+00  0.259975E-01 -0.647485E-01
  atom #    8
   Hellmann-Feynman              :  0.119538E+00 -0.350772E-01  0.119259E+00
   Ionic forces                  :  0.000000E+00  0.000000E+00  0.000000E+00
   Multipole                     :  0.112867E-01  0.649136E-01  0.127014E+00
   Pulay + GGA                   : -0.379207E-01 -0.394964E-01 -0.950367E-01
   Van der Waals                 : -0.273943E-02  0.112681E-01  0.118797E-02
   ----------------------------------------------------------------
   Total forces(   8)            :  0.901650E-01  0.160812E-02  0.152424E+00
  atom #    9
   Hellmann-Feynman              :  0.951741E-01  0.719058E-01 -0.189461E+00
   Ionic forces                  :  0.000000E+00  0.000000E+00  0.000000E+00
   Multipole                     :  0.195583E-01  0.128953E+00 -0.686069E-02
   Pulay + GGA                   : -0.515753E-01 -0.752175E-01  0.690387E-01
   Van der Waals                 : -0.228252E-02  0.675435E-02  0.862855E-02
   ----------------------------------------------------------------
   Total forces(   9)            :  0.608746E-01  0.132396E+00 -0.118655E+00
  atom #   10
   Hellmann-Feynman              :  0.304184E+01  0.547990E+01  0.174309E+01
   Ionic forces                  :  0.000000E+00  0.000000E+00  0.000000E+00
   Multipole                     :  0.153207E+00 -0.154821E+00  0.333090E+00
   Pulay + GGA                   : -0.954759E+00 -0.325687E+01 -0.478310E+00
   Van der Waals                 :  0.300265E-02 -0.104648E-01 -0.477517E-03
   ----------------------------------------------------------------
   Total forces(  10)            :  0.224329E+01  0.205775E+01  0.159740E+01
  atom #   11
   Hellmann-Feynman              :  0.394627E+01 -0.220560E+01  0.136491E+02
   Ionic forces                  :  0.000000E+00  0.000000E+00  0.000000E+00
   Multipole                     :  0.657705E-01 -0.684939E+00  0.815203E+00
   Pulay + GGA                   : -0.322035E+01  0.370121E+01 -0.134455E+02
   Van der Waals                 : -0.117423E-02 -0.119488E-01  0.283546E-02
   ----------------------------------------------------------------
   Total forces(  11)            :  0.790517E+00  0.798727E+00  0.102166E+01
  atom #   12
   Hellmann-Feynman              :  0.191033E+01 -0.105659E+02 -0.118533E+02
   Ionic forces                  :  0.000000E+00  0.000000E+00  0.000000E+00
   Multipole                     : -0.655612E+00 -0.140442E+01 -0.486382E+00
   Pulay + GGA                   : -0.381769E+01  0.100778E+02  0.989414E+01
   Van der Waals                 : -0.160200E-03  0.556286E-02  0.566579E-02
   ----------------------------------------------------------------
   Total forces(  12)            : -0.256313E+01 -0.188697E+01 -0.243984E+01
  atom #   13
   Hellmann-Feynman              : -0.115059E+01 -0.692116E+00 -0.294768E+00
   Ionic forces                  :  0.000000E+00  0.000000E+00  0.000000E+00
   Multipole                     : -0.600558E-01  0.145680E-01  0.348259E-02
   Pulay + GGA                   :  0.364092E+00 -0.145530E+00 -0.152498E+00
   Van der Waals                 : -0.222841E-02  0.322215E-02 -0.214565E-02
   ----------------------------------------------------------------
   Total forces(  13)            : -0.848780E+00 -0.819856E+00 -0.445929E+00

  Timings for VdW correction (Tkatchenko-Scheffler 2009 or later):
  | CPU time:        0.089 s, Wall clock time:        0.089 s.
  Removing unitary transformations (pure translations, rotations) from forces on atoms.
  Atomic forces before filtering:
  | Net force on center of mass :  -0.392584E-02 -0.220192E-03 -0.217275E-02 eV/A
  | Net torque on center of mass:  -0.598851E-02  0.511201E-02 -0.699874E-02 eV
  Atomic forces after filtering:
  | Net force on center of mass :  -0.356812E-15 -0.178406E-15  0.267609E-15 eV/A
  | Net torque on center of mass:   0.330430E-15 -0.472042E-15  0.169935E-14 eV

  Energy and forces in a compact form:
  | Total energy uncorrected      :         -0.880239638895204E+04 eV
  | Total energy corrected        :         -0.880239638895204E+04 eV  <-- do not rely on this value for anything but (periodic) metals
  | Electronic free energy        :         -0.880239638895204E+04 eV
  Total atomic forces (unitary forces cleaned) [eV/Ang]:
  |   1          0.512527536315973E-01          0.200532661087185E+00         -0.622727188542802E+00
  |   2          0.515470892550922E+00          0.412765299118509E-01          0.365808862096696E+00
  |   3         -0.375583152838420E+00          0.609861686143047E-02          0.844444437785198E+00
  |   4          0.655032566110754E-01         -0.129921911263624E+00         -0.998461124276112E-01
  |   5          0.871289105022106E-01          0.127495285564039E-01         -0.267579114345596E+00
  |   6          0.103334441805712E+00         -0.439331389325037E+00          0.770766061607538E-01
  |   7         -0.221684241139661E+00          0.256752495258619E-01         -0.646305197093778E-01
  |   8          0.898495507874950E-01          0.148619005619855E-02          0.152815542900224E+00
  |   9          0.606510272668011E-01          0.132464429925906E+00         -0.118153218966660E+00
  |  10          0.224374447844994E+01          0.205769546518955E+01          0.159742066066258E+01
  |  11          0.790815306579939E+00          0.798597290225067E+00          0.102170219099264E+01
  |  12         -0.256235479718945E+01         -0.188709847406627E+01         -0.244005211286322E+01
  |  13         -0.848128427018161E+00         -0.820224186684516E+00         -0.446280033742830E+00

  ------------------------------------ 
  Start decomposition of the XC Energy 
  ------------------------------------ 
  X and C from original XC functional choice 
  Hartree-Fock Energy :          0.000000000 Ha              0.000000000 eV
  X Energy            :        -41.035685228 Ha          -1116.637808964 eV
  C Energy            :         -1.599785802 Ha            -43.532386572 eV
  Total XC Energy     :        -42.635471030 Ha          -1160.170195536 eV
  ------------------------------------ 
  LDA X and C from self-consistent density 
  X Energy LDA        :        -37.253413740 Ha          -1013.716965226 eV
  C Energy LDA        :         -3.138319103 Ha            -85.398007787 eV
  ------------------------------------ 
  End decomposition of the XC Energy 
  ------------------------------------ 

------------------------------------------------------------

------------------------------------------------------------------------------
  Final output of selected total energy values:

  The following output summarizes some interesting total energy values
  at the end of a run (AFTER all relaxation, molecular dynamics, etc.).

  | Total energy of the DFT / Hartree-Fock s.c.f. calculation      :          -8802.396388952 eV
  | Final zero-broadening corrected energy (caution - metals only) :          -8802.396388952 eV
  | For reference only, the value of 1 Hartree used in FHI-aims is :             27.211384500 eV

  Before relying on these values, please be sure to understand exactly which
  total energy value is referred to by a given number. Different objects may
  all carry the same name 'total energy'. Definitions:

  Total energy of the DFT / Hartree-Fock s.c.f. calculation:
  | Note that this energy does not include ANY quantities calculated after the
  | s.c.f. cycle, in particular not ANY RPA, MP2, etc. many-body perturbation terms.

  Final zero-broadening corrected energy:
  | For metallic systems only, a broadening of the occupation numbers at the Fermi
  | level can be extrapolated back to zero broadening by an electron-gas inspired
  | formula. For all systems that are not real metals, this value can be
  | meaningless and should be avoided.

------------------------------------------------------------------------------
  Methods described in the following list of references were used in this FHI-aims run.
  If you publish the results, please make sure to cite these reference if they apply.
  FHI-aims is an academic code, and for our developers (often, Ph.D. students
  and postdocs), scientific credit in the community is essential.
  Thank you for helping us!

  For any use of FHI-aims, please cite:

    Volker Blum, Ralf Gehrke, Felix Hanke, Paula Havu, Ville Havu,
    Xinguo Ren, Karsten Reuter, and Matthias Scheffler
    'Ab initio molecular simulations with numeric atom-centered orbitals'
    Computer Physics Communications 180, 2175-2196 (2009)
    http://dx.doi.org/10.1016/j.cpc.2009.06.022


  The scalable eigensolver library ELPA was used in your run.
  ELPA is essential especially for large systems on hundreds or thousands of CPUs.
  For ELPA, please cite:

    Andreas Marek, Volker Blum, Rainer Johanni, Ville Havu, Bruno Lang,
    Thomas Auckenthaler, Alexander Heinecke, Hans-Joachim Bungartz, and Hermann Lederer,
    'The ELPA Library - Scalable Parallel Eigenvalue Solutions
    for Electronic Structure Theory and Computational Science'
    The Journal of Physics: Condensed Matter 26, 213201 (2014).
    http://dx.doi.org/10.1088/0953-8984/26/21/213201


  The ELSI infrastructure was used in your run to solve the Kohn-Sham electronic structure.
  Please check out http://elsi-interchange.org to learn more.
  If scalability is important for your project, please acknowledge ELSI by citing:

    V. W-z. Yu, F. Corsetti, A. Garcia, W. P. Huhn, M. Jacquelin, W. Jia,
    B. Lange, L. Lin, J. Lu, W. Mi, A. Seifitokaldani, A. Vazquez-Mayagoitia,
    C. Yang, H. Yang, and V. Blum
    'ELSI: A unified software interface for Kohn-Sham electronic structure solvers'
    Computer Physics Communications 222, 267-285 (2018).
    http://dx.doi.org/10.1016/j.cpc.2017.09.007


  For the real-space grid partitioning and parallelization used in this calculation, please cite:

    Ville Havu, Volker Blum, Paula Havu, and Matthias Scheffler,
    'Efficient O(N) integration for all-electron electronic structure calculation'
    'using numerically tabulated basis functions'
    Journal of Computational Physics 228, 8367-8379 (2009).
    http://dx.doi.org/10.1016/j.jcp.2009.08.008

  Of course, there are many other important community references, e.g., those cited in the
  above references. Our list is limited to references that describe implementations in the
  FHI-aims code. The reason is purely practical (length of this list) - please credit others as well.

------------------------------------------------------------
          Leaving FHI-aims.
          Date     :  20200805, Time     :  185207.221

          Computational steps:
          | Number of self-consistency cycles          :           16
          | Number of SCF (re)initializations          :            1

          Detailed time accounting                     :  max(cpu_time)    wall_clock(cpu1)
          | Total time                                 :       22.636 s          22.718 s
          | Preparation time                           :        0.146 s           0.147 s
          | Boundary condition initalization           :        0.000 s           0.001 s
          | Grid partitioning                          :        0.110 s           0.111 s
          | Preloading free-atom quantities on grid    :        0.002 s           0.002 s
          | Free-atom superposition energy             :        0.085 s           0.086 s
          | Total time for integrations                :        8.630 s           8.646 s
          | Total time for solution of K.-S. equations :        0.036 s           0.038 s
          | Total time for density & force components  :        7.115 s           7.138 s
          | Total time for mixing                      :        0.213 s           0.215 s
          | Total time for Hartree multipole update    :        0.139 s           0.142 s
          | Total time for Hartree multipole sum       :        5.759 s           5.782 s
          | Total time for total energy evaluation     :        0.003 s           0.002 s
          | Total time for vdW correction              :        0.089 s           0.089 s

          Partial memory accounting:
          | Residual value for overall tracked memory usage across tasks :           0.000 MB (should be 0.000 MB)
          | Peak values for overall tracked memory usage (after allocating hessian_basis_wave):
          |   Minimum:        1.622 MB (on task 1)
          |   Maximum:        1.622 MB (on task 1)
          |   Average:        1.622 MB
          | Largest tracked array allocation (hessian_basis_wave):
          |   Minimum:        0.794 MB (on task 1)
          |   Maximum:        0.794 MB (on task 1)
          |   Average:        0.794 MB
          Note:  These values currently only include a subset of arrays which are explicitly tracked.
          The "true" memory usage will be greater.

          Have a nice day.
------------------------------------------------------------
