  MPI-parallelism will be employed.
------------------------------------------------------------
          Invoking FHI-aims ...
          Version 171221_1
          Compiled on 2019/09/09 at 14:39:39 on host puhti-login2.bullx.

          When using FHI-aims, please cite the following reference:

          Volker Blum, Ralf Gehrke, Felix Hanke, Paula Havu,
          Ville Havu, Xinguo Ren, Karsten Reuter, and Matthias Scheffler,
          'Ab Initio Molecular Simulations with Numeric Atom-Centered Orbitals',
          Computer Physics Communications 180, 2175-2196 (2009)

          For any questions about FHI-aims, please visit the aimsclub website
          with its forums and wiki. Contributions to both the forums and the
          wiki are warmly encouraged - they are for you, and everyone is welcome there.

------------------------------------------------------------



  Date     :  20200710, Time     :  143155.636
  Time zero on CPU 1             :   0.117570000000000E-01  s.
  Internal wall clock time zero  :           363623515.636  s.

  FHI-aims created a unique identifier for this run for later identification
  aims_uuid : 1EAEF310-B2ED-407F-A7C0-87338114B49A

  Using        1 parallel tasks.
  Task        0 on host r18c45.bullx reporting.

  Performing system and environment tests:
  | Environment variable OMP_NUM_THREADS correctly set to 1.
  | Stacksize not measured: no C compiler
  | Checking for scalapack...
  | Testing pdtran()...
  | All pdtran() tests passed.

  Obtaining array dimensions for all initial allocations:
  
  -----------------------------------------------------------------------
  Parsing control.in (first pass over file, find array dimensions only).
  The contents of control.in will be repeated verbatim below
  unless switched off by setting 'verbatim_writeout .false.' .
  in the first line of control.in .
  -----------------------------------------------------------------------
  
  #########################################################################################
  #
  #  Volker Blum, FHI 2009 : Test run input file control.in for simple H2O
  #
  #########################################################################################
  #
  #  Physical model
  #
    xc                 pbe
    vdw_correction_hirshfeld
    spin               none
    relativistic       none
    charge             0.
  #
  #  SCF convergence
  #
    occupation_type    gaussian 0.01
    mixer              pulay
      n_max_pulay        10
      charge_mix_param   0.2
    sc_accuracy_rho    1E-5
    sc_accuracy_eev    1E-3
    sc_accuracy_etot   1E-6
    sc_accuracy_forces 1E-4
    sc_iter_limit      100
  #
  #  Relaxation
  #
  #  relax_geometry   bfgs 1.e-3
  #
  ################################################################################
  #
  #  FHI-aims code project
  #  VB, Fritz-Haber Institut, 2009
  #
  #  Suggested "light" defaults for H atom (to be pasted into control.in file)
  #  Be sure to double-check any results obtained with these settings for post-processing,
  #  e.g., with the "tight" defaults and larger basis sets.
  #
  ################################################################################
    species        H
  #     global species definitions
      nucleus             1
      mass                1.00794
  #
      l_hartree           4
  #
      cut_pot             3.5  1.5  1.0
      basis_dep_cutoff    1e-4
  #
      radial_base         24 5.0
      radial_multiplier   1
      angular_grids       specified
        division   0.2421   50
        division   0.3822  110
        division   0.4799  194
        division   0.5341  302
  #      division   0.5626  434
  #      division   0.5922  590
  #      division   0.6542  770
  #      division   0.6868 1202
  #      outer_grid  770
        outer_grid  302
  ################################################################################
  #
  #  Definition of "minimal" basis
  #
  ################################################################################
  #     valence basis states
      valence      1  s   1.
  #     ion occupancy
      ion_occ      1  s   0.5
  ################################################################################
  #
  #  Suggested additional basis functions. For production calculations,
  #  uncomment them one after another (the most important basis functions are
  #  listed first).
  #
  #  Basis constructed for dimers: 0.5 A, 0.7 A, 1.0 A, 1.5 A, 2.5 A
  #
  ################################################################################
  #  "First tier" - improvements: -1014.90 meV to -62.69 meV
       hydro 2 s 2.1
       hydro 2 p 3.5
  #  "Second tier" - improvements: -12.89 meV to -1.83 meV
  #     hydro 1 s 0.85
  #     hydro 2 p 3.7
  #     hydro 2 s 1.2
  #     hydro 3 d 7
  #  "Third tier" - improvements: -0.25 meV to -0.12 meV
  #     hydro 4 f 11.2
  #     hydro 3 p 4.8
  #     hydro 4 d 9
  #     hydro 3 s 3.2
  ################################################################################
  #
  #  FHI-aims code project
  #  VB, Fritz-Haber Institut, 2009
  #
  #  Suggested "light" defaults for C atom (to be pasted into control.in file)
  #  Be sure to double-check any results obtained with these settings for post-processing,
  #  e.g., with the "tight" defaults and larger basis sets.
  #
  ################################################################################
    species        C
  #     global species definitions
      nucleus             6
      mass                12.0107
  #
      l_hartree           4
  #
      cut_pot             3.5  1.5  1.0
      basis_dep_cutoff    1e-4
  #
      radial_base         34 5.0
      radial_multiplier   1
      angular_grids specified
        division   0.3326   50
        division   0.5710  110
        division   0.7727  194
        division   0.8772  302
  #      division   0.9334  434
  #      division   0.9625  590
  #      division   0.9924  770
  #      division   1.0230  974
  #      division   1.4589 1202
  #     outer_grid  974
       outer_grid 302
  ################################################################################
  #
  #  Definition of "minimal" basis
  #
  ################################################################################
  #     valence basis states
      valence      2  s   2.
      valence      2  p   2.
  #     ion occupancy
      ion_occ      2  s   1.
      ion_occ      2  p   1.
  ################################################################################
  #
  #  Suggested additional basis functions. For production calculations,
  #  uncomment them one after another (the most important basis functions are
  #  listed first).
  #
  #  Constructed for dimers: 1.0 A, 1.25 A, 1.5 A, 2.0 A, 3.0 A
  #
  ################################################################################
  #  "First tier" - improvements: -1214.57 meV to -155.61 meV
       hydro 2 p 1.7
       hydro 3 d 6
       hydro 2 s 4.9
  #  "Second tier" - improvements: -67.75 meV to -5.23 meV
  #     hydro 4 f 9.8
  #     hydro 3 p 5.2
  #     hydro 3 s 4.3
  #     hydro 5 g 14.4
  #     hydro 3 d 6.2
  #  "Third tier" - improvements: -2.43 meV to -0.60 meV
  #     hydro 2 p 5.6
  #     hydro 2 s 1.4
  #     hydro 3 d 4.9
  #     hydro 4 f 11.2
  #  "Fourth tier" - improvements: -0.39 meV to -0.18 meV
  #     hydro 2 p 2.1
  #     hydro 5 g 16.4
  #     hydro 4 d 13.2
  #     hydro 3 s 13.6
  #     hydro 4 f 17.6
  #  Further basis functions - improvements: -0.08 meV and below
  #     hydro 3 s 2
  #     hydro 3 p 6
  #     hydro 4 d 20
  ################################################################################
  #
  #  FHI-aims code project
  #  VB, Fritz-Haber Institut, 2009
  #
  #  Suggested "light" defaults for N atom (to be pasted into control.in file)
  #  Be sure to double-check any results obtained with these settings for post-processing,
  #  e.g., with the "tight" defaults and larger basis sets.
  #
  ################################################################################
    species        N
  #     global species definitions
      nucleus             7
      mass                14.0067
  #
      l_hartree           4
  #
      cut_pot             3.5  1.5  1.0
      basis_dep_cutoff    1e-4
  #
      radial_base         35 5.0
      radial_multiplier   1
      angular_grids       specified
        division   0.2599   50
        division   0.4601  110
        division   0.5885  194
        division   0.6503  302
  #      division   0.6939  434
  #      division   0.7396  590
  #      division   0.7632  770
  #      division   0.8122  974
  #      division   1.1604 1202
  #      outer_grid  974
        outer_grid  302
  ################################################################################
  #
  #  Definition of "minimal" basis
  #
  ################################################################################
  #     valence basis states
      valence      2  s   2.
      valence      2  p   3.
  #     ion occupancy
      ion_occ      2  s   1.
      ion_occ      2  p   2.
  ################################################################################
  #
  #  Suggested additional basis functions. For production calculations,
  #  uncomment them one after another (the most important basis functions are
  #  listed first).
  #
  #  Constructed for dimers: 1.0 A, 1.1 A, 1.5 A, 2.0 A, 3.0 A
  #
  ################################################################################
  #  "First tier" - improvements: -1193.42 meV to -220.60 meV
       hydro 2 p 1.8
       hydro 3 d 6.8
       hydro 3 s 5.8
  #  "Second tier" - improvements: -80.21 meV to -6.86 meV
  #     hydro 4 f 10.8
  #     hydro 3 p 5.8
  #     hydro 1 s 0.8
  #     hydro 5 g 16
  #     hydro 3 d 4.9
  #  "Third tier" - improvements: -4.29 meV to -0.53 meV
  #     hydro 3 s 16
  #     ionic 2 p auto
  #     hydro 3 d 6.6
  #     hydro 4 f 11.6
  #  "Fourth tier" - improvements: -0.75 meV to -0.25 meV
  #     hydro 2 p 4.5
  #     hydro 2 s 2.4
  #     hydro 5 g 14.4
  #     hydro 4 d 14.4
  #     hydro 4 f 16.8
  # Further basis functions - -0.21 meV and below
  #     hydro 3 p 14.8
  #     hydro 3 s 4.4
  #     hydro 3 d 19.6
  #     hydro 5 g 12.8
  ################################################################################
  #
  #  FHI-aims code project
  #  VB, Fritz-Haber Institut, 2009
  #
  #  Suggested "light" defaults for O atom (to be pasted into control.in file)
  #  Be sure to double-check any results obtained with these settings for post-processing,
  #  e.g., with the "tight" defaults and larger basis sets.
  #
  ################################################################################
    species        O
  #     global species definitions
      nucleus             8
      mass                15.9994
  #
      l_hartree           4
  #
      cut_pot             3.5  1.5  1.0
      basis_dep_cutoff    1e-4
  #
      radial_base         36 5.0
      radial_multiplier   1
       angular_grids specified
        division   0.2659   50
        division   0.4451  110
        division   0.6052  194
        division   0.7543  302
  #      division   0.8014  434
  #      division   0.8507  590
  #      division   0.8762  770
  #      division   0.9023  974
  #      division   1.2339 1202
  #      outer_grid 974
        outer_grid 302
  ################################################################################
  #
  #  Definition of "minimal" basis
  #
  ################################################################################
  #     valence basis states
      valence      2  s   2.
      valence      2  p   4.
  #     ion occupancy
      ion_occ      2  s   1.
      ion_occ      2  p   3.
  ################################################################################
  #
  #  Suggested additional basis functions. For production calculations,
  #  uncomment them one after another (the most important basis functions are
  #  listed first).
  #
  #  Constructed for dimers: 1.0 A, 1.208 A, 1.5 A, 2.0 A, 3.0 A
  #
  ################################################################################
  #  "First tier" - improvements: -699.05 meV to -159.38 meV
       hydro 2 p 1.8
       hydro 3 d 7.6
       hydro 3 s 6.4
  #  "Second tier" - improvements: -49.91 meV to -5.39 meV
  #     hydro 4 f 11.6
  #     hydro 3 p 6.2
  #     hydro 3 d 5.6
  #     hydro 5 g 17.6
  #     hydro 1 s 0.75
  #  "Third tier" - improvements: -2.83 meV to -0.50 meV
  #     ionic 2 p auto
  #     hydro 4 f 10.8
  #     hydro 4 d 4.7
  #     hydro 2 s 6.8
  #  "Fourth tier" - improvements: -0.40 meV to -0.12 meV
  #     hydro 3 p 5
  #     hydro 3 s 3.3
  #     hydro 5 g 15.6
  #     hydro 4 f 17.6
  #     hydro 4 d 14
  # Further basis functions - -0.08 meV and below
  #     hydro 3 s 2.1
  #     hydro 4 d 11.6
  #     hydro 3 p 16
  #     hydro 2 s 17.2
  
  -----------------------------------------------------------------------
  Completed first pass over input file control.in .
  -----------------------------------------------------------------------
  
  
  -----------------------------------------------------------------------
  Parsing geometry.in (first pass over file, find array dimensions only).
  The contents of geometry.in will be repeated verbatim below
  unless switched off by setting 'verbatim_writeout .false.' .
  in the first line of geometry.in .
  -----------------------------------------------------------------------
  
  atom  0.00000 0.00000 0.00000 C
  atom  1.09300 0.00000 0.00000 H
  atom  -0.47961 0.00000 -1.41207 N
  atom  -0.44626 0.95574 -1.76883 H
  atom  0.12760 -0.60278 -1.96351 H
  atom  -0.49584 1.26211 0.72868 C
  atom  -1.58789 1.28919 0.74431 H
  atom  -0.13407 1.27425 1.75947 H
  atom  -0.13407 2.16087 0.22380 H
  atom  -0.39425 -1.28861 0.74398 C
  atom  -0.10189 -1.56493 1.88303 O
  atom  -1.10210 -2.13717 0.06896 O
  atom  -0.44873 -2.35222 -0.61795 H
  
  -----------------------------------------------------------------------
  Completed first pass over input file geometry.in .
  -----------------------------------------------------------------------
  

  Basic array size parameters:
  | Number of species                 :        4
  | Number of atoms                   :       13
  | Max. basis fn. angular momentum   :        2
  | Max. atomic/ionic basis occupied n:        2
  | Max. number of basis fn. types    :        2
  | Max. radial fns per species/type  :        3
  | Max. logarithmic grid size        :     1301
  | Max. radial integration grid size :       36
  | Max. angular integration grid size:      302
  | Max. angular grid division number :        8
  | Radial grid for Hartree potential :     1301
  | Number of spin channels           :        1

------------------------------------------------------------
          Reading file control.in.
------------------------------------------------------------
  XC: Using PBE gradient-corrected functionals.
  Spin treatment: No spin polarisation.
  Non-relativistic treatment of kinetic energy.
  Charge =   0.000000E+00: Neutral system requested explicitly.
  Occupation type: Gaussian broadening, width =   0.100000E-01 eV.
  Using pulay charge density mixing.
  Pulay mixing - number of memorized iterations:   10
  Charge density mixing - mixing parameter:     0.2000
  Convergence accuracy of self-consistent charge density:  0.1000E-04
  Convergence accuracy of sum of eigenvalues:  0.1000E-02
  Convergence accuracy of total energy:  0.1000E-05
  Convergence accuracy of forces:  0.1000E-03
  Maximum number of s.-c. iterations  :   100
 
  Reading configuration options for species H                   .
  | Found nuclear charge :   1.0000
  | Found atomic mass :    1.00794000000000      amu
  | Found l_max for Hartree potential  :   4
  | Found cutoff potl. onset [A], width [A], scale factor :    3.50000    1.50000    1.00000
  | Threshold for basis-dependent cutoff potential is   0.100000E-03
  | Found data for basic radial integration grid :    24 points, outermost radius =    5.000 A
  | Found multiplier for basic radial grid :   1
  | Found angular grid specification: user-specified.
  | Specified grid contains     5 separate shells.
  | Check grid settings after all constraints further below.
  | Found free-atom valence shell :  1 s   1.000
  | No ionic wave fns used. Skipping ion_occ.
  | Found hydrogenic basis function :  2 s   2.100
  | Found hydrogenic basis function :  2 p   3.500
  Species H                   : Missing cutoff potential type.
  Defaulting to exp(1/x)/(1-x)^2 type cutoff potential.
  Species H : No 'logarithmic' tag. Using default grid for free atom:
  | Default logarithmic grid data [bohr] : 0.1000E-03 0.1000E+03 0.1012E+01
  Species H : On-site basis accuracy parameter (for Gram-Schmidt orthonormalisation) not specified.
  Using default value basis_acc =  0.1000000E-03.
  Species H                   : Using default innermost maximum threshold i_radial=  2 for radial functions.
  Species H                   : Default cutoff onset for free atom density etc. : 0.35000000E+01 AA.
  Species H                   : Basic radial grid will be enhanced according to radial_multiplier =   1, to contain    24 grid points.
 
  Reading configuration options for species C                   .
  | Found nuclear charge :   6.0000
  | Found atomic mass :    12.0107000000000      amu
  | Found l_max for Hartree potential  :   4
  | Found cutoff potl. onset [A], width [A], scale factor :    3.50000    1.50000    1.00000
  | Threshold for basis-dependent cutoff potential is   0.100000E-03
  | Found data for basic radial integration grid :    34 points, outermost radius =    5.000 A
  | Found multiplier for basic radial grid :   1
  | Found angular grid specification: user-specified.
  | Specified grid contains     5 separate shells.
  | Check grid settings after all constraints further below.
  | Found free-atom valence shell :  2 s   2.000
  | Found free-atom valence shell :  2 p   2.000
  | No ionic wave fns used. Skipping ion_occ.
  | No ionic wave fns used. Skipping ion_occ.
  | Found hydrogenic basis function :  2 p   1.700
  | Found hydrogenic basis function :  3 d   6.000
  | Found hydrogenic basis function :  2 s   4.900
  Species C                   : Missing cutoff potential type.
  Defaulting to exp(1/x)/(1-x)^2 type cutoff potential.
  Species C : No 'logarithmic' tag. Using default grid for free atom:
  | Default logarithmic grid data [bohr] : 0.1000E-03 0.1000E+03 0.1012E+01
  Species C : On-site basis accuracy parameter (for Gram-Schmidt orthonormalisation) not specified.
  Using default value basis_acc =  0.1000000E-03.
  Species C                   : Using default innermost maximum threshold i_radial=  2 for radial functions.
  Species C                   : Default cutoff onset for free atom density etc. : 0.35000000E+01 AA.
  Species C                   : Basic radial grid will be enhanced according to radial_multiplier =   1, to contain    34 grid points.
 
  Reading configuration options for species N                   .
  | Found nuclear charge :   7.0000
  | Found atomic mass :    14.0067000000000      amu
  | Found l_max for Hartree potential  :   4
  | Found cutoff potl. onset [A], width [A], scale factor :    3.50000    1.50000    1.00000
  | Threshold for basis-dependent cutoff potential is   0.100000E-03
  | Found data for basic radial integration grid :    35 points, outermost radius =    5.000 A
  | Found multiplier for basic radial grid :   1
  | Found angular grid specification: user-specified.
  | Specified grid contains     5 separate shells.
  | Check grid settings after all constraints further below.
  | Found free-atom valence shell :  2 s   2.000
  | Found free-atom valence shell :  2 p   3.000
  | No ionic wave fns used. Skipping ion_occ.
  | No ionic wave fns used. Skipping ion_occ.
  | Found hydrogenic basis function :  2 p   1.800
  | Found hydrogenic basis function :  3 d   6.800
  | Found hydrogenic basis function :  3 s   5.800
  Species N                   : Missing cutoff potential type.
  Defaulting to exp(1/x)/(1-x)^2 type cutoff potential.
  Species N : No 'logarithmic' tag. Using default grid for free atom:
  | Default logarithmic grid data [bohr] : 0.1000E-03 0.1000E+03 0.1012E+01
  Species N : On-site basis accuracy parameter (for Gram-Schmidt orthonormalisation) not specified.
  Using default value basis_acc =  0.1000000E-03.
  Species N                   : Using default innermost maximum threshold i_radial=  2 for radial functions.
  Species N                   : Default cutoff onset for free atom density etc. : 0.35000000E+01 AA.
  Species N                   : Basic radial grid will be enhanced according to radial_multiplier =   1, to contain    35 grid points.
 
  Reading configuration options for species O                   .
  | Found nuclear charge :   8.0000
  | Found atomic mass :    15.9994000000000      amu
  | Found l_max for Hartree potential  :   4
  | Found cutoff potl. onset [A], width [A], scale factor :    3.50000    1.50000    1.00000
  | Threshold for basis-dependent cutoff potential is   0.100000E-03
  | Found data for basic radial integration grid :    36 points, outermost radius =    5.000 A
  | Found multiplier for basic radial grid :   1
  | Found angular grid specification: user-specified.
  | Specified grid contains     5 separate shells.
  | Check grid settings after all constraints further below.
  | Found free-atom valence shell :  2 s   2.000
  | Found free-atom valence shell :  2 p   4.000
  | No ionic wave fns used. Skipping ion_occ.
  | No ionic wave fns used. Skipping ion_occ.
  | Found hydrogenic basis function :  2 p   1.800
  | Found hydrogenic basis function :  3 d   7.600
  | Found hydrogenic basis function :  3 s   6.400
  Species O                   : Missing cutoff potential type.
  Defaulting to exp(1/x)/(1-x)^2 type cutoff potential.
  Species O : No 'logarithmic' tag. Using default grid for free atom:
  | Default logarithmic grid data [bohr] : 0.1000E-03 0.1000E+03 0.1012E+01
  Species O : On-site basis accuracy parameter (for Gram-Schmidt orthonormalisation) not specified.
  Using default value basis_acc =  0.1000000E-03.
  Species O                   : Using default innermost maximum threshold i_radial=  2 for radial functions.
  Species O                   : Default cutoff onset for free atom density etc. : 0.35000000E+01 AA.
  Species O                   : Basic radial grid will be enhanced according to radial_multiplier =   1, to contain    36 grid points.
 
  Finished reading input file 'control.in'. Consistency checks are next.
 
  MPI_IN_PLACE appears to work with this MPI implementation.
  | Keeping use_mpi_in_place .true. (see manual).
  Target number of points in a grid batch is not set. Defaulting to  100
  Method for grid partitioning is not set. Defaulting to parallel hash+maxmin partitioning.
  Batch size limit is not set. Defaulting to    200
  By default, will store active basis functions for each batch.
  If in need of memory, prune_basis_once .false. can be used to disable this option.
  communication_type for Hartree potential was not specified.
  Defaulting to calc_hartree .
  Pulay mixer: Number of initial linear mixing iterations not set.
  Defaulting to    0 iterations.
  Work space size for distributed Hartree potential not set.
  Defaulting to   0.200000E+03 MB.
  Algorithm-dependent basis array size parameters:
  | n_max_pulay                         :       10
  Presetting      1001 iterations before the initial mixing cycle
  is restarted anyway using the sc_init_iter criterion / keyword.
  Presetting a factor      1.000 between actual scf density residual
  and density convergence criterion sc_accuracy_rho below which sc_init_iter
  takes no effect.
  Geometry relaxation not requested: no relaxation will be performed.
  Handling of forces: Unphysical translation and rotation will be removed from forces.
  No accuracy limit for integral partition fn. given. Defaulting to  0.1000E-14.
  No threshold value for u(r) in integrations given. Defaulting to  0.1000E-05.
  No accuracy for occupation numbers given. Defaulting to  0.1000E-12.
  No threshold value for occupation numbers given. Defaulting to  0.0000E+00.
  No accuracy for fermi level given. Defaulting to  0.1000E-19.
  Maximum # of iterations to find E_F not set. Defaulting to  200.
  Preferred method for the eigenvalue solver ('KS_method') not specified in 'control.in'.
  Defaulting to serial version, 'lapack_fast'.
  Will not use alltoall communication since running on < 1024 CPUs.
  Threshold for basis singularities not set.
  Default threshold for basis singularities:  0.1000E-04
  partition_type (choice of integration weights) for integrals was not specified.
  | Using a version of the partition function of Stratmann and coworkers ('stratmann_smoother').
  | At each grid point, the set of atoms used to build the partition table is smoothly restricted to
  | only those atoms whose free-atom density would be non-zero at that grid point.
  Partitioning for Hartree potential was not defined. Using partition_type for integrals.
  | Adjusted default value of keyword multip_moments_threshold to:       0.10000000E-11
  | This value may affect high angular momentum components of the Hartree potential in periodic systems.
  No q(lm)/r^(l+1) cutoff set for long-range Hartree potential.
  | Using default value of  0.100000E-09 .
  | Verify using the multipole_threshold keyword.
  Defaulting to new monopole extrapolation.
  Density update method: automatic selection selected.
------------------------------------------------------------


------------------------------------------------------------
          Reading geometry description geometry.in.
------------------------------------------------------------
  Input structure read successfully.
  The structure contains       13 atoms,  and a total of         48.000 electrons.

  Input geometry:
  | No unit cell requested.
  | Atomic structure:
  |       Atom                x [A]            y [A]            z [A]
  |    1: Species C             0.00000000        0.00000000        0.00000000
  |    2: Species H             1.09300000        0.00000000        0.00000000
  |    3: Species N            -0.47961000        0.00000000       -1.41207000
  |    4: Species H            -0.44626000        0.95574000       -1.76883000
  |    5: Species H             0.12760000       -0.60278000       -1.96351000
  |    6: Species C            -0.49584000        1.26211000        0.72868000
  |    7: Species H            -1.58789000        1.28919000        0.74431000
  |    8: Species H            -0.13407000        1.27425000        1.75947000
  |    9: Species H            -0.13407000        2.16087000        0.22380000
  |   10: Species C            -0.39425000       -1.28861000        0.74398000
  |   11: Species O            -0.10189000       -1.56493000        1.88303000
  |   12: Species O            -1.10210000       -2.13717000        0.06896000
  |   13: Species H            -0.44873000       -2.35222000       -0.61795000
  |

  | The smallest distance between any two atoms is         0.97210298 AA.
  |
  | The first atom of this pair is atom number                     12 .
  | The second atom of this pair is atom number                    13 .

  Number of empty states per atom not set in control.in - providing a guess from actual geometry.
  | Total number of empty states used during s.c.f. cycle:       29
  If you use a very high smearing, use empty_states (per atom!) in control.in to increase this value.

  Structure-dependent array size parameters: 
  | Maximum number of distinct radial functions  :       21
  | Maximum number of basis functions            :      119
  | Number of Kohn-Sham states (occupied + empty):       53
------------------------------------------------------------

------------------------------------------------------------
          Preparing all fixed parts of the calculation.
------------------------------------------------------------
  Determining machine precision:
    2.225073858507201E-308
  Setting up grids for atomic and cluster calculations.

  Creating wave function, potential, and density for free atoms.

  Species: H

  List of occupied orbitals and eigenvalues:
    n    l              occ      energy [Ha]    energy [eV]
    1    0           1.0000        -0.237589        -6.4651


  Species: C

  List of occupied orbitals and eigenvalues:
    n    l              occ      energy [Ha]    energy [eV]
    1    0           2.0000       -10.038835      -273.1706
    2    0           2.0000        -0.502696       -13.6791
    2    1           2.0000        -0.191971        -5.2238


  Species: N

  List of occupied orbitals and eigenvalues:
    n    l              occ      energy [Ha]    energy [eV]
    1    0           2.0000       -14.128000      -384.4424
    2    0           2.0000        -0.681077       -18.5330
    2    1           3.0000        -0.259788        -7.0692


  Species: O

  List of occupied orbitals and eigenvalues:
    n    l              occ      energy [Ha]    energy [eV]
    1    0           2.0000       -18.898188      -514.2459
    2    0           2.0000        -0.878505       -23.9053
    2    1           4.0000        -0.331779        -9.0282

  Creating fixed part of basis set: Ionic, confined, hydrogenic.
 
  H                    hydrogenic:
 
  List of hydrogenic basis orbitals: 
    n    l      effective z      eigenvalue [eV]  inner max. [A]     outer max. [A]     outer radius [A]   
    2    0         2.100000       -14.9728           0.193243           1.317208           4.583499
    2    1         3.500000       -41.6669           0.602369           0.602369           3.723403
 
 
  C                    hydrogenic:
 
  List of hydrogenic basis orbitals: 
    n    l      effective z      eigenvalue [eV]  inner max. [A]     outer max. [A]     outer radius [A]   
    2    1         1.700000        -9.7616           1.230570           1.230570           4.607917
    3    2         6.000000       -54.4224           0.792453           0.792453           3.883070
    2    0         4.900000       -81.6679           0.082559           0.562749           3.078220
 
 
  N                    hydrogenic:
 
  List of hydrogenic basis orbitals: 
    n    l      effective z      eigenvalue [eV]  inner max. [A]     outer max. [A]     outer radius [A]   
    2    1         1.800000       -10.9749           1.177451           1.177451           4.573712
    3    2         6.800000       -69.9026           0.704619           0.704619           3.538137
    3    0         5.800000       -50.8545           0.067388           1.191934           4.250239
 
 
  O                    hydrogenic:
 
  List of hydrogenic basis orbitals: 
    n    l      effective z      eigenvalue [eV]  inner max. [A]     outer max. [A]     outer radius [A]   
    2    1         1.800000       -10.9749           1.164242           1.164242           4.578029
    3    2         7.600000       -87.3180           0.624125           0.624125           3.251020
    3    0         6.400000       -61.9207           0.061167           1.081902           4.001998
 

  Adding cutoff potential to free-atom effective potential.
  Creating atomic-like basis functions for current effective potential.

  Species H                   :

  List of atomic basis orbitals and eigenvalues:
    n    l      energy [Ha]    energy [eV]    outer radius [A]
    1    0        -0.237589        -6.4651       4.527807


  Species C                   :

  List of atomic basis orbitals and eigenvalues:
    n    l      energy [Ha]    energy [eV]    outer radius [A]
    1    0       -10.038835      -273.1706       1.934409
    2    0        -0.502696       -13.6791       4.496620
    2    1        -0.191971        -5.2238       4.551928


  Species N                   :

  List of atomic basis orbitals and eigenvalues:
    n    l      energy [Ha]    energy [eV]    outer radius [A]
    1    0       -14.128000      -384.4424       1.637919
    2    0        -0.681077       -18.5330       4.463241
    2    1        -0.259788        -7.0692       4.518138


  Species O                   :

  List of atomic basis orbitals and eigenvalues:
    n    l      energy [Ha]    energy [eV]    outer radius [A]
    1    0       -18.898188      -514.2459       1.415765
    2    0        -0.878505       -23.9053       4.413171
    2    1        -0.331779        -9.0282       4.522403

  Assembling full basis from fixed parts.
  | Species H :   atomic orbital   1 s accepted.
  | Species H :    hydro orbital   2 s accepted.
  | Species H :    hydro orbital   2 p accepted.
  | Species C :   atomic orbital   1 s accepted.
  | Species C :    hydro orbital   2 s accepted.
  | Species C :   atomic orbital   2 s accepted.
  | Species C :   atomic orbital   2 p accepted.
  | Species C :    hydro orbital   2 p accepted.
  | Species C :    hydro orbital   3 d accepted.
  | Species N :   atomic orbital   1 s accepted.
  | Species N :    hydro orbital   3 s accepted.
  | Species N :   atomic orbital   2 s accepted.
  | Species N :   atomic orbital   2 p accepted.
  | Species N :    hydro orbital   2 p accepted.
  | Species N :    hydro orbital   3 d accepted.
  | Species O :   atomic orbital   1 s accepted.
  | Species O :    hydro orbital   3 s accepted.
  | Species O :   atomic orbital   2 s accepted.
  | Species O :   atomic orbital   2 p accepted.
  | Species O :    hydro orbital   2 p accepted.
  | Species O :    hydro orbital   3 d accepted.
 
  Basis size parameters after reduction:
  | Total number of radial functions:       21
  | Total number of basis functions :      119
 
  Per-task memory consumption for arrays in subroutine allocate_ext:
  |           5.250512MB.
  Testing on-site integration grid accuracy.
  |  Species  Function  <phi|h_atom|phi> (log., in eV)  <phi|h_atom|phi> (rad., in eV)
           1        1                 -6.4663192853                 -6.4651273558
           1        2                 13.7111246313                 13.7170609718
           1        3                 25.2673269279                 25.2674696378
           2        4               -273.1705927641               -273.1705631568
           2        5                -10.7109323383                -10.7107120029
           2        6                 17.4381822266                 17.4352413244
           2        7                 -5.2255326521                 -5.2270484734
           2        8                  8.6835629259                  8.6603288385
           2        9                 27.4952418996                 27.4953360207
           3       10               -384.4424306495               -384.4423701208
           3       11                 12.5842251816                 12.5842222903
           3       12                -15.7264628251                -15.7264433455
           3       13                 -7.0696854293                 -7.0701769954
           3       14                  8.8090390882                  8.7901077751
           3       15                 35.9586762123                 35.9588528632
           4       16               -514.2458688638               -514.2457643834
           4       17                 15.1795651126                 15.1795290741
           4       18                -21.5359799773                -21.5360846186
           4       19                 -9.0283069236                 -9.0284644067
           4       20                  8.3027758564                  8.2834874195
           4       21                 45.8339351984                 45.8338762259

  Preparing densities etc. for the partition functions (integrals / Hartree potential).

  Preparations completed.
  max(cpu_time)          :      0.149 s.
  Wall clock time (cpu1) :      0.150 s.
------------------------------------------------------------

------------------------------------------------------------
          Begin self-consistency loop: Initialization.

          Date     :  20200710, Time     :  143155.803
------------------------------------------------------------

  Initializing index lists of integration centers etc. from given atomic structure:
  | Number of centers in hartree potential         :        13
  | Number of centers in hartree multipole         :        13
  | Number of centers in electron density summation:        13
  | Number of centers in basis integrals           :        13
  | Number of centers in integrals                 :        13
  | Number of centers in hamiltonian               :        13
  Partitioning the integration grid into batches with parallel hashing+maxmin method.
  | Number of batches:      958
  | Maximal batch size:     139
  | Minimal batch size:      66
  | Average batch size:      72.699
  | Standard deviation of batch sizes:      17.175

  Integration load balanced across     1 MPI tasks.
  Work distribution over tasks is as follows:
  Task     0 has      69646 integration points.
  Initializing partition tables, free-atom densities, potentials, etc. across the integration grid (initialize_grid_storage).
  | initialize_grid_storage: Actual outermost partition radius vs. multipole_radius_free
  | (-- VB: in principle, multipole_radius_free should be larger, hence this output)
  | Species        1: Confinement radius =              4.999999999999999 AA, multipole_radius_free =              5.054417573612229 AA.
  | Species        1: outer_partition_radius set to              5.054417573612229 AA .
  | Species        2: Confinement radius =              4.999999999999999 AA, multipole_radius_free =              5.019602836301480 AA.
  | Species        2: outer_partition_radius set to              5.019602836301480 AA .
  | Species        3: Confinement radius =              4.999999999999999 AA, multipole_radius_free =              5.043624274424571 AA.
  | Species        3: outer_partition_radius set to              5.043624274424571 AA .
  | Species        4: Confinement radius =              4.999999999999999 AA, multipole_radius_free =              5.048384829883283 AA.
  | Species        4: outer_partition_radius set to              5.048384829883283 AA .
  | Original list of interatomic distances with          13 x         13 entries is created.
  | Net number of integration points:    69646
  | of which are non-zero points    :    59503
  Renormalizing the initial density to the exact electron count on the 3D integration grid.
  | Initial density: Formal number of electrons (from input files) :      48.0000000000
  | Integrated number of electrons on 3D grid     :      48.0000203163
  | Charge integration error                      :       0.0000203163
  | Normalization factor for density and gradient :       0.9999995767
  Obtaining max. number of non-zero basis functions in each batch (get_n_compute_maxes).
  | Maximal number of non-zero basis functions:      119 in task     0
  Selecting the method for density update.
  Loop over occupied states selected for charge density update.
  Allocating        0.050 MB for KS_eigenvector
  Integrating Hamiltonian matrix: batch-based integration.
  Time summed over all CPUs for integration: real work        0.493 s, elapsed        0.493 s
  Integrating overlap matrix.
  Time summed over all CPUs for integration: real work        0.212 s, elapsed        0.212 s

  Updating Kohn-Sham eigenvalues and eigenvectors using ELSI and the ELPA eigensolver.
  Overlap matrix is nonsingular
  | Lowest eigenvalue of overlap  :  0.46E-02
  | Highest eigenvalue of overlap :  0.62E+01
  Finished singularity check of overlap matrix
  | Time :     0.002 s
  Finished Cholesky decomposition
  | Time :     0.000 s
  Finished transformation to standard eigenproblem
  | Time :     0.000 s
  Starting LAPACK eigensolver
  Finished solving standard eigenproblem
  | Time :     0.002 s
  Finished back-transformation of eigenvectors
  | Time :     0.000 s

  Obtaining occupation numbers and chemical potential using ELSI.
  | Chemical potential (Fermi level):    -9.33177343eV
  Writing Kohn-Sham eigenvalues.

  State    Occupation    Eigenvalue [Ha]    Eigenvalue [eV]
      1       2.00000         -19.007535         -517.22134
      2       2.00000         -18.977188         -516.39555
      3       2.00000         -14.246024         -387.65403
      4       2.00000         -10.166773         -276.65198
      5       2.00000         -10.141474         -275.96355
      6       2.00000         -10.131918         -275.70353
      7       2.00000          -1.182095          -32.16644
      8       2.00000          -1.098899          -29.90255
      9       2.00000          -0.991559          -26.98170
     10       2.00000          -0.860393          -23.41248
     11       2.00000          -0.754857          -20.54072
     12       2.00000          -0.680751          -18.52418
     13       2.00000          -0.628858          -17.11209
     14       2.00000          -0.597240          -16.25172
     15       2.00000          -0.594492          -16.17695
     16       2.00000          -0.573622          -15.60904
     17       2.00000          -0.556851          -15.15269
     18       2.00000          -0.523583          -14.24743
     19       2.00000          -0.513646          -13.97701
     20       2.00000          -0.506594          -13.78512
     21       2.00000          -0.462306          -12.58000
     22       2.00000          -0.426011          -11.59234
     23       2.00000          -0.409367          -11.13946
     24       2.00000          -0.381666          -10.38567
     25       0.00000          -0.159583           -4.34247
     26       0.00000          -0.072659           -1.97716
     27       0.00000          -0.027614           -0.75142
     28       0.00000          -0.021807           -0.59340
     29       0.00000           0.000934            0.02543
     30       0.00000           0.008529            0.23210
     31       0.00000           0.018508            0.50362
     32       0.00000           0.032625            0.88778
     33       0.00000           0.042176            1.14767
     34       0.00000           0.077657            2.11315
     35       0.00000           0.080690            2.19568
     36       0.00000           0.132154            3.59610
     37       0.00000           0.164599            4.47898
     38       0.00000           0.199647            5.43268
     39       0.00000           0.218256            5.93905
     40       0.00000           0.225950            6.14841
     41       0.00000           0.240155            6.53494
     42       0.00000           0.273600            7.44503
     43       0.00000           0.282104            7.67643
     44       0.00000           0.297949            8.10759
     45       0.00000           0.343701            9.35258
     46       0.00000           0.354120            9.63611
     47       0.00000           0.375248           10.21101
     48       0.00000           0.416272           11.32733
     49       0.00000           0.445744           12.12930
     50       0.00000           0.462721           12.59128
     51       0.00000           0.488821           13.30151
     52       0.00000           0.531487           14.46250
     53       0.00000           0.574995           15.64640

  Highest occupied state (VBM) at    -10.38567109 eV
  | Occupation number:      2.00000000

  Lowest unoccupied state (CBM) at    -4.34247429 eV
  | Occupation number:      0.00000000

  Overall HOMO-LUMO gap:      6.04319680 eV.
  Calculating total energy contributions from superposition of free atom densities.

  Total energy components:
  | Sum of eigenvalues            :        -188.82740471 Ha       -5138.25511369 eV
  | XC energy correction          :         -41.78769944 Ha       -1137.10115691 eV
  | XC potential correction       :          53.71869930 Ha        1461.76018150 eV
  | Free-atom electrostatic energy:        -146.86048846 Ha       -3996.27721926 eV
  | Hartree energy correction     :           0.00000000 Ha           0.00000000 eV
  | vdW energy correction         :           0.00000000 Ha           0.00000000 eV
  | Entropy correction            :           0.00000000 Ha           0.00000000 eV
  | ---------------------------
  | Total energy                  :        -323.75689331 Ha       -8809.87330836 eV
  | Total energy, T -> 0          :        -323.75689331 Ha       -8809.87330836 eV  <-- do not rely on this value for anything but (periodic) metals
  | Electronic free energy        :        -323.75689331 Ha       -8809.87330836 eV

  Derived energy quantities:
  | Kinetic energy                :         320.49644397 Ha        8721.15196762 eV
  | Electrostatic energy          :        -602.46563783 Ha      -16393.92411907 eV
  | Energy correction for multipole
  | error in Hartree potential    :           0.00000000 Ha           0.00000000 eV
  | Sum of eigenvalues per atom                           :        -395.25039336 eV
  | Total energy (T->0) per atom                          :        -677.68256218 eV  <-- do not rely on this value for anything but (periodic) metals
  | Electronic free energy per atom                       :        -677.68256218 eV
  Initialize hartree_potential_storage
  Max. number of atoms included in rho_multipole:           13

  End scf initialization - timings             :  max(cpu_time)    wall_clock(cpu1)
  | Time for scf. initialization               :        1.151 s           1.152 s
  | Boundary condition initialization          :        0.000 s           0.000 s
  | Integration                                :        0.705 s           0.706 s
  | Solution of K.-S. eqns.                    :        0.004 s           0.004 s
  | Grid partitioning                          :        0.112 s           0.112 s
  | Preloading free-atom quantities on grid    :        0.002 s           0.002 s
  | Free-atom superposition energy             :        0.086 s           0.086 s
  | Total energy evaluation                    :        0.000 s           0.000 s

  Partial memory accounting:
  | Current value for overall tracked memory usage on task 0  :           0.165 MB
  | Peak value for overall tracked memory usage on task 0     :           0.678 MB after allocating wave
  | Largest tracked array allocation on task 0 so far         :           0.132 MB  when allocating H_times_psi
  Note:  These values currently only include a subset of arrays which are explicitly tracked.
  The "true" memory usage will be greater.
------------------------------------------------------------

------------------------------------------------------------
          Begin self-consistency iteration #    1

  Date     :  20200710, Time     :  143156.955
------------------------------------------------------------
  Evaluating new KS density.
  Integration grid: deviation in total charge (<rho> - N_e) =  -2.842171E-14
  Pulay mixing of updated and previous charge densities.

  Evaluating partitioned Hartree potential by multipole expansion.
  | Analytical far-field extrapolation by fixed multipoles:
  | Hartree multipole sum: apparent total charge =  -0.856863E-04
  Summing up the Hartree potential.
  Time summed over all CPUs for potential: real work        0.285 s, elapsed        0.285 s
  | RMS charge density error from multipole expansion :   0.584887E-02

  Integrating Hamiltonian matrix: batch-based integration.
  Time summed over all CPUs for integration: real work        0.493 s, elapsed        0.493 s

  Updating Kohn-Sham eigenvalues and eigenvectors using ELSI and the ELPA eigensolver.
  Finished Cholesky decomposition
  | Time :     0.000 s
  Finished transformation to standard eigenproblem
  | Time :     0.000 s
  Starting LAPACK eigensolver
  Finished solving standard eigenproblem
  | Time :     0.001 s
  Finished back-transformation of eigenvectors
  | Time :     0.000 s

  Obtaining occupation numbers and chemical potential using ELSI.
  | Chemical potential (Fermi level):    -8.26283518eV
  Writing Kohn-Sham eigenvalues.

  State    Occupation    Eigenvalue [Ha]    Eigenvalue [eV]
      1       2.00000         -18.894604         -514.14834
      2       2.00000         -18.835969         -512.55279
      3       2.00000         -14.100515         -383.69453
      4       2.00000         -10.114711         -275.23528
      5       2.00000         -10.065022         -273.88319
      6       2.00000         -10.032997         -273.01173
      7       2.00000          -1.129188          -30.72677
      8       2.00000          -1.033520          -28.12350
      9       2.00000          -0.925008          -25.17076
     10       2.00000          -0.795886          -21.65715
     11       2.00000          -0.703121          -19.13288
     12       2.00000          -0.634471          -17.26484
     13       2.00000          -0.571511          -15.55160
     14       2.00000          -0.545924          -14.85534
     15       2.00000          -0.530880          -14.44598
     16       2.00000          -0.520807          -14.17188
     17       2.00000          -0.489733          -13.32632
     18       2.00000          -0.464880          -12.65002
     19       2.00000          -0.450498          -12.25868
     20       2.00000          -0.446520          -12.15042
     21       2.00000          -0.400757          -10.90516
     22       2.00000          -0.365312           -9.94064
     23       2.00000          -0.336297           -9.15110
     24       2.00000          -0.311798           -8.48445
     25       0.00000          -0.121929           -3.31784
     26       0.00000          -0.053628           -1.45931
     27       0.00000           0.000548            0.01491
     28       0.00000           0.015492            0.42157
     29       0.00000           0.031482            0.85667
     30       0.00000           0.041645            1.13322
     31       0.00000           0.057476            1.56400
     32       0.00000           0.066862            1.81942
     33       0.00000           0.080986            2.20375
     34       0.00000           0.117686            3.20239
     35       0.00000           0.118818            3.23321
     36       0.00000           0.161524            4.39528
     37       0.00000           0.191588            5.21338
     38       0.00000           0.229442            6.24345
     39       0.00000           0.251251            6.83690
     40       0.00000           0.261408            7.11328
     41       0.00000           0.277528            7.55193
     42       0.00000           0.305753            8.31996
     43       0.00000           0.320571            8.72319
     44       0.00000           0.331736            9.02701
     45       0.00000           0.383045           10.42319
     46       0.00000           0.394905           10.74590
     47       0.00000           0.416324           11.32876
     48       0.00000           0.451147           12.27632
     49       0.00000           0.482241           13.12245
     50       0.00000           0.497041           13.52517
     51       0.00000           0.526865           14.33672
     52       0.00000           0.564454           15.35957
     53       0.00000           0.610655           16.61678

  Highest occupied state (VBM) at     -8.48444703 eV
  | Occupation number:      2.00000000

  Lowest unoccupied state (CBM) at    -3.31784490 eV
  | Occupation number:      0.00000000

  Overall HOMO-LUMO gap:      5.16660212 eV.

  Total energy components:
  | Sum of eigenvalues            :        -185.39985465 Ha       -5044.98673111 eV
  | XC energy correction          :         -42.11702066 Ha       -1146.06244317 eV
  | XC potential correction       :          54.14701164 Ha        1473.41515313 eV
  | Free-atom electrostatic energy:        -146.86048846 Ha       -3996.27721926 eV
  | Hartree energy correction     :          -3.34165923 Ha         -90.93117419 eV
  | vdW energy correction         :           0.00000000 Ha           0.00000000 eV
  | Entropy correction            :          -0.00000000 Ha          -0.00000000 eV
  | ---------------------------
  | Total energy                  :        -323.57201136 Ha       -8804.84241460 eV
  | Total energy, T -> 0          :        -323.57201136 Ha       -8804.84241460 eV  <-- do not rely on this value for anything but (periodic) metals
  | Electronic free energy        :        -323.57201136 Ha       -8804.84241460 eV

  Derived energy quantities:
  | Kinetic energy                :         322.29473552 Ha        8770.08597048 eV
  | Electrostatic energy          :        -603.74972622 Ha      -16428.86594191 eV
  | Energy correction for multipole
  | error in Hartree potential    :           0.01172067 Ha           0.31893565 eV
  | Sum of eigenvalues per atom                           :        -388.07590239 eV
  | Total energy (T->0) per atom                          :        -677.29557035 eV  <-- do not rely on this value for anything but (periodic) metals
  | Electronic free energy per atom                       :        -677.29557035 eV

  Self-consistency convergence accuracy:
  | Change of charge density      :  0.5878E+00
  | Change of sum of eigenvalues  :  0.9327E+02 eV
  | Change of total energy        :  0.5031E+01 eV

  End self-consistency iteration #     1       :  max(cpu_time)    wall_clock(cpu1)
  | Time for this iteration                    :        1.189 s           1.190 s
  | Charge density update                      :        0.393 s           0.394 s
  | Density mixing                             :        0.006 s           0.005 s
  | Hartree multipole update                   :        0.009 s           0.009 s
  | Hartree multipole summation                :        0.286 s           0.286 s
  | Integration                                :        0.494 s           0.494 s
  | Solution of K.-S. eqns.                    :        0.002 s           0.002 s
  | Total energy evaluation                    :        0.000 s           0.000 s

  Partial memory accounting:
  | Current value for overall tracked memory usage on task 0  :           0.165 MB
  | Peak value for overall tracked memory usage on task 0     :           0.695 MB after allocating gradient_basis_wave
  | Largest tracked array allocation on task 0 so far         :           0.397 MB  when allocating gradient_basis_wave
  Note:  These values currently only include a subset of arrays which are explicitly tracked.
  The "true" memory usage will be greater.
------------------------------------------------------------

------------------------------------------------------------
          Begin self-consistency iteration #    2

  Date     :  20200710, Time     :  143158.146
------------------------------------------------------------
  Evaluating new KS density.
  Integration grid: deviation in total charge (<rho> - N_e) =  -1.421085E-14
  Pulay mixing of updated and previous charge densities.

  Evaluating partitioned Hartree potential by multipole expansion.
  | Analytical far-field extrapolation by fixed multipoles:
  | Hartree multipole sum: apparent total charge =  -0.219395E-03
  Summing up the Hartree potential.
  Time summed over all CPUs for potential: real work        0.285 s, elapsed        0.285 s
  | RMS charge density error from multipole expansion :   0.138078E-01

  Integrating Hamiltonian matrix: batch-based integration.
  Time summed over all CPUs for integration: real work        0.493 s, elapsed        0.493 s

  Updating Kohn-Sham eigenvalues and eigenvectors using ELSI and the ELPA eigensolver.
  Finished Cholesky decomposition
  | Time :     0.000 s
  Finished transformation to standard eigenproblem
  | Time :     0.000 s
  Starting LAPACK eigensolver
  Finished solving standard eigenproblem
  | Time :     0.001 s
  Finished back-transformation of eigenvectors
  | Time :     0.000 s

  Obtaining occupation numbers and chemical potential using ELSI.
  | Chemical potential (Fermi level):    -2.84962089eV
  Highest occupied state (VBM) at     -6.58888916 eV
  | Occupation number:      2.00000000

  Lowest unoccupied state (CBM) at    -2.03659533 eV
  | Occupation number:      0.00000000

  Overall HOMO-LUMO gap:      4.55229384 eV.

  Checking to see if s.c.f. parameters should be adjusted.

  Total energy components:
  | Sum of eigenvalues            :        -181.84678444 Ha       -4948.30277157 eV
  | XC energy correction          :         -42.47174612 Ha       -1155.71501416 eV
  | XC potential correction       :          54.60676761 Ha        1485.92574978 eV
  | Free-atom electrostatic energy:        -146.86048846 Ha       -3996.27721926 eV
  | Hartree energy correction     :          -6.92048100 Ha        -188.31586952 eV
  | vdW energy correction         :           0.00000000 Ha           0.00000000 eV
  | Entropy correction            :           0.00000000 Ha           0.00000000 eV
  | ---------------------------
  | Total energy                  :        -323.49273242 Ha       -8802.68512472 eV
  | Total energy, T -> 0          :        -323.49273242 Ha       -8802.68512472 eV  <-- do not rely on this value for anything but (periodic) metals
  | Electronic free energy        :        -323.49273242 Ha       -8802.68512472 eV

  Derived energy quantities:
  | Kinetic energy                :         323.59202581 Ha        8805.38703541 eV
  | Electrostatic energy          :        -604.61301210 Ha      -16452.35714597 eV
  | Energy correction for multipole
  | error in Hartree potential    :           0.02554669 Ha           0.69516086 eV
  | Sum of eigenvalues per atom                           :        -380.63867474 eV
  | Total energy (T->0) per atom                          :        -677.12962498 eV  <-- do not rely on this value for anything but (periodic) metals
  | Electronic free energy per atom                       :        -677.12962498 eV

  Self-consistency convergence accuracy:
  | Change of charge density      :  0.3673E+00
  | Change of sum of eigenvalues  :  0.9668E+02 eV
  | Change of total energy        :  0.2157E+01 eV

  End self-consistency iteration #     2       :  max(cpu_time)    wall_clock(cpu1)
  | Time for this iteration                    :        1.182 s           1.183 s
  | Charge density update                      :        0.385 s           0.386 s
  | Density mixing                             :        0.007 s           0.007 s
  | Hartree multipole update                   :        0.009 s           0.008 s
  | Hartree multipole summation                :        0.285 s           0.286 s
  | Integration                                :        0.493 s           0.493 s
  | Solution of K.-S. eqns.                    :        0.002 s           0.003 s
  | Total energy evaluation                    :        0.000 s           0.000 s

  Partial memory accounting:
  | Current value for overall tracked memory usage on task 0  :           0.166 MB
  | Peak value for overall tracked memory usage on task 0     :           0.695 MB after allocating gradient_basis_wave
  | Largest tracked array allocation on task 0 so far         :           0.397 MB  when allocating gradient_basis_wave
  Note:  These values currently only include a subset of arrays which are explicitly tracked.
  The "true" memory usage will be greater.
------------------------------------------------------------

------------------------------------------------------------
          Begin self-consistency iteration #    3

  Date     :  20200710, Time     :  143159.330
------------------------------------------------------------
  Evaluating new KS density.
  Integration grid: deviation in total charge (<rho> - N_e) =   2.131628E-14
  Pulay mixing of updated and previous charge densities.

  Evaluating partitioned Hartree potential by multipole expansion.
  | Analytical far-field extrapolation by fixed multipoles:
  | Hartree multipole sum: apparent total charge =  -0.316054E-03
  Summing up the Hartree potential.
  Time summed over all CPUs for potential: real work        0.285 s, elapsed        0.285 s
  | RMS charge density error from multipole expansion :   0.218665E-01

  Integrating Hamiltonian matrix: batch-based integration.
  Time summed over all CPUs for integration: real work        0.500 s, elapsed        0.500 s

  Updating Kohn-Sham eigenvalues and eigenvectors using ELSI and the ELPA eigensolver.
  Finished Cholesky decomposition
  | Time :     0.000 s
  Finished transformation to standard eigenproblem
  | Time :     0.000 s
  Starting LAPACK eigensolver
  Finished solving standard eigenproblem
  | Time :     0.001 s
  Finished back-transformation of eigenvectors
  | Time :     0.000 s

  Obtaining occupation numbers and chemical potential using ELSI.
  | Chemical potential (Fermi level):    -2.15992942eV
  Highest occupied state (VBM) at     -5.90961858 eV
  | Occupation number:      2.00000000

  Lowest unoccupied state (CBM) at    -1.32945309 eV
  | Occupation number:      0.00000000

  Overall HOMO-LUMO gap:      4.58016549 eV.

  Total energy components:
  | Sum of eigenvalues            :        -180.51748442 Ha       -4912.13067749 eV
  | XC energy correction          :         -42.62531235 Ha       -1159.89376378 eV
  | XC potential correction       :          54.80253510 Ha        1491.25285429 eV
  | Free-atom electrostatic energy:        -146.86048846 Ha       -3996.27721926 eV
  | Hartree energy correction     :          -8.27829640 Ha        -225.26390627 eV
  | vdW energy correction         :           0.00000000 Ha           0.00000000 eV
  | Entropy correction            :           0.00000000 Ha           0.00000000 eV
  | ---------------------------
  | Total energy                  :        -323.47904652 Ha       -8802.31271251 eV
  | Total energy, T -> 0          :        -323.47904652 Ha       -8802.31271251 eV  <-- do not rely on this value for anything but (periodic) metals
  | Electronic free energy        :        -323.47904652 Ha       -8802.31271251 eV

  Derived energy quantities:
  | Kinetic energy                :         323.18236139 Ha        8794.23949944 eV
  | Electrostatic energy          :        -604.03609556 Ha      -16436.65844817 eV
  | Energy correction for multipole
  | error in Hartree potential    :           0.03610702 Ha           0.98252200 eV
  | Sum of eigenvalues per atom                           :        -377.85620596 eV
  | Total energy (T->0) per atom                          :        -677.10097789 eV  <-- do not rely on this value for anything but (periodic) metals
  | Electronic free energy per atom                       :        -677.10097789 eV

  Self-consistency convergence accuracy:
  | Change of charge density      :  0.2077E+00
  | Change of sum of eigenvalues  :  0.3617E+02 eV
  | Change of total energy        :  0.3724E+00 eV

  End self-consistency iteration #     3       :  max(cpu_time)    wall_clock(cpu1)
  | Time for this iteration                    :        1.183 s           1.190 s
  | Charge density update                      :        0.385 s           0.385 s
  | Density mixing                             :        0.008 s           0.008 s
  | Hartree multipole update                   :        0.008 s           0.009 s
  | Hartree multipole summation                :        0.285 s           0.285 s
  | Integration                                :        0.494 s           0.500 s
  | Solution of K.-S. eqns.                    :        0.002 s           0.003 s
  | Total energy evaluation                    :        0.000 s           0.000 s

  Partial memory accounting:
  | Current value for overall tracked memory usage on task 0  :           0.166 MB
  | Peak value for overall tracked memory usage on task 0     :           0.695 MB after allocating gradient_basis_wave
  | Largest tracked array allocation on task 0 so far         :           0.397 MB  when allocating gradient_basis_wave
  Note:  These values currently only include a subset of arrays which are explicitly tracked.
  The "true" memory usage will be greater.
------------------------------------------------------------

------------------------------------------------------------
          Begin self-consistency iteration #    4

  Date     :  20200710, Time     :  143200.521
------------------------------------------------------------
  Evaluating new KS density.
  Integration grid: deviation in total charge (<rho> - N_e) =   0.000000E+00
  Pulay mixing of updated and previous charge densities.

  Evaluating partitioned Hartree potential by multipole expansion.
  | Analytical far-field extrapolation by fixed multipoles:
  | Hartree multipole sum: apparent total charge =  -0.347701E-03
  Summing up the Hartree potential.
  Time summed over all CPUs for potential: real work        0.285 s, elapsed        0.285 s
  | RMS charge density error from multipole expansion :   0.252211E-01

  Integrating Hamiltonian matrix: batch-based integration.
  Time summed over all CPUs for integration: real work        0.497 s, elapsed        0.497 s

  Updating Kohn-Sham eigenvalues and eigenvectors using ELSI and the ELPA eigensolver.
  Finished Cholesky decomposition
  | Time :     0.000 s
  Finished transformation to standard eigenproblem
  | Time :     0.000 s
  Starting LAPACK eigensolver
  Finished solving standard eigenproblem
  | Time :     0.002 s
  Finished back-transformation of eigenvectors
  | Time :     0.000 s

  Obtaining occupation numbers and chemical potential using ELSI.
  | Chemical potential (Fermi level):    -2.06129743eV
  Highest occupied state (VBM) at     -5.71722029 eV
  | Occupation number:      2.00000000

  Lowest unoccupied state (CBM) at    -1.23239487 eV
  | Occupation number:      0.00000000

  Overall HOMO-LUMO gap:      4.48482542 eV.

  Total energy components:
  | Sum of eigenvalues            :        -180.37194258 Ha       -4908.17028266 eV
  | XC energy correction          :         -42.66347832 Ha       -1160.93231256 eV
  | XC potential correction       :          54.85056204 Ha        1492.55973358 eV
  | Free-atom electrostatic energy:        -146.86048846 Ha       -3996.27721926 eV
  | Hartree energy correction     :          -8.43267881 Ha        -229.46486552 eV
  | vdW energy correction         :           0.00000000 Ha           0.00000000 eV
  | Entropy correction            :           0.00000000 Ha           0.00000000 eV
  | ---------------------------
  | Total energy                  :        -323.47802613 Ha       -8802.28494641 eV
  | Total energy, T -> 0          :        -323.47802613 Ha       -8802.28494641 eV  <-- do not rely on this value for anything but (periodic) metals
  | Electronic free energy        :        -323.47802613 Ha       -8802.28494641 eV

  Derived energy quantities:
  | Kinetic energy                :         322.80773378 Ha        8784.04536350 eV
  | Electrostatic energy          :        -603.62228160 Ha      -16425.39799735 eV
  | Energy correction for multipole
  | error in Hartree potential    :           0.04008004 Ha           1.09063332 eV
  | Sum of eigenvalues per atom                           :        -377.55156020 eV
  | Total energy (T->0) per atom                          :        -677.09884203 eV  <-- do not rely on this value for anything but (periodic) metals
  | Electronic free energy per atom                       :        -677.09884203 eV

  Self-consistency convergence accuracy:
  | Change of charge density      :  0.6604E-01
  | Change of sum of eigenvalues  :  0.3960E+01 eV
  | Change of total energy        :  0.2777E-01 eV

  End self-consistency iteration #     4       :  max(cpu_time)    wall_clock(cpu1)
  | Time for this iteration                    :        1.188 s           1.188 s
  | Charge density update                      :        0.385 s           0.385 s
  | Density mixing                             :        0.010 s           0.010 s
  | Hartree multipole update                   :        0.009 s           0.008 s
  | Hartree multipole summation                :        0.285 s           0.285 s
  | Integration                                :        0.497 s           0.498 s
  | Solution of K.-S. eqns.                    :        0.002 s           0.002 s
  | Total energy evaluation                    :        0.000 s           0.000 s

  Partial memory accounting:
  | Current value for overall tracked memory usage on task 0  :           0.166 MB
  | Peak value for overall tracked memory usage on task 0     :           0.696 MB after allocating gradient_basis_wave
  | Largest tracked array allocation on task 0 so far         :           0.397 MB  when allocating gradient_basis_wave
  Note:  These values currently only include a subset of arrays which are explicitly tracked.
  The "true" memory usage will be greater.
------------------------------------------------------------

------------------------------------------------------------
          Begin self-consistency iteration #    5

  Date     :  20200710, Time     :  143201.710
------------------------------------------------------------
  Evaluating new KS density.
  Integration grid: deviation in total charge (<rho> - N_e) =  -2.842171E-14
  Pulay mixing of updated and previous charge densities.

  Evaluating partitioned Hartree potential by multipole expansion.
  | Analytical far-field extrapolation by fixed multipoles:
  | Hartree multipole sum: apparent total charge =  -0.341480E-03
  Summing up the Hartree potential.
  Time summed over all CPUs for potential: real work        0.285 s, elapsed        0.285 s
  | RMS charge density error from multipole expansion :   0.249946E-01

  Integrating Hamiltonian matrix: batch-based integration.
  Time summed over all CPUs for integration: real work        0.493 s, elapsed        0.493 s

  Updating Kohn-Sham eigenvalues and eigenvectors using ELSI and the ELPA eigensolver.
  Finished Cholesky decomposition
  | Time :     0.000 s
  Finished transformation to standard eigenproblem
  | Time :     0.000 s
  Starting LAPACK eigensolver
  Finished solving standard eigenproblem
  | Time :     0.001 s
  Finished back-transformation of eigenvectors
  | Time :     0.000 s

  Obtaining occupation numbers and chemical potential using ELSI.
  | Chemical potential (Fermi level):    -2.13905895eV
  Highest occupied state (VBM) at     -5.82125583 eV
  | Occupation number:      2.00000000

  Lowest unoccupied state (CBM) at    -1.33419611 eV
  | Occupation number:      0.00000000

  Overall HOMO-LUMO gap:      4.48705971 eV.

  Total energy components:
  | Sum of eigenvalues            :        -180.58997220 Ha       -4914.10317025 eV
  | XC energy correction          :         -42.63723945 Ha       -1160.21831666 eV
  | XC potential correction       :          54.81649816 Ha        1491.63280850 eV
  | Free-atom electrostatic energy:        -146.86048846 Ha       -3996.27721926 eV
  | Hartree energy correction     :          -8.20652331 Ha        -223.31086109 eV
  | vdW energy correction         :           0.00000000 Ha           0.00000000 eV
  | Entropy correction            :           0.00000000 Ha           0.00000000 eV
  | ---------------------------
  | Total energy                  :        -323.47772524 Ha       -8802.27675876 eV
  | Total energy, T -> 0          :        -323.47772524 Ha       -8802.27675876 eV  <-- do not rely on this value for anything but (periodic) metals
  | Electronic free energy        :        -323.47772524 Ha       -8802.27675876 eV

  Derived energy quantities:
  | Kinetic energy                :         322.67905666 Ha        8780.54388085 eV
  | Electrostatic energy          :        -603.51954245 Ha      -16422.60232294 eV
  | Energy correction for multipole
  | error in Hartree potential    :           0.03944800 Ha           1.07343460 eV
  | Sum of eigenvalues per atom                           :        -378.00793617 eV
  | Total energy (T->0) per atom                          :        -677.09821221 eV  <-- do not rely on this value for anything but (periodic) metals
  | Electronic free energy per atom                       :        -677.09821221 eV

  Self-consistency convergence accuracy:
  | Change of charge density      :  0.2089E-01
  | Change of sum of eigenvalues  : -0.5933E+01 eV
  | Change of total energy        :  0.8188E-02 eV

  End self-consistency iteration #     5       :  max(cpu_time)    wall_clock(cpu1)
  | Time for this iteration                    :        1.185 s           1.186 s
  | Charge density update                      :        0.385 s           0.385 s
  | Density mixing                             :        0.011 s           0.011 s
  | Hartree multipole update                   :        0.009 s           0.009 s
  | Hartree multipole summation                :        0.285 s           0.285 s
  | Integration                                :        0.493 s           0.494 s
  | Solution of K.-S. eqns.                    :        0.002 s           0.002 s
  | Total energy evaluation                    :        0.000 s           0.000 s

  Partial memory accounting:
  | Current value for overall tracked memory usage on task 0  :           0.166 MB
  | Peak value for overall tracked memory usage on task 0     :           0.696 MB after allocating gradient_basis_wave
  | Largest tracked array allocation on task 0 so far         :           0.397 MB  when allocating gradient_basis_wave
  Note:  These values currently only include a subset of arrays which are explicitly tracked.
  The "true" memory usage will be greater.
------------------------------------------------------------

------------------------------------------------------------
          Begin self-consistency iteration #    6

  Date     :  20200710, Time     :  143202.897
------------------------------------------------------------
  Evaluating new KS density.
  Integration grid: deviation in total charge (<rho> - N_e) =   7.105427E-15
  Pulay mixing of updated and previous charge densities.

  Evaluating partitioned Hartree potential by multipole expansion.
  | Analytical far-field extrapolation by fixed multipoles:
  | Hartree multipole sum: apparent total charge =  -0.345603E-03
  Summing up the Hartree potential.
  Time summed over all CPUs for potential: real work        0.285 s, elapsed        0.285 s
  | RMS charge density error from multipole expansion :   0.254412E-01

  Integrating Hamiltonian matrix: batch-based integration.
  Time summed over all CPUs for integration: real work        0.494 s, elapsed        0.494 s

  Updating Kohn-Sham eigenvalues and eigenvectors using ELSI and the ELPA eigensolver.
  Finished Cholesky decomposition
  | Time :     0.000 s
  Finished transformation to standard eigenproblem
  | Time :     0.000 s
  Starting LAPACK eigensolver
  Finished solving standard eigenproblem
  | Time :     0.001 s
  Finished back-transformation of eigenvectors
  | Time :     0.000 s

  Obtaining occupation numbers and chemical potential using ELSI.
  | Chemical potential (Fermi level):    -2.13349102eV
  Highest occupied state (VBM) at     -5.78544306 eV
  | Occupation number:      2.00000000

  Lowest unoccupied state (CBM) at    -1.33666273 eV
  | Occupation number:      0.00000000

  Overall HOMO-LUMO gap:      4.44878032 eV.

  Total energy components:
  | Sum of eigenvalues            :        -180.56895715 Ha       -4913.53132167 eV
  | XC energy correction          :         -42.63904444 Ha       -1160.26743306 eV
  | XC potential correction       :          54.81880816 Ha        1491.69566662 eV
  | Free-atom electrostatic energy:        -146.86048846 Ha       -3996.27721926 eV
  | Hartree energy correction     :          -8.22799884 Ha        -223.89524003 eV
  | vdW energy correction         :           0.00000000 Ha           0.00000000 eV
  | Entropy correction            :           0.00000000 Ha           0.00000000 eV
  | ---------------------------
  | Total energy                  :        -323.47768073 Ha       -8802.27554740 eV
  | Total energy, T -> 0          :        -323.47768073 Ha       -8802.27554740 eV  <-- do not rely on this value for anything but (periodic) metals
  | Electronic free energy        :        -323.47768073 Ha       -8802.27554740 eV

  Derived energy quantities:
  | Kinetic energy                :         322.61437982 Ha        8778.78393454 eV
  | Electrostatic energy          :        -603.45301610 Ha      -16420.79204888 eV
  | Energy correction for multipole
  | error in Hartree potential    :           0.03987095 Ha           1.08494380 eV
  | Sum of eigenvalues per atom                           :        -377.96394782 eV
  | Total energy (T->0) per atom                          :        -677.09811903 eV  <-- do not rely on this value for anything but (periodic) metals
  | Electronic free energy per atom                       :        -677.09811903 eV

  Self-consistency convergence accuracy:
  | Change of charge density      :  0.1064E-01
  | Change of sum of eigenvalues  :  0.5718E+00 eV
  | Change of total energy        :  0.1211E-02 eV

  End self-consistency iteration #     6       :  max(cpu_time)    wall_clock(cpu1)
  | Time for this iteration                    :        1.187 s           1.188 s
  | Charge density update                      :        0.385 s           0.385 s
  | Density mixing                             :        0.012 s           0.012 s
  | Hartree multipole update                   :        0.009 s           0.008 s
  | Hartree multipole summation                :        0.285 s           0.286 s
  | Integration                                :        0.494 s           0.494 s
  | Solution of K.-S. eqns.                    :        0.002 s           0.002 s
  | Total energy evaluation                    :        0.000 s           0.000 s

  Partial memory accounting:
  | Current value for overall tracked memory usage on task 0  :           0.166 MB
  | Peak value for overall tracked memory usage on task 0     :           0.696 MB after allocating gradient_basis_wave
  | Largest tracked array allocation on task 0 so far         :           0.397 MB  when allocating gradient_basis_wave
  Note:  These values currently only include a subset of arrays which are explicitly tracked.
  The "true" memory usage will be greater.
------------------------------------------------------------

------------------------------------------------------------
          Begin self-consistency iteration #    7

  Date     :  20200710, Time     :  143204.086
------------------------------------------------------------
  Evaluating new KS density.
  Integration grid: deviation in total charge (<rho> - N_e) =   3.552714E-14
  Pulay mixing of updated and previous charge densities.

  Evaluating partitioned Hartree potential by multipole expansion.
  | Analytical far-field extrapolation by fixed multipoles:
  | Hartree multipole sum: apparent total charge =  -0.346311E-03
  Summing up the Hartree potential.
  Time summed over all CPUs for potential: real work        0.284 s, elapsed        0.284 s
  | RMS charge density error from multipole expansion :   0.255434E-01

  Integrating Hamiltonian matrix: batch-based integration.
  Time summed over all CPUs for integration: real work        0.496 s, elapsed        0.496 s

  Updating Kohn-Sham eigenvalues and eigenvectors using ELSI and the ELPA eigensolver.
  Finished Cholesky decomposition
  | Time :     0.000 s
  Finished transformation to standard eigenproblem
  | Time :     0.000 s
  Starting LAPACK eigensolver
  Finished solving standard eigenproblem
  | Time :     0.002 s
  Finished back-transformation of eigenvectors
  | Time :     0.000 s

[...]
  |   Hirshfeld dipole moment :      0.05835085
  |   Hirshfeld second moments:      0.01400001      -0.03026824      -0.01649780
  |                                 -0.03026824      -0.02544063       0.00533437
  |                                 -0.01649780       0.00533437      -0.01947390
  ----------------------------------------------------------------------
  | Atom    12: O
  |   Hirshfeld charge        :     -0.16031800
  |   Free atom volume        :     23.61338643
  |   Hirshfeld volume        :     21.21223676
  |   Hirshfeld dipole vector :      0.03126798       0.02727377      -0.00184053
  |   Hirshfeld dipole moment :      0.04153231
  |   Hirshfeld second moments:      0.05080635      -0.01541078      -0.02382069
  |                                 -0.01541078       0.04133877       0.04416057
  |                                 -0.02382069       0.04416057       0.05756913
  ----------------------------------------------------------------------
  | Atom    13: H
  |   Hirshfeld charge        :      0.17527858
  |   Free atom volume        :      9.95071624
  |   Hirshfeld volume        :      6.30988438
  |   Hirshfeld dipole vector :      0.08208995      -0.04640382      -0.08318204
  |   Hirshfeld dipole moment :      0.12574309
  |   Hirshfeld second moments:      0.11647110      -0.00035938       0.00097294
  |                                 -0.00035938       0.10766267       0.01538920
  |                                  0.00097294       0.01538920       0.10989649
  ----------------------------------------------------------------------


  Total energy components:
  | Sum of eigenvalues            :        -180.56841559 Ha       -4913.51658510 eV
  | XC energy correction          :         -42.63583859 Ha       -1160.18019725 eV
  | XC potential correction       :          54.81473868 Ha        1491.58493046 eV
  | Free-atom electrostatic energy:        -146.86048846 Ha       -3996.27721926 eV
  | Hartree energy correction     :          -8.22765445 Ha        -223.88586876 eV
  | vdW energy correction         :          -0.00315914 Ha          -0.08596451 eV
  | Entropy correction            :           0.00000000 Ha           0.00000000 eV
  | ---------------------------
  | Total energy                  :        -323.48081754 Ha       -8802.36090440 eV
  | Total energy, T -> 0          :        -323.48081754 Ha       -8802.36090440 eV  <-- do not rely on this value for anything but (periodic) metals
  | Electronic free energy        :        -323.48081754 Ha       -8802.36090440 eV

  Derived energy quantities:
  | Kinetic energy                :         322.57800656 Ha        8777.79416780 eV
  | Electrostatic energy          :        -603.41982638 Ha      -16419.88891045 eV
  | Energy correction for multipole
  | error in Hartree potential    :           0.03991847 Ha           1.08623686 eV
  | Sum of eigenvalues per atom                           :        -377.96281424 eV
  | Total energy (T->0) per atom                          :        -677.10468495 eV  <-- do not rely on this value for anything but (periodic) metals
  | Electronic free energy per atom                       :        -677.10468495 eV

  atomic forces [eV/Ang]:
  -----------------------
  atom #    1
   Hellmann-Feynman              :  0.126689E+01  0.448014E-01  0.104317E+01
   Ionic forces                  :  0.000000E+00  0.000000E+00  0.000000E+00
   Multipole                     :  0.179825E+00  0.257236E+00 -0.344035E+00
   Pulay + GGA                   : -0.145845E+01  0.108049E+00 -0.123304E+01
   Van der Waals                 :  0.201593E-02  0.299165E-02 -0.624821E-03
   ----------------------------------------------------------------
   Total forces(   1)            : -0.971536E-02  0.413078E+00 -0.534536E+00
  atom #    2
   Hellmann-Feynman              :  0.466346E+00  0.614967E-01  0.339013E+00
   Ionic forces                  :  0.000000E+00  0.000000E+00  0.000000E+00
   Multipole                     :  0.143996E+00  0.300736E-01 -0.333513E-01
   Pulay + GGA                   : -0.119739E+00  0.280201E-01  0.227725E-01
   Van der Waals                 :  0.866663E-02 -0.641436E-02 -0.200548E-02
   ----------------------------------------------------------------
   Total forces(   2)            :  0.499269E+00  0.113176E+00  0.326429E+00
  atom #    3
   Hellmann-Feynman              : -0.115121E+02 -0.416775E+01  0.110544E+01
   Ionic forces                  :  0.000000E+00  0.000000E+00  0.000000E+00
   Multipole                     : -0.851558E-01  0.694831E-01 -0.865251E+00
   Pulay + GGA                   :  0.113360E+02  0.399689E+01  0.624164E+00
   Van der Waals                 :  0.341307E-02 -0.220345E-02 -0.933867E-02
   ----------------------------------------------------------------
   Total forces(   3)            : -0.257777E+00 -0.103582E+00  0.855017E+00
  atom #    4
   Hellmann-Feynman              :  0.264926E+00  0.344496E-01 -0.167193E+00
   Ionic forces                  :  0.000000E+00  0.000000E+00  0.000000E+00
   Multipole                     :  0.200436E-01  0.543721E-01 -0.100016E+00
   Pulay + GGA                   : -0.102648E+00 -0.205878E+00  0.711885E-01
   Van der Waals                 : -0.405625E-02 -0.635493E-02 -0.421289E-02
   ----------------------------------------------------------------
   Total forces(   4)            :  0.178266E+00 -0.123411E+00 -0.200234E+00
  atom #    5
   Hellmann-Feynman              :  0.222461E+00  0.122300E+00 -0.347713E+00
   Ionic forces                  :  0.000000E+00  0.000000E+00  0.000000E+00
   Multipole                     :  0.467646E-01 -0.112871E-01 -0.115584E+00
   Pulay + GGA                   : -0.171746E+00  0.131660E+00  0.821978E-01
   Van der Waals                 :  0.166241E-02  0.941992E-02 -0.855159E-02
   ----------------------------------------------------------------
   Total forces(   5)            :  0.991415E-01  0.252093E+00 -0.389651E+00
  atom #    6
   Hellmann-Feynman              : -0.356279E+00 -0.444397E+00  0.328027E+00
   Ionic forces                  :  0.000000E+00  0.000000E+00  0.000000E+00
   Multipole                     : -0.641349E-01  0.645806E+00  0.254544E+00
   Pulay + GGA                   :  0.494937E+00 -0.688640E+00 -0.554816E+00
   Van der Waals                 : -0.212804E-02  0.342649E-02 -0.346959E-02
   ----------------------------------------------------------------
   Total forces(   6)            :  0.723946E-01 -0.483805E+00  0.242861E-01
  atom #    7
   Hellmann-Feynman              : -0.217501E+00 -0.425802E-01 -0.419422E-01
   Ionic forces                  :  0.000000E+00  0.000000E+00  0.000000E+00
   Multipole                     : -0.120772E+00  0.471198E-01  0.308061E-01
   Pulay + GGA                   :  0.117649E+00 -0.152268E-01 -0.148354E-01
   Van der Waals                 : -0.182539E-02  0.254054E-02  0.445860E-02
   ----------------------------------------------------------------
   Total forces(   7)            : -0.222449E+00 -0.814665E-02 -0.215129E-01
  atom #    8
   Hellmann-Feynman              :  0.773253E-01 -0.540293E-01  0.105980E+00
   Ionic forces                  :  0.000000E+00  0.000000E+00  0.000000E+00
   Multipole                     :  0.164637E-01  0.678179E-01  0.127582E+00
   Pulay + GGA                   : -0.482692E-01 -0.471992E-01 -0.108396E+00
   Van der Waals                 : -0.256561E-02  0.115571E-01  0.920442E-03
   ----------------------------------------------------------------
   Total forces(   8)            :  0.429542E-01 -0.218535E-01  0.126086E+00
  atom #    9
   Hellmann-Feynman              :  0.125699E+00  0.737025E-01 -0.198766E+00
   Ionic forces                  :  0.000000E+00  0.000000E+00  0.000000E+00
   Multipole                     :  0.221657E-01  0.130002E+00 -0.123461E-02
   Pulay + GGA                   : -0.352435E-01 -0.656165E-01  0.783351E-01
   Van der Waals                 : -0.128843E-02  0.622544E-02  0.799008E-02
   ----------------------------------------------------------------
   Total forces(   9)            :  0.111333E+00  0.144314E+00 -0.113675E+00
  atom #   10
   Hellmann-Feynman              :  0.309508E+01  0.462999E+01  0.166899E+01
   Ionic forces                  :  0.000000E+00  0.000000E+00  0.000000E+00
   Multipole                     : -0.477957E-02 -0.976860E-01  0.286326E+00
   Pulay + GGA                   : -0.209811E+01 -0.257564E+01  0.181259E+00
   Van der Waals                 :  0.113263E-02 -0.113528E-01  0.293576E-02
   ----------------------------------------------------------------
   Total forces(  10)            :  0.993328E+00  0.194532E+01  0.213951E+01
  atom #   11
   Hellmann-Feynman              :  0.424163E+01 -0.251613E+01  0.137921E+02
   Ionic forces                  :  0.000000E+00  0.000000E+00  0.000000E+00
   Multipole                     :  0.827825E-01 -0.583023E+00  0.723532E+00
   Pulay + GGA                   : -0.380491E+01  0.401092E+01 -0.134276E+02
   Van der Waals                 : -0.246258E-02 -0.106217E-01  0.715283E-02
   ----------------------------------------------------------------
   Total forces(  11)            :  0.517036E+00  0.901142E+00  0.109523E+01
  atom #   12
   Hellmann-Feynman              : -0.135506E+02 -0.746929E+01  0.589301E+00
   Ionic forces                  :  0.000000E+00  0.000000E+00  0.000000E+00
   Multipole                     : -0.992340E+00 -0.136158E+01 -0.987703E-01
   Pulay + GGA                   :  0.133082E+02  0.634102E+01 -0.266670E+01
   Van der Waals                 : -0.154366E-02  0.466655E-02  0.672965E-02
   ----------------------------------------------------------------
   Total forces(  12)            : -0.123635E+01 -0.248518E+01 -0.216944E+01
  atom #   13
   Hellmann-Feynman              : -0.512893E+00 -0.546193E+00 -0.141727E+01
   Ionic forces                  :  0.000000E+00  0.000000E+00  0.000000E+00
   Multipole                     :  0.555958E-01 -0.376722E-01 -0.415908E-01
   Pulay + GGA                   : -0.327188E+00  0.426762E-01  0.316501E+00
   Van der Waals                 : -0.102070E-02 -0.388051E-02 -0.198432E-02
   ----------------------------------------------------------------
   Total forces(  13)            : -0.785505E+00 -0.545069E+00 -0.114435E+01

  Timings for VdW correction (Tkatchenko-Scheffler 2009 or later):
  | CPU time:        0.090 s, Wall clock time:        0.091 s.
  Removing unitary transformations (pure translations, rotations) from forces on atoms.
  Atomic forces before filtering:
  | Net force on center of mass :   0.192405E-02 -0.193267E-02 -0.684410E-02 eV/A
  | Net torque on center of mass:   0.372266E-02  0.388635E-03  0.967022E-02 eV
  Atomic forces after filtering:
  | Net force on center of mass :   0.892031E-16 -0.356812E-15 -0.535218E-15 eV/A
  | Net torque on center of mass:   0.122731E-14  0.330430E-15 -0.755268E-15 eV

  Energy and forces in a compact form:
  | Total energy uncorrected      :         -0.880236090440490E+04 eV
  | Total energy corrected        :         -0.880236090440490E+04 eV  <-- do not rely on this value for anything but (periodic) metals
  | Electronic free energy        :         -0.880236090440490E+04 eV
  Total atomic forces (unitary forces cleaned) [eV/Ang]:
  |   1         -0.983701631490076E-02          0.413121225288305E+00         -0.534003011031532E+00
  |   2          0.499147238536346E+00          0.112863442893058E+00          0.327005558249992E+00
  |   3         -0.257841917486803E+00         -0.103497718711355E+00          0.855530388600505E+00
  |   4          0.178526139417693E+00         -0.123367012808981E+00         -0.199796862933690E+00
  |   5          0.989020098484141E-01          0.251934754057849E+00         -0.389063891288030E+00
  |   6          0.726549114510733E-01         -0.483540311775717E+00          0.246960098911543E-01
  |   7         -0.222180405395245E+00         -0.752525598487457E-02         -0.211489444780050E-01
  |   8          0.431771610695967E-01         -0.216227899705912E-01          0.126509200028907E+00
  |   9          0.111905950674107E+00          0.144419101043418E+00         -0.113324117041596E+00
  |  10          0.992757033942970E+00          0.194554891157526E+01          0.214013333792370E+01
  |  11          0.516328933083629E+00          0.901372707954473E+00          0.109588314501649E+01
  |  12         -0.123717168628573E+01         -0.248477694425804E+01         -0.216877954819038E+01
  |  13         -0.786368352541150E+00         -0.544930109302798E+00         -0.114364126474752E+01

  ------------------------------------ 
  Start decomposition of the XC Energy 
  ------------------------------------ 
  X and C from original XC functional choice 
  Hartree-Fock Energy :          0.000000000 Ha              0.000000000 eV
  X Energy            :        -41.035666681 Ha          -1116.637304274 eV
  C Energy            :         -1.600171905 Ha            -43.542892972 eV
  Total XC Energy     :        -42.635838586 Ha          -1160.180197247 eV
  ------------------------------------ 
  LDA X and C from self-consistent density 
  X Energy LDA        :        -37.253518502 Ha          -1013.719815936 eV
  C Energy LDA        :         -3.138433796 Ha            -85.401128744 eV
  ------------------------------------ 
  End decomposition of the XC Energy 
  ------------------------------------ 

------------------------------------------------------------

------------------------------------------------------------------------------
  Final output of selected total energy values:

  The following output summarizes some interesting total energy values
  at the end of a run (AFTER all relaxation, molecular dynamics, etc.).

  | Total energy of the DFT / Hartree-Fock s.c.f. calculation      :          -8802.360904405 eV
  | Final zero-broadening corrected energy (caution - metals only) :          -8802.360904405 eV
  | For reference only, the value of 1 Hartree used in FHI-aims is :             27.211384500 eV

  Before relying on these values, please be sure to understand exactly which
  total energy value is referred to by a given number. Different objects may
  all carry the same name 'total energy'. Definitions:

  Total energy of the DFT / Hartree-Fock s.c.f. calculation:
  | Note that this energy does not include ANY quantities calculated after the
  | s.c.f. cycle, in particular not ANY RPA, MP2, etc. many-body perturbation terms.

  Final zero-broadening corrected energy:
  | For metallic systems only, a broadening of the occupation numbers at the Fermi
  | level can be extrapolated back to zero broadening by an electron-gas inspired
  | formula. For all systems that are not real metals, this value can be
  | meaningless and should be avoided.

------------------------------------------------------------------------------
  Methods described in the following list of references were used in this FHI-aims run.
  If you publish the results, please make sure to cite these reference if they apply.
  FHI-aims is an academic code, and for our developers (often, Ph.D. students
  and postdocs), scientific credit in the community is essential.
  Thank you for helping us!

  For any use of FHI-aims, please cite:

    Volker Blum, Ralf Gehrke, Felix Hanke, Paula Havu, Ville Havu,
    Xinguo Ren, Karsten Reuter, and Matthias Scheffler
    'Ab initio molecular simulations with numeric atom-centered orbitals'
    Computer Physics Communications 180, 2175-2196 (2009)
    http://dx.doi.org/10.1016/j.cpc.2009.06.022


  The scalable eigensolver library ELPA was used in your run.
  ELPA is essential especially for large systems on hundreds or thousands of CPUs.
  For ELPA, please cite:

    Andreas Marek, Volker Blum, Rainer Johanni, Ville Havu, Bruno Lang,
    Thomas Auckenthaler, Alexander Heinecke, Hans-Joachim Bungartz, and Hermann Lederer,
    'The ELPA Library - Scalable Parallel Eigenvalue Solutions
    for Electronic Structure Theory and Computational Science'
    The Journal of Physics: Condensed Matter 26, 213201 (2014).
    http://dx.doi.org/10.1088/0953-8984/26/21/213201


  The ELSI infrastructure was used in your run to solve the Kohn-Sham electronic structure.
  Please check out http://elsi-interchange.org to learn more.
  If scalability is important for your project, please acknowledge ELSI by citing:

    V. W-z. Yu, F. Corsetti, A. Garcia, W. P. Huhn, M. Jacquelin, W. Jia,
    B. Lange, L. Lin, J. Lu, W. Mi, A. Seifitokaldani, A. Vazquez-Mayagoitia,
    C. Yang, H. Yang, and V. Blum
    'ELSI: A unified software interface for Kohn-Sham electronic structure solvers'
    Computer Physics Communications 222, 267-285 (2018).
    http://dx.doi.org/10.1016/j.cpc.2017.09.007


  For the real-space grid partitioning and parallelization used in this calculation, please cite:

    Ville Havu, Volker Blum, Paula Havu, and Matthias Scheffler,
    'Efficient O(N) integration for all-electron electronic structure calculation'
    'using numerically tabulated basis functions'
    Journal of Computational Physics 228, 8367-8379 (2009).
    http://dx.doi.org/10.1016/j.jcp.2009.08.008

  Of course, there are many other important community references, e.g., those cited in the
  above references. Our list is limited to references that describe implementations in the
  FHI-aims code. The reason is purely practical (length of this list) - please credit others as well.

------------------------------------------------------------
          Leaving FHI-aims.
          Date     :  20200710, Time     :  143218.438

          Computational steps:
          | Number of self-consistency cycles          :           16
          | Number of SCF (re)initializations          :            1

          Detailed time accounting                     :  max(cpu_time)    wall_clock(cpu1)
          | Total time                                 :       22.740 s          22.802 s
          | Preparation time                           :        0.149 s           0.150 s
          | Boundary condition initalization           :        0.000 s           0.000 s
          | Grid partitioning                          :        0.112 s           0.112 s
          | Preloading free-atom quantities on grid    :        0.002 s           0.002 s
          | Free-atom superposition energy             :        0.086 s           0.086 s
          | Total time for integrations                :        8.649 s           8.670 s
          | Total time for solution of K.-S. equations :        0.037 s           0.039 s
          | Total time for density & force components  :        7.140 s           7.156 s
          | Total time for mixing                      :        0.218 s           0.216 s
          | Total time for Hartree multipole update    :        0.138 s           0.141 s
          | Total time for Hartree multipole sum       :        5.808 s           5.814 s
          | Total time for total energy evaluation     :        0.003 s           0.004 s
          | Total time for vdW correction              :        0.090 s           0.091 s

          Partial memory accounting:
          | Residual value for overall tracked memory usage across tasks :           0.000 MB (should be 0.000 MB)
          | Peak values for overall tracked memory usage (after allocating hessian_basis_wave):
          |   Minimum:        1.622 MB (on task 1)
          |   Maximum:        1.622 MB (on task 1)
          |   Average:        1.622 MB
          | Largest tracked array allocation (hessian_basis_wave):
          |   Minimum:        0.794 MB (on task 1)
          |   Maximum:        0.794 MB (on task 1)
          |   Average:        0.794 MB
          Note:  These values currently only include a subset of arrays which are explicitly tracked.
          The "true" memory usage will be greater.

          Have a nice day.
------------------------------------------------------------
