  MPI-parallelism will be employed.
------------------------------------------------------------
          Invoking FHI-aims ...
          Version 171221_1
          Compiled on 2019/09/09 at 14:39:39 on host puhti-login2.bullx.

          When using FHI-aims, please cite the following reference:

          Volker Blum, Ralf Gehrke, Felix Hanke, Paula Havu,
          Ville Havu, Xinguo Ren, Karsten Reuter, and Matthias Scheffler,
          'Ab Initio Molecular Simulations with Numeric Atom-Centered Orbitals',
          Computer Physics Communications 180, 2175-2196 (2009)

          For any questions about FHI-aims, please visit the aimsclub website
          with its forums and wiki. Contributions to both the forums and the
          wiki are warmly encouraged - they are for you, and everyone is welcome there.

------------------------------------------------------------



  Date     :  20200815, Time     :  002447.602
  Time zero on CPU 1             :   0.115890000000000E-01  s.
  Internal wall clock time zero  :           366683087.602  s.

  FHI-aims created a unique identifier for this run for later identification
  aims_uuid : AC5D97EA-99B2-42A7-AC32-CC23F593057F

  Using        1 parallel tasks.
  Task        0 on host r16c11.bullx reporting.

  Performing system and environment tests:
  | Environment variable OMP_NUM_THREADS correctly set to 1.
  | Stacksize not measured: no C compiler
  | Checking for scalapack...
  | Testing pdtran()...
  | All pdtran() tests passed.

  Obtaining array dimensions for all initial allocations:
  
  -----------------------------------------------------------------------
  Parsing control.in (first pass over file, find array dimensions only).
  The contents of control.in will be repeated verbatim below
  unless switched off by setting 'verbatim_writeout .false.' .
  in the first line of control.in .
  -----------------------------------------------------------------------
  
  #########################################################################################
  #
  #  Volker Blum, FHI 2009 : Test run input file control.in for simple H2O
  #
  #########################################################################################
  #
  #  Physical model
  #
    xc                 pbe
    vdw_correction_hirshfeld
    spin               none
    relativistic       none
    charge             0.
  #
  #  SCF convergence
  #
    occupation_type    gaussian 0.01
    mixer              pulay
      n_max_pulay        10
      charge_mix_param   0.2
    sc_accuracy_rho    1E-5
    sc_accuracy_eev    1E-3
    sc_accuracy_etot   1E-6
    sc_accuracy_forces 1E-4
    sc_iter_limit      100
  #
  #  Relaxation
  #
  #  relax_geometry   bfgs 1.e-3
  #
  ################################################################################
  #
  #  FHI-aims code project
  #  VB, Fritz-Haber Institut, 2009
  #
  #  Suggested "light" defaults for H atom (to be pasted into control.in file)
  #  Be sure to double-check any results obtained with these settings for post-processing,
  #  e.g., with the "tight" defaults and larger basis sets.
  #
  ################################################################################
    species        H
  #     global species definitions
      nucleus             1
      mass                1.00794
  #
      l_hartree           4
  #
      cut_pot             3.5  1.5  1.0
      basis_dep_cutoff    1e-4
  #
      radial_base         24 5.0
      radial_multiplier   1
      angular_grids       specified
        division   0.2421   50
        division   0.3822  110
        division   0.4799  194
        division   0.5341  302
  #      division   0.5626  434
  #      division   0.5922  590
  #      division   0.6542  770
  #      division   0.6868 1202
  #      outer_grid  770
        outer_grid  302
  ################################################################################
  #
  #  Definition of "minimal" basis
  #
  ################################################################################
  #     valence basis states
      valence      1  s   1.
  #     ion occupancy
      ion_occ      1  s   0.5
  ################################################################################
  #
  #  Suggested additional basis functions. For production calculations,
  #  uncomment them one after another (the most important basis functions are
  #  listed first).
  #
  #  Basis constructed for dimers: 0.5 A, 0.7 A, 1.0 A, 1.5 A, 2.5 A
  #
  ################################################################################
  #  "First tier" - improvements: -1014.90 meV to -62.69 meV
       hydro 2 s 2.1
       hydro 2 p 3.5
  #  "Second tier" - improvements: -12.89 meV to -1.83 meV
  #     hydro 1 s 0.85
  #     hydro 2 p 3.7
  #     hydro 2 s 1.2
  #     hydro 3 d 7
  #  "Third tier" - improvements: -0.25 meV to -0.12 meV
  #     hydro 4 f 11.2
  #     hydro 3 p 4.8
  #     hydro 4 d 9
  #     hydro 3 s 3.2
  ################################################################################
  #
  #  FHI-aims code project
  #  VB, Fritz-Haber Institut, 2009
  #
  #  Suggested "light" defaults for C atom (to be pasted into control.in file)
  #  Be sure to double-check any results obtained with these settings for post-processing,
  #  e.g., with the "tight" defaults and larger basis sets.
  #
  ################################################################################
    species        C
  #     global species definitions
      nucleus             6
      mass                12.0107
  #
      l_hartree           4
  #
      cut_pot             3.5  1.5  1.0
      basis_dep_cutoff    1e-4
  #
      radial_base         34 5.0
      radial_multiplier   1
      angular_grids specified
        division   0.3326   50
        division   0.5710  110
        division   0.7727  194
        division   0.8772  302
  #      division   0.9334  434
  #      division   0.9625  590
  #      division   0.9924  770
  #      division   1.0230  974
  #      division   1.4589 1202
  #     outer_grid  974
       outer_grid 302
  ################################################################################
  #
  #  Definition of "minimal" basis
  #
  ################################################################################
  #     valence basis states
      valence      2  s   2.
      valence      2  p   2.
  #     ion occupancy
      ion_occ      2  s   1.
      ion_occ      2  p   1.
  ################################################################################
  #
  #  Suggested additional basis functions. For production calculations,
  #  uncomment them one after another (the most important basis functions are
  #  listed first).
  #
  #  Constructed for dimers: 1.0 A, 1.25 A, 1.5 A, 2.0 A, 3.0 A
  #
  ################################################################################
  #  "First tier" - improvements: -1214.57 meV to -155.61 meV
       hydro 2 p 1.7
       hydro 3 d 6
       hydro 2 s 4.9
  #  "Second tier" - improvements: -67.75 meV to -5.23 meV
  #     hydro 4 f 9.8
  #     hydro 3 p 5.2
  #     hydro 3 s 4.3
  #     hydro 5 g 14.4
  #     hydro 3 d 6.2
  #  "Third tier" - improvements: -2.43 meV to -0.60 meV
  #     hydro 2 p 5.6
  #     hydro 2 s 1.4
  #     hydro 3 d 4.9
  #     hydro 4 f 11.2
  #  "Fourth tier" - improvements: -0.39 meV to -0.18 meV
  #     hydro 2 p 2.1
  #     hydro 5 g 16.4
  #     hydro 4 d 13.2
  #     hydro 3 s 13.6
  #     hydro 4 f 17.6
  #  Further basis functions - improvements: -0.08 meV and below
  #     hydro 3 s 2
  #     hydro 3 p 6
  #     hydro 4 d 20
  ################################################################################
  #
  #  FHI-aims code project
  #  VB, Fritz-Haber Institut, 2009
  #
  #  Suggested "light" defaults for N atom (to be pasted into control.in file)
  #  Be sure to double-check any results obtained with these settings for post-processing,
  #  e.g., with the "tight" defaults and larger basis sets.
  #
  ################################################################################
    species        N
  #     global species definitions
      nucleus             7
      mass                14.0067
  #
      l_hartree           4
  #
      cut_pot             3.5  1.5  1.0
      basis_dep_cutoff    1e-4
  #
      radial_base         35 5.0
      radial_multiplier   1
      angular_grids       specified
        division   0.2599   50
        division   0.4601  110
        division   0.5885  194
        division   0.6503  302
  #      division   0.6939  434
  #      division   0.7396  590
  #      division   0.7632  770
  #      division   0.8122  974
  #      division   1.1604 1202
  #      outer_grid  974
        outer_grid  302
  ################################################################################
  #
  #  Definition of "minimal" basis
  #
  ################################################################################
  #     valence basis states
      valence      2  s   2.
      valence      2  p   3.
  #     ion occupancy
      ion_occ      2  s   1.
      ion_occ      2  p   2.
  ################################################################################
  #
  #  Suggested additional basis functions. For production calculations,
  #  uncomment them one after another (the most important basis functions are
  #  listed first).
  #
  #  Constructed for dimers: 1.0 A, 1.1 A, 1.5 A, 2.0 A, 3.0 A
  #
  ################################################################################
  #  "First tier" - improvements: -1193.42 meV to -220.60 meV
       hydro 2 p 1.8
       hydro 3 d 6.8
       hydro 3 s 5.8
  #  "Second tier" - improvements: -80.21 meV to -6.86 meV
  #     hydro 4 f 10.8
  #     hydro 3 p 5.8
  #     hydro 1 s 0.8
  #     hydro 5 g 16
  #     hydro 3 d 4.9
  #  "Third tier" - improvements: -4.29 meV to -0.53 meV
  #     hydro 3 s 16
  #     ionic 2 p auto
  #     hydro 3 d 6.6
  #     hydro 4 f 11.6
  #  "Fourth tier" - improvements: -0.75 meV to -0.25 meV
  #     hydro 2 p 4.5
  #     hydro 2 s 2.4
  #     hydro 5 g 14.4
  #     hydro 4 d 14.4
  #     hydro 4 f 16.8
  # Further basis functions - -0.21 meV and below
  #     hydro 3 p 14.8
  #     hydro 3 s 4.4
  #     hydro 3 d 19.6
  #     hydro 5 g 12.8
  ################################################################################
  #
  #  FHI-aims code project
  #  VB, Fritz-Haber Institut, 2009
  #
  #  Suggested "light" defaults for O atom (to be pasted into control.in file)
  #  Be sure to double-check any results obtained with these settings for post-processing,
  #  e.g., with the "tight" defaults and larger basis sets.
  #
  ################################################################################
    species        O
  #     global species definitions
      nucleus             8
      mass                15.9994
  #
      l_hartree           4
  #
      cut_pot             3.5  1.5  1.0
      basis_dep_cutoff    1e-4
  #
      radial_base         36 5.0
      radial_multiplier   1
       angular_grids specified
        division   0.2659   50
        division   0.4451  110
        division   0.6052  194
        division   0.7543  302
  #      division   0.8014  434
  #      division   0.8507  590
  #      division   0.8762  770
  #      division   0.9023  974
  #      division   1.2339 1202
  #      outer_grid 974
        outer_grid 302
  ################################################################################
  #
  #  Definition of "minimal" basis
  #
  ################################################################################
  #     valence basis states
      valence      2  s   2.
      valence      2  p   4.
  #     ion occupancy
      ion_occ      2  s   1.
      ion_occ      2  p   3.
  ################################################################################
  #
  #  Suggested additional basis functions. For production calculations,
  #  uncomment them one after another (the most important basis functions are
  #  listed first).
  #
  #  Constructed for dimers: 1.0 A, 1.208 A, 1.5 A, 2.0 A, 3.0 A
  #
  ################################################################################
  #  "First tier" - improvements: -699.05 meV to -159.38 meV
       hydro 2 p 1.8
       hydro 3 d 7.6
       hydro 3 s 6.4
  #  "Second tier" - improvements: -49.91 meV to -5.39 meV
  #     hydro 4 f 11.6
  #     hydro 3 p 6.2
  #     hydro 3 d 5.6
  #     hydro 5 g 17.6
  #     hydro 1 s 0.75
  #  "Third tier" - improvements: -2.83 meV to -0.50 meV
  #     ionic 2 p auto
  #     hydro 4 f 10.8
  #     hydro 4 d 4.7
  #     hydro 2 s 6.8
  #  "Fourth tier" - improvements: -0.40 meV to -0.12 meV
  #     hydro 3 p 5
  #     hydro 3 s 3.3
  #     hydro 5 g 15.6
  #     hydro 4 f 17.6
  #     hydro 4 d 14
  # Further basis functions - -0.08 meV and below
  #     hydro 3 s 2.1
  #     hydro 4 d 11.6
  #     hydro 3 p 16
  #     hydro 2 s 17.2
  
  -----------------------------------------------------------------------
  Completed first pass over input file control.in .
  -----------------------------------------------------------------------
  
  
  -----------------------------------------------------------------------
  Parsing geometry.in (first pass over file, find array dimensions only).
  The contents of geometry.in will be repeated verbatim below
  unless switched off by setting 'verbatim_writeout .false.' .
  in the first line of geometry.in .
  -----------------------------------------------------------------------
  
  atom  0.00000 0.00000 0.00000 C
  atom  1.09300 0.00000 0.00000 H
  atom  -0.47961 0.00000 -1.41207 N
  atom  0.22298 -0.45504 -1.99614 H
  atom  -1.35945 -0.50976 -1.45843 H
  atom  -0.49584 1.26211 0.72868 C
  atom  -1.58789 1.28919 0.74431 H
  atom  -0.13407 1.27425 1.75947 H
  atom  -0.13407 2.16087 0.22380 H
  atom  -0.39425 -1.28861 0.74398 C
  atom  -0.10189 -1.56493 1.88303 O
  atom  -1.10210 -2.13717 0.06896 O
  atom  -1.75446 -2.35573 0.75572 H
  
  -----------------------------------------------------------------------
  Completed first pass over input file geometry.in .
  -----------------------------------------------------------------------
  

  Basic array size parameters:
  | Number of species                 :        4
  | Number of atoms                   :       13
  | Max. basis fn. angular momentum   :        2
  | Max. atomic/ionic basis occupied n:        2
  | Max. number of basis fn. types    :        2
  | Max. radial fns per species/type  :        3
  | Max. logarithmic grid size        :     1301
  | Max. radial integration grid size :       36
  | Max. angular integration grid size:      302
  | Max. angular grid division number :        8
  | Radial grid for Hartree potential :     1301
  | Number of spin channels           :        1

------------------------------------------------------------
          Reading file control.in.
------------------------------------------------------------
  XC: Using PBE gradient-corrected functionals.
  Spin treatment: No spin polarisation.
  Non-relativistic treatment of kinetic energy.
  Charge =   0.000000E+00: Neutral system requested explicitly.
  Occupation type: Gaussian broadening, width =   0.100000E-01 eV.
  Using pulay charge density mixing.
  Pulay mixing - number of memorized iterations:   10
  Charge density mixing - mixing parameter:     0.2000
  Convergence accuracy of self-consistent charge density:  0.1000E-04
  Convergence accuracy of sum of eigenvalues:  0.1000E-02
  Convergence accuracy of total energy:  0.1000E-05
  Convergence accuracy of forces:  0.1000E-03
  Maximum number of s.-c. iterations  :   100
 
  Reading configuration options for species H                   .
  | Found nuclear charge :   1.0000
  | Found atomic mass :    1.00794000000000      amu
  | Found l_max for Hartree potential  :   4
  | Found cutoff potl. onset [A], width [A], scale factor :    3.50000    1.50000    1.00000
  | Threshold for basis-dependent cutoff potential is   0.100000E-03
  | Found data for basic radial integration grid :    24 points, outermost radius =    5.000 A
  | Found multiplier for basic radial grid :   1
  | Found angular grid specification: user-specified.
  | Specified grid contains     5 separate shells.
  | Check grid settings after all constraints further below.
  | Found free-atom valence shell :  1 s   1.000
  | No ionic wave fns used. Skipping ion_occ.
  | Found hydrogenic basis function :  2 s   2.100
  | Found hydrogenic basis function :  2 p   3.500
  Species H                   : Missing cutoff potential type.
  Defaulting to exp(1/x)/(1-x)^2 type cutoff potential.
  Species H : No 'logarithmic' tag. Using default grid for free atom:
  | Default logarithmic grid data [bohr] : 0.1000E-03 0.1000E+03 0.1012E+01
  Species H : On-site basis accuracy parameter (for Gram-Schmidt orthonormalisation) not specified.
  Using default value basis_acc =  0.1000000E-03.
  Species H                   : Using default innermost maximum threshold i_radial=  2 for radial functions.
  Species H                   : Default cutoff onset for free atom density etc. : 0.35000000E+01 AA.
  Species H                   : Basic radial grid will be enhanced according to radial_multiplier =   1, to contain    24 grid points.
 
  Reading configuration options for species C                   .
  | Found nuclear charge :   6.0000
  | Found atomic mass :    12.0107000000000      amu
  | Found l_max for Hartree potential  :   4
  | Found cutoff potl. onset [A], width [A], scale factor :    3.50000    1.50000    1.00000
  | Threshold for basis-dependent cutoff potential is   0.100000E-03
  | Found data for basic radial integration grid :    34 points, outermost radius =    5.000 A
  | Found multiplier for basic radial grid :   1
  | Found angular grid specification: user-specified.
  | Specified grid contains     5 separate shells.
  | Check grid settings after all constraints further below.
  | Found free-atom valence shell :  2 s   2.000
  | Found free-atom valence shell :  2 p   2.000
  | No ionic wave fns used. Skipping ion_occ.
  | No ionic wave fns used. Skipping ion_occ.
  | Found hydrogenic basis function :  2 p   1.700
  | Found hydrogenic basis function :  3 d   6.000
  | Found hydrogenic basis function :  2 s   4.900
  Species C                   : Missing cutoff potential type.
  Defaulting to exp(1/x)/(1-x)^2 type cutoff potential.
  Species C : No 'logarithmic' tag. Using default grid for free atom:
  | Default logarithmic grid data [bohr] : 0.1000E-03 0.1000E+03 0.1012E+01
  Species C : On-site basis accuracy parameter (for Gram-Schmidt orthonormalisation) not specified.
  Using default value basis_acc =  0.1000000E-03.
  Species C                   : Using default innermost maximum threshold i_radial=  2 for radial functions.
  Species C                   : Default cutoff onset for free atom density etc. : 0.35000000E+01 AA.
  Species C                   : Basic radial grid will be enhanced according to radial_multiplier =   1, to contain    34 grid points.
 
  Reading configuration options for species N                   .
  | Found nuclear charge :   7.0000
  | Found atomic mass :    14.0067000000000      amu
  | Found l_max for Hartree potential  :   4
  | Found cutoff potl. onset [A], width [A], scale factor :    3.50000    1.50000    1.00000
  | Threshold for basis-dependent cutoff potential is   0.100000E-03
  | Found data for basic radial integration grid :    35 points, outermost radius =    5.000 A
  | Found multiplier for basic radial grid :   1
  | Found angular grid specification: user-specified.
  | Specified grid contains     5 separate shells.
  | Check grid settings after all constraints further below.
  | Found free-atom valence shell :  2 s   2.000
  | Found free-atom valence shell :  2 p   3.000
  | No ionic wave fns used. Skipping ion_occ.
  | No ionic wave fns used. Skipping ion_occ.
  | Found hydrogenic basis function :  2 p   1.800
  | Found hydrogenic basis function :  3 d   6.800
  | Found hydrogenic basis function :  3 s   5.800
  Species N                   : Missing cutoff potential type.
  Defaulting to exp(1/x)/(1-x)^2 type cutoff potential.
  Species N : No 'logarithmic' tag. Using default grid for free atom:
  | Default logarithmic grid data [bohr] : 0.1000E-03 0.1000E+03 0.1012E+01
  Species N : On-site basis accuracy parameter (for Gram-Schmidt orthonormalisation) not specified.
  Using default value basis_acc =  0.1000000E-03.
  Species N                   : Using default innermost maximum threshold i_radial=  2 for radial functions.
  Species N                   : Default cutoff onset for free atom density etc. : 0.35000000E+01 AA.
  Species N                   : Basic radial grid will be enhanced according to radial_multiplier =   1, to contain    35 grid points.
 
  Reading configuration options for species O                   .
  | Found nuclear charge :   8.0000
  | Found atomic mass :    15.9994000000000      amu
  | Found l_max for Hartree potential  :   4
  | Found cutoff potl. onset [A], width [A], scale factor :    3.50000    1.50000    1.00000
  | Threshold for basis-dependent cutoff potential is   0.100000E-03
  | Found data for basic radial integration grid :    36 points, outermost radius =    5.000 A
  | Found multiplier for basic radial grid :   1
  | Found angular grid specification: user-specified.
  | Specified grid contains     5 separate shells.
  | Check grid settings after all constraints further below.
  | Found free-atom valence shell :  2 s   2.000
  | Found free-atom valence shell :  2 p   4.000
  | No ionic wave fns used. Skipping ion_occ.
  | No ionic wave fns used. Skipping ion_occ.
  | Found hydrogenic basis function :  2 p   1.800
  | Found hydrogenic basis function :  3 d   7.600
  | Found hydrogenic basis function :  3 s   6.400
  Species O                   : Missing cutoff potential type.
  Defaulting to exp(1/x)/(1-x)^2 type cutoff potential.
  Species O : No 'logarithmic' tag. Using default grid for free atom:
  | Default logarithmic grid data [bohr] : 0.1000E-03 0.1000E+03 0.1012E+01
  Species O : On-site basis accuracy parameter (for Gram-Schmidt orthonormalisation) not specified.
  Using default value basis_acc =  0.1000000E-03.
  Species O                   : Using default innermost maximum threshold i_radial=  2 for radial functions.
  Species O                   : Default cutoff onset for free atom density etc. : 0.35000000E+01 AA.
  Species O                   : Basic radial grid will be enhanced according to radial_multiplier =   1, to contain    36 grid points.
 
  Finished reading input file 'control.in'. Consistency checks are next.
 
  MPI_IN_PLACE appears to work with this MPI implementation.
  | Keeping use_mpi_in_place .true. (see manual).
  Target number of points in a grid batch is not set. Defaulting to  100
  Method for grid partitioning is not set. Defaulting to parallel hash+maxmin partitioning.
  Batch size limit is not set. Defaulting to    200
  By default, will store active basis functions for each batch.
  If in need of memory, prune_basis_once .false. can be used to disable this option.
  communication_type for Hartree potential was not specified.
  Defaulting to calc_hartree .
  Pulay mixer: Number of initial linear mixing iterations not set.
  Defaulting to    0 iterations.
  Work space size for distributed Hartree potential not set.
  Defaulting to   0.200000E+03 MB.
  Algorithm-dependent basis array size parameters:
  | n_max_pulay                         :       10
  Presetting      1001 iterations before the initial mixing cycle
  is restarted anyway using the sc_init_iter criterion / keyword.
  Presetting a factor      1.000 between actual scf density residual
  and density convergence criterion sc_accuracy_rho below which sc_init_iter
  takes no effect.
  Geometry relaxation not requested: no relaxation will be performed.
  Handling of forces: Unphysical translation and rotation will be removed from forces.
  No accuracy limit for integral partition fn. given. Defaulting to  0.1000E-14.
  No threshold value for u(r) in integrations given. Defaulting to  0.1000E-05.
  No accuracy for occupation numbers given. Defaulting to  0.1000E-12.
  No threshold value for occupation numbers given. Defaulting to  0.0000E+00.
  No accuracy for fermi level given. Defaulting to  0.1000E-19.
  Maximum # of iterations to find E_F not set. Defaulting to  200.
  Preferred method for the eigenvalue solver ('KS_method') not specified in 'control.in'.
  Defaulting to serial version, 'lapack_fast'.
  Will not use alltoall communication since running on < 1024 CPUs.
  Threshold for basis singularities not set.
  Default threshold for basis singularities:  0.1000E-04
  partition_type (choice of integration weights) for integrals was not specified.
  | Using a version of the partition function of Stratmann and coworkers ('stratmann_smoother').
  | At each grid point, the set of atoms used to build the partition table is smoothly restricted to
  | only those atoms whose free-atom density would be non-zero at that grid point.
  Partitioning for Hartree potential was not defined. Using partition_type for integrals.
  | Adjusted default value of keyword multip_moments_threshold to:       0.10000000E-11
  | This value may affect high angular momentum components of the Hartree potential in periodic systems.
  No q(lm)/r^(l+1) cutoff set for long-range Hartree potential.
  | Using default value of  0.100000E-09 .
  | Verify using the multipole_threshold keyword.
  Defaulting to new monopole extrapolation.
  Density update method: automatic selection selected.
------------------------------------------------------------


------------------------------------------------------------
          Reading geometry description geometry.in.
------------------------------------------------------------
  Input structure read successfully.
  The structure contains       13 atoms,  and a total of         48.000 electrons.

  Input geometry:
  | No unit cell requested.
  | Atomic structure:
  |       Atom                x [A]            y [A]            z [A]
  |    1: Species C             0.00000000        0.00000000        0.00000000
  |    2: Species H             1.09300000        0.00000000        0.00000000
  |    3: Species N            -0.47961000        0.00000000       -1.41207000
  |    4: Species H             0.22298000       -0.45504000       -1.99614000
  |    5: Species H            -1.35945000       -0.50976000       -1.45843000
  |    6: Species C            -0.49584000        1.26211000        0.72868000
  |    7: Species H            -1.58789000        1.28919000        0.74431000
  |    8: Species H            -0.13407000        1.27425000        1.75947000
  |    9: Species H            -0.13407000        2.16087000        0.22380000
  |   10: Species C            -0.39425000       -1.28861000        0.74398000
  |   11: Species O            -0.10189000       -1.56493000        1.88303000
  |   12: Species O            -1.10210000       -2.13717000        0.06896000
  |   13: Species H            -1.75446000       -2.35573000        0.75572000
  |

  | The smallest distance between any two atoms is         0.97210151 AA.
  |
  | The first atom of this pair is atom number                     12 .
  | The second atom of this pair is atom number                    13 .

  Number of empty states per atom not set in control.in - providing a guess from actual geometry.
  | Total number of empty states used during s.c.f. cycle:       29
  If you use a very high smearing, use empty_states (per atom!) in control.in to increase this value.

  Structure-dependent array size parameters: 
  | Maximum number of distinct radial functions  :       21
  | Maximum number of basis functions            :      119
  | Number of Kohn-Sham states (occupied + empty):       53
------------------------------------------------------------

------------------------------------------------------------
          Preparing all fixed parts of the calculation.
------------------------------------------------------------
  Determining machine precision:
    2.225073858507201E-308
  Setting up grids for atomic and cluster calculations.

  Creating wave function, potential, and density for free atoms.

  Species: H

  List of occupied orbitals and eigenvalues:
    n    l              occ      energy [Ha]    energy [eV]
    1    0           1.0000        -0.237589        -6.4651


  Species: C

  List of occupied orbitals and eigenvalues:
    n    l              occ      energy [Ha]    energy [eV]
    1    0           2.0000       -10.038835      -273.1706
    2    0           2.0000        -0.502696       -13.6791
    2    1           2.0000        -0.191971        -5.2238


  Species: N

  List of occupied orbitals and eigenvalues:
    n    l              occ      energy [Ha]    energy [eV]
    1    0           2.0000       -14.128000      -384.4424
    2    0           2.0000        -0.681077       -18.5330
    2    1           3.0000        -0.259788        -7.0692


  Species: O

  List of occupied orbitals and eigenvalues:
    n    l              occ      energy [Ha]    energy [eV]
    1    0           2.0000       -18.898188      -514.2459
    2    0           2.0000        -0.878505       -23.9053
    2    1           4.0000        -0.331779        -9.0282

  Creating fixed part of basis set: Ionic, confined, hydrogenic.
 
  H                    hydrogenic:
 
  List of hydrogenic basis orbitals: 
    n    l      effective z      eigenvalue [eV]  inner max. [A]     outer max. [A]     outer radius [A]   
    2    0         2.100000       -14.9728           0.193243           1.317208           4.583499
    2    1         3.500000       -41.6669           0.602369           0.602369           3.723403
 
 
  C                    hydrogenic:
 
  List of hydrogenic basis orbitals: 
    n    l      effective z      eigenvalue [eV]  inner max. [A]     outer max. [A]     outer radius [A]   
    2    1         1.700000        -9.7616           1.230570           1.230570           4.607917
    3    2         6.000000       -54.4224           0.792453           0.792453           3.883070
    2    0         4.900000       -81.6679           0.082559           0.562749           3.078220
 
 
  N                    hydrogenic:
 
  List of hydrogenic basis orbitals: 
    n    l      effective z      eigenvalue [eV]  inner max. [A]     outer max. [A]     outer radius [A]   
    2    1         1.800000       -10.9749           1.177451           1.177451           4.573712
    3    2         6.800000       -69.9026           0.704619           0.704619           3.538137
    3    0         5.800000       -50.8545           0.067388           1.191934           4.250239
 
 
  O                    hydrogenic:
 
  List of hydrogenic basis orbitals: 
    n    l      effective z      eigenvalue [eV]  inner max. [A]     outer max. [A]     outer radius [A]   
    2    1         1.800000       -10.9749           1.164242           1.164242           4.578029
    3    2         7.600000       -87.3180           0.624125           0.624125           3.251020
    3    0         6.400000       -61.9207           0.061167           1.081902           4.001998
 

  Adding cutoff potential to free-atom effective potential.
  Creating atomic-like basis functions for current effective potential.

  Species H                   :

  List of atomic basis orbitals and eigenvalues:
    n    l      energy [Ha]    energy [eV]    outer radius [A]
    1    0        -0.237589        -6.4651       4.527807


  Species C                   :

  List of atomic basis orbitals and eigenvalues:
    n    l      energy [Ha]    energy [eV]    outer radius [A]
    1    0       -10.038835      -273.1706       1.934409
    2    0        -0.502696       -13.6791       4.496620
    2    1        -0.191971        -5.2238       4.551928


  Species N                   :

  List of atomic basis orbitals and eigenvalues:
    n    l      energy [Ha]    energy [eV]    outer radius [A]
    1    0       -14.128000      -384.4424       1.637919
    2    0        -0.681077       -18.5330       4.463241
    2    1        -0.259788        -7.0692       4.518138


  Species O                   :

  List of atomic basis orbitals and eigenvalues:
    n    l      energy [Ha]    energy [eV]    outer radius [A]
    1    0       -18.898188      -514.2459       1.415765
    2    0        -0.878505       -23.9053       4.413171
    2    1        -0.331779        -9.0282       4.522403

  Assembling full basis from fixed parts.
  | Species H :   atomic orbital   1 s accepted.
  | Species H :    hydro orbital   2 s accepted.
  | Species H :    hydro orbital   2 p accepted.
  | Species C :   atomic orbital   1 s accepted.
  | Species C :    hydro orbital   2 s accepted.
  | Species C :   atomic orbital   2 s accepted.
  | Species C :   atomic orbital   2 p accepted.
  | Species C :    hydro orbital   2 p accepted.
  | Species C :    hydro orbital   3 d accepted.
  | Species N :   atomic orbital   1 s accepted.
  | Species N :    hydro orbital   3 s accepted.
  | Species N :   atomic orbital   2 s accepted.
  | Species N :   atomic orbital   2 p accepted.
  | Species N :    hydro orbital   2 p accepted.
  | Species N :    hydro orbital   3 d accepted.
  | Species O :   atomic orbital   1 s accepted.
  | Species O :    hydro orbital   3 s accepted.
  | Species O :   atomic orbital   2 s accepted.
  | Species O :   atomic orbital   2 p accepted.
  | Species O :    hydro orbital   2 p accepted.
  | Species O :    hydro orbital   3 d accepted.
 
  Basis size parameters after reduction:
  | Total number of radial functions:       21
  | Total number of basis functions :      119
 
  Per-task memory consumption for arrays in subroutine allocate_ext:
  |           5.250512MB.
  Testing on-site integration grid accuracy.
  |  Species  Function  <phi|h_atom|phi> (log., in eV)  <phi|h_atom|phi> (rad., in eV)
           1        1                 -6.4663192853                 -6.4651273558
           1        2                 13.7111246313                 13.7170609718
           1        3                 25.2673269279                 25.2674696378
           2        4               -273.1705927641               -273.1705631568
           2        5                -10.7109323383                -10.7107120029
           2        6                 17.4381822266                 17.4352413244
           2        7                 -5.2255326521                 -5.2270484734
           2        8                  8.6835629259                  8.6603288385
           2        9                 27.4952418996                 27.4953360207
           3       10               -384.4424306495               -384.4423701208
           3       11                 12.5842251816                 12.5842222903
           3       12                -15.7264628251                -15.7264433455
           3       13                 -7.0696854293                 -7.0701769954
           3       14                  8.8090390882                  8.7901077751
           3       15                 35.9586762123                 35.9588528632
           4       16               -514.2458688638               -514.2457643834
           4       17                 15.1795651126                 15.1795290741
           4       18                -21.5359799773                -21.5360846186
           4       19                 -9.0283069236                 -9.0284644067
           4       20                  8.3027758564                  8.2834874195
           4       21                 45.8339351984                 45.8338762259

  Preparing densities etc. for the partition functions (integrals / Hartree potential).

  Preparations completed.
  max(cpu_time)          :      0.145 s.
  Wall clock time (cpu1) :      0.146 s.
------------------------------------------------------------

------------------------------------------------------------
          Begin self-consistency loop: Initialization.

          Date     :  20200815, Time     :  002447.762
------------------------------------------------------------

  Initializing index lists of integration centers etc. from given atomic structure:
  | Number of centers in hartree potential         :        13
  | Number of centers in hartree multipole         :        13
  | Number of centers in electron density summation:        13
  | Number of centers in basis integrals           :        13
  | Number of centers in integrals                 :        13
  | Number of centers in hamiltonian               :        13
  Partitioning the integration grid into batches with parallel hashing+maxmin method.
  | Number of batches:      958
  | Maximal batch size:     139
  | Minimal batch size:      66
  | Average batch size:      72.699
  | Standard deviation of batch sizes:      17.240

  Integration load balanced across     1 MPI tasks.
  Work distribution over tasks is as follows:
  Task     0 has      69646 integration points.
  Initializing partition tables, free-atom densities, potentials, etc. across the integration grid (initialize_grid_storage).
  | initialize_grid_storage: Actual outermost partition radius vs. multipole_radius_free
  | (-- VB: in principle, multipole_radius_free should be larger, hence this output)
  | Species        1: Confinement radius =              4.999999999999999 AA, multipole_radius_free =              5.054417573612229 AA.
  | Species        1: outer_partition_radius set to              5.054417573612229 AA .
  | Species        2: Confinement radius =              4.999999999999999 AA, multipole_radius_free =              5.019602836301480 AA.
  | Species        2: outer_partition_radius set to              5.019602836301480 AA .
  | Species        3: Confinement radius =              4.999999999999999 AA, multipole_radius_free =              5.043624274424571 AA.
  | Species        3: outer_partition_radius set to              5.043624274424571 AA .
  | Species        4: Confinement radius =              4.999999999999999 AA, multipole_radius_free =              5.048384829883283 AA.
  | Species        4: outer_partition_radius set to              5.048384829883283 AA .
  | Original list of interatomic distances with          13 x         13 entries is created.
  | Net number of integration points:    69646
  | of which are non-zero points    :    59646
  Renormalizing the initial density to the exact electron count on the 3D integration grid.
  | Initial density: Formal number of electrons (from input files) :      48.0000000000
  | Integrated number of electrons on 3D grid     :      47.9998315087
  | Charge integration error                      :      -0.0001684913
  | Normalization factor for density and gradient :       1.0000035102
  Obtaining max. number of non-zero basis functions in each batch (get_n_compute_maxes).
  | Maximal number of non-zero basis functions:      119 in task     0
  Selecting the method for density update.
  Loop over occupied states selected for charge density update.
  Allocating        0.050 MB for KS_eigenvector
  Integrating Hamiltonian matrix: batch-based integration.
  Time summed over all CPUs for integration: real work        0.503 s, elapsed        0.503 s
  Integrating overlap matrix.
  Time summed over all CPUs for integration: real work        0.211 s, elapsed        0.211 s

  Updating Kohn-Sham eigenvalues and eigenvectors using ELSI and the ELPA eigensolver.
  Overlap matrix is nonsingular
  | Lowest eigenvalue of overlap  :  0.50E-02
  | Highest eigenvalue of overlap :  0.61E+01
  Finished singularity check of overlap matrix
  | Time :     0.002 s
  Finished Cholesky decomposition
  | Time :     0.000 s
  Finished transformation to standard eigenproblem
  | Time :     0.000 s
  Starting LAPACK eigensolver
  Finished solving standard eigenproblem
  | Time :     0.002 s
  Finished back-transformation of eigenvectors
  | Time :     0.000 s

  Obtaining occupation numbers and chemical potential using ELSI.
  | Chemical potential (Fermi level):    -9.52328849eV
  Writing Kohn-Sham eigenvalues.

  State    Occupation    Eigenvalue [Ha]    Eigenvalue [eV]
      1       2.00000         -19.008075         -517.23603
      2       2.00000         -18.977863         -516.41394
      3       2.00000         -14.245792         -387.64772
      4       2.00000         -10.166600         -276.64725
      5       2.00000         -10.141248         -275.95740
      6       2.00000         -10.132105         -275.70862
      7       2.00000          -1.186945          -32.29841
      8       2.00000          -1.094470          -29.78203
      9       2.00000          -0.990958          -26.96533
     10       2.00000          -0.861542          -23.44375
     11       2.00000          -0.756890          -20.59601
     12       2.00000          -0.681252          -18.53782
     13       2.00000          -0.624791          -17.00142
     14       2.00000          -0.611156          -16.63039
     15       2.00000          -0.594090          -16.16600
     16       2.00000          -0.560119          -15.24162
     17       2.00000          -0.550054          -14.96772
     18       2.00000          -0.526778          -14.33435
     19       2.00000          -0.516843          -14.06402
     20       2.00000          -0.502148          -13.66413
     21       2.00000          -0.461097          -12.54710
     22       2.00000          -0.430678          -11.71936
     23       2.00000          -0.419325          -11.41041
     24       2.00000          -0.380392          -10.35100
     25       0.00000          -0.157225           -4.27831
     26       0.00000          -0.059907           -1.63016
     27       0.00000          -0.030389           -0.82691
     28       0.00000          -0.019704           -0.53617
     29       0.00000           0.003576            0.09731
     30       0.00000           0.010584            0.28801
     31       0.00000           0.021910            0.59620
     32       0.00000           0.028912            0.78673
     33       0.00000           0.041162            1.12009
     34       0.00000           0.065550            1.78371
     35       0.00000           0.083955            2.28453
     36       0.00000           0.135474            3.68644
     37       0.00000           0.155859            4.24114
     38       0.00000           0.195975            5.33274
     39       0.00000           0.215332            5.85947
     40       0.00000           0.223359            6.07791
     41       0.00000           0.264303            7.19205
     42       0.00000           0.277374            7.54773
     43       0.00000           0.284628            7.74512
     44       0.00000           0.311795            8.48438
     45       0.00000           0.328003            8.92543
     46       0.00000           0.344092            9.36321
     47       0.00000           0.354757            9.65343
     48       0.00000           0.406506           11.06160
     49       0.00000           0.442717           12.04693
     50       0.00000           0.474197           12.90354
     51       0.00000           0.512219           13.93819
     52       0.00000           0.515249           14.02064
     53       0.00000           0.567637           15.44619

  Highest occupied state (VBM) at    -10.35099936 eV
  | Occupation number:      2.00000000

  Lowest unoccupied state (CBM) at    -4.27831291 eV
  | Occupation number:      0.00000000

  Overall HOMO-LUMO gap:      6.07268645 eV.
  Calculating total energy contributions from superposition of free atom densities.

  Total energy components:
  | Sum of eigenvalues            :        -188.84241850 Ha       -5138.66365979 eV
  | XC energy correction          :         -41.78665127 Ha       -1137.07263472 eV
  | XC potential correction       :          53.71713808 Ha        1461.71769852 eV
  | Free-atom electrostatic energy:        -146.85537620 Ha       -3996.13810770 eV
  | Hartree energy correction     :           0.00000000 Ha           0.00000000 eV
  | vdW energy correction         :           0.00000000 Ha           0.00000000 eV
  | Entropy correction            :           0.00000000 Ha           0.00000000 eV
  | ---------------------------
  | Total energy                  :        -323.76730790 Ha       -8810.15670369 eV
  | Total energy, T -> 0          :        -323.76730790 Ha       -8810.15670369 eV  <-- do not rely on this value for anything but (periodic) metals
  | Electronic free energy        :        -323.76730790 Ha       -8810.15670369 eV

  Derived energy quantities:
  | Kinetic energy                :         320.48543285 Ha        8720.85233981 eV
  | Electrostatic energy          :        -602.46608947 Ha      -16393.93640877 eV
  | Energy correction for multipole
  | error in Hartree potential    :           0.00000000 Ha           0.00000000 eV
  | Sum of eigenvalues per atom                           :        -395.28181998 eV
  | Total energy (T->0) per atom                          :        -677.70436182 eV  <-- do not rely on this value for anything but (periodic) metals
  | Electronic free energy per atom                       :        -677.70436182 eV
  Initialize hartree_potential_storage
  Max. number of atoms included in rho_multipole:           13

  End scf initialization - timings             :  max(cpu_time)    wall_clock(cpu1)
  | Time for scf. initialization               :        1.148 s           1.157 s
  | Boundary condition initialization          :        0.000 s           0.000 s
  | Integration                                :        0.706 s           0.715 s
  | Solution of K.-S. eqns.                    :        0.004 s           0.004 s
  | Grid partitioning                          :        0.112 s           0.112 s
  | Preloading free-atom quantities on grid    :        0.002 s           0.002 s
  | Free-atom superposition energy             :        0.084 s           0.084 s
  | Total energy evaluation                    :        0.000 s           0.000 s

  Partial memory accounting:
  | Current value for overall tracked memory usage on task 0  :           0.165 MB
  | Peak value for overall tracked memory usage on task 0     :           0.678 MB after allocating wave
  | Largest tracked array allocation on task 0 so far         :           0.132 MB  when allocating H_times_psi
  Note:  These values currently only include a subset of arrays which are explicitly tracked.
  The "true" memory usage will be greater.
------------------------------------------------------------

------------------------------------------------------------
          Begin self-consistency iteration #    1

  Date     :  20200815, Time     :  002448.920
------------------------------------------------------------
  Evaluating new KS density.
  Integration grid: deviation in total charge (<rho> - N_e) =   2.131628E-14
  Pulay mixing of updated and previous charge densities.

  Evaluating partitioned Hartree potential by multipole expansion.
  | Analytical far-field extrapolation by fixed multipoles:
  | Hartree multipole sum: apparent total charge =  -0.280609E-03
  Summing up the Hartree potential.
  Time summed over all CPUs for potential: real work        0.282 s, elapsed        0.282 s
  | RMS charge density error from multipole expansion :   0.584860E-02

  Integrating Hamiltonian matrix: batch-based integration.
  Time summed over all CPUs for integration: real work        0.491 s, elapsed        0.491 s

  Updating Kohn-Sham eigenvalues and eigenvectors using ELSI and the ELPA eigensolver.
  Finished Cholesky decomposition
  | Time :     0.000 s
  Finished transformation to standard eigenproblem
  | Time :     0.000 s
  Starting LAPACK eigensolver
  Finished solving standard eigenproblem
  | Time :     0.002 s
  Finished back-transformation of eigenvectors
  | Time :     0.000 s

  Obtaining occupation numbers and chemical potential using ELSI.
  | Chemical potential (Fermi level):    -4.26903056eV
  Writing Kohn-Sham eigenvalues.

  State    Occupation    Eigenvalue [Ha]    Eigenvalue [eV]
      1       2.00000         -18.906155         -514.46264
      2       2.00000         -18.839632         -512.65247
      3       2.00000         -14.094251         -383.52407
      4       2.00000         -10.117540         -275.31228
      5       2.00000         -10.061537         -273.78835
      6       2.00000         -10.028482         -272.88887
      7       2.00000          -1.139795          -31.01541
      8       2.00000          -1.033546          -28.12422
      9       2.00000          -0.919989          -25.03417
     10       2.00000          -0.793797          -21.60031
     11       2.00000          -0.706240          -19.21776
     12       2.00000          -0.634581          -17.26784
     13       2.00000          -0.571014          -15.53808
     14       2.00000          -0.548378          -14.92214
     15       2.00000          -0.538523          -14.65395
     16       2.00000          -0.500601          -13.62206
     17       2.00000          -0.489740          -13.32650
     18       2.00000          -0.464551          -12.64107
     19       2.00000          -0.453534          -12.34128
     20       2.00000          -0.441567          -12.01564
     21       2.00000          -0.407861          -11.09847
     22       2.00000          -0.372395          -10.13339
     23       2.00000          -0.347568           -9.45780
     24       2.00000          -0.305979           -8.32610
     25       0.00000          -0.122716           -3.33927
     26       0.00000          -0.037041           -1.00795
     27       0.00000          -0.002884           -0.07847
     28       0.00000           0.016661            0.45338
     29       0.00000           0.031124            0.84692
     30       0.00000           0.054702            1.48851
     31       0.00000           0.064848            1.76460
     32       0.00000           0.070875            1.92861
     33       0.00000           0.081996            2.23122
     34       0.00000           0.103453            2.81509
     35       0.00000           0.125080            3.40361
     36       0.00000           0.163759            4.45612
     37       0.00000           0.178998            4.87077
     38       0.00000           0.225069            6.12443
     39       0.00000           0.244989            6.66649
     40       0.00000           0.259064            7.04948
     41       0.00000           0.300238            8.16990
     42       0.00000           0.311510            8.47661
     43       0.00000           0.323626            8.80631
     44       0.00000           0.349469            9.50953
     45       0.00000           0.367421            9.99803
     46       0.00000           0.376627           10.24854
     47       0.00000           0.396374           10.78589
     48       0.00000           0.443020           12.05520
     49       0.00000           0.483169           13.14771
     50       0.00000           0.505437           13.75363
     51       0.00000           0.547760           14.90531
     52       0.00000           0.553700           15.06693
     53       0.00000           0.605281           16.47055

  Highest occupied state (VBM) at     -8.32610437 eV
  | Occupation number:      2.00000000

  Lowest unoccupied state (CBM) at    -3.33926765 eV
  | Occupation number:      0.00000000

  Overall HOMO-LUMO gap:      4.98683672 eV.

  Total energy components:
  | Sum of eigenvalues            :        -185.43451145 Ha       -5045.92979057 eV
  | XC energy correction          :         -42.11649811 Ha       -1146.04822393 eV
  | XC potential correction       :          54.14618305 Ha        1473.39260627 eV
  | Free-atom electrostatic energy:        -146.85537620 Ha       -3996.13810770 eV
  | Hartree energy correction     :          -3.32415464 Ha         -90.45484993 eV
  | vdW energy correction         :           0.00000000 Ha           0.00000000 eV
  | Entropy correction            :           0.00000000 Ha           0.00000000 eV
  | ---------------------------
  | Total energy                  :        -323.58435734 Ha       -8805.17836586 eV
  | Total energy, T -> 0          :        -323.58435734 Ha       -8805.17836586 eV  <-- do not rely on this value for anything but (periodic) metals
  | Electronic free energy        :        -323.58435734 Ha       -8805.17836586 eV

  Derived energy quantities:
  | Kinetic energy                :         322.28340381 Ha        8769.77761906 eV
  | Electrostatic energy          :        -603.75126304 Ha      -16428.90776099 eV
  | Energy correction for multipole
  | error in Hartree potential    :           0.01213481 Ha           0.33020487 eV
  | Sum of eigenvalues per atom                           :        -388.14844543 eV
  | Total energy (T->0) per atom                          :        -677.32141276 eV  <-- do not rely on this value for anything but (periodic) metals
  | Electronic free energy per atom                       :        -677.32141276 eV

  Self-consistency convergence accuracy:
  | Change of charge density      :  0.5842E+00
  | Change of sum of eigenvalues  :  0.9273E+02 eV
  | Change of total energy        :  0.4978E+01 eV

  End self-consistency iteration #     1       :  max(cpu_time)    wall_clock(cpu1)
  | Time for this iteration                    :        1.184 s           1.185 s
  | Charge density update                      :        0.394 s           0.394 s
  | Density mixing                             :        0.005 s           0.005 s
  | Hartree multipole update                   :        0.008 s           0.009 s
  | Hartree multipole summation                :        0.283 s           0.283 s
  | Integration                                :        0.491 s           0.491 s
  | Solution of K.-S. eqns.                    :        0.002 s           0.002 s
  | Total energy evaluation                    :        0.000 s           0.000 s

  Partial memory accounting:
  | Current value for overall tracked memory usage on task 0  :           0.165 MB
  | Peak value for overall tracked memory usage on task 0     :           0.695 MB after allocating gradient_basis_wave
  | Largest tracked array allocation on task 0 so far         :           0.397 MB  when allocating gradient_basis_wave
  Note:  These values currently only include a subset of arrays which are explicitly tracked.
  The "true" memory usage will be greater.
------------------------------------------------------------

------------------------------------------------------------
          Begin self-consistency iteration #    2

  Date     :  20200815, Time     :  002450.106
------------------------------------------------------------
  Evaluating new KS density.
  Integration grid: deviation in total charge (<rho> - N_e) =   1.421085E-14
  Pulay mixing of updated and previous charge densities.

  Evaluating partitioned Hartree potential by multipole expansion.
  | Analytical far-field extrapolation by fixed multipoles:
  | Hartree multipole sum: apparent total charge =  -0.424734E-03
  Summing up the Hartree potential.
  Time summed over all CPUs for potential: real work        0.282 s, elapsed        0.282 s
  | RMS charge density error from multipole expansion :   0.139378E-01

  Integrating Hamiltonian matrix: batch-based integration.
  Time summed over all CPUs for integration: real work        0.492 s, elapsed        0.492 s

  Updating Kohn-Sham eigenvalues and eigenvectors using ELSI and the ELPA eigensolver.
  Finished Cholesky decomposition
  | Time :     0.000 s
  Finished transformation to standard eigenproblem
  | Time :     0.000 s
  Starting LAPACK eigensolver
  Finished solving standard eigenproblem
  | Time :     0.001 s
  Finished back-transformation of eigenvectors
  | Time :     0.000 s

  Obtaining occupation numbers and chemical potential using ELSI.
  | Chemical potential (Fermi level):    -2.96732794eV
  Highest occupied state (VBM) at     -6.27909892 eV
  | Occupation number:      2.00000000

  Lowest unoccupied state (CBM) at    -2.12182914 eV
  | Occupation number:      0.00000000

  Overall HOMO-LUMO gap:      4.15726979 eV.

  Checking to see if s.c.f. parameters should be adjusted.

  Total energy components:
  | Sum of eigenvalues            :        -181.82698242 Ha       -4947.76393118 eV
  | XC energy correction          :         -42.47999250 Ha       -1155.93940949 eV
  | XC potential correction       :          54.61749821 Ha        1486.21774412 eV
  | Free-atom electrostatic energy:        -146.85537620 Ha       -3996.13810770 eV
  | Hartree energy correction     :          -6.96054708 Ha        -189.40612286 eV
  | vdW energy correction         :           0.00000000 Ha           0.00000000 eV
  | Entropy correction            :           0.00000000 Ha           0.00000000 eV
  | ---------------------------
  | Total energy                  :        -323.50540000 Ha       -8803.02982710 eV
  | Total energy, T -> 0          :        -323.50540000 Ha       -8803.02982710 eV  <-- do not rely on this value for anything but (periodic) metals
  | Electronic free energy        :        -323.50540000 Ha       -8803.02982710 eV

  Derived energy quantities:
  | Kinetic energy                :         323.61886423 Ha        8806.11734604 eV
  | Electrostatic energy          :        -604.64427173 Ha      -16453.20776366 eV
  | Energy correction for multipole
  | error in Hartree potential    :           0.02691812 Ha           0.73247925 eV
  | Sum of eigenvalues per atom                           :        -380.59722548 eV
  | Total energy (T->0) per atom                          :        -677.15614055 eV  <-- do not rely on this value for anything but (periodic) metals
  | Electronic free energy per atom                       :        -677.15614055 eV

  Self-consistency convergence accuracy:
  | Change of charge density      :  0.3649E+00
  | Change of sum of eigenvalues  :  0.9817E+02 eV
  | Change of total energy        :  0.2149E+01 eV

  End self-consistency iteration #     2       :  max(cpu_time)    wall_clock(cpu1)
  | Time for this iteration                    :        1.178 s           1.179 s
  | Charge density update                      :        0.387 s           0.387 s
  | Density mixing                             :        0.007 s           0.007 s
  | Hartree multipole update                   :        0.009 s           0.008 s
  | Hartree multipole summation                :        0.282 s           0.283 s
  | Integration                                :        0.492 s           0.491 s
  | Solution of K.-S. eqns.                    :        0.002 s           0.002 s
  | Total energy evaluation                    :        0.000 s           0.000 s

  Partial memory accounting:
  | Current value for overall tracked memory usage on task 0  :           0.166 MB
  | Peak value for overall tracked memory usage on task 0     :           0.695 MB after allocating gradient_basis_wave
  | Largest tracked array allocation on task 0 so far         :           0.397 MB  when allocating gradient_basis_wave
  Note:  These values currently only include a subset of arrays which are explicitly tracked.
  The "true" memory usage will be greater.
------------------------------------------------------------

------------------------------------------------------------
          Begin self-consistency iteration #    3

  Date     :  20200815, Time     :  002451.288
------------------------------------------------------------
  Evaluating new KS density.
  Integration grid: deviation in total charge (<rho> - N_e) =  -2.842171E-14
  Pulay mixing of updated and previous charge densities.

  Evaluating partitioned Hartree potential by multipole expansion.
  | Analytical far-field extrapolation by fixed multipoles:
  | Hartree multipole sum: apparent total charge =  -0.527700E-03
  Summing up the Hartree potential.
  Time summed over all CPUs for potential: real work        0.282 s, elapsed        0.282 s
  | RMS charge density error from multipole expansion :   0.220457E-01

  Integrating Hamiltonian matrix: batch-based integration.
  Time summed over all CPUs for integration: real work        0.492 s, elapsed        0.492 s

  Updating Kohn-Sham eigenvalues and eigenvectors using ELSI and the ELPA eigensolver.
  Finished Cholesky decomposition
  | Time :     0.000 s
  Finished transformation to standard eigenproblem
  | Time :     0.000 s
  Starting LAPACK eigensolver
  Finished solving standard eigenproblem
  | Time :     0.001 s
  Finished back-transformation of eigenvectors
  | Time :     0.000 s

  Obtaining occupation numbers and chemical potential using ELSI.
  | Chemical potential (Fermi level):    -2.28379904eV
  Highest occupied state (VBM) at     -5.60811579 eV
  | Occupation number:      2.00000000

  Lowest unoccupied state (CBM) at    -1.41850837 eV
  | Occupation number:      0.00000000

  Overall HOMO-LUMO gap:      4.18960741 eV.

  Total energy components:
  | Sum of eigenvalues            :        -180.51136035 Ha       -4911.96403314 eV
  | XC energy correction          :         -42.63209606 Ha       -1160.07835783 eV
  | XC potential correction       :          54.81158270 Ha        1491.49905196 eV
  | Free-atom electrostatic energy:        -146.85537620 Ha       -3996.13810770 eV
  | Hartree energy correction     :          -8.30557562 Ha        -226.00621164 eV
  | vdW energy correction         :           0.00000000 Ha           0.00000000 eV
  | Entropy correction            :           0.00000000 Ha           0.00000000 eV
  | ---------------------------
  | Total energy                  :        -323.49282552 Ha       -8802.68765834 eV
  | Total energy, T -> 0          :        -323.49282552 Ha       -8802.68765834 eV  <-- do not rely on this value for anything but (periodic) metals
  | Electronic free energy        :        -323.49282552 Ha       -8802.68765834 eV

  Derived energy quantities:
  | Kinetic energy                :         323.19459971 Ha        8794.57252105 eV
  | Electrostatic energy          :        -604.05532918 Ha      -16437.18182156 eV
  | Energy correction for multipole
  | error in Hartree potential    :           0.03832976 Ha           1.04300593 eV
  | Sum of eigenvalues per atom                           :        -377.84338716 eV
  | Total energy (T->0) per atom                          :        -677.12981987 eV  <-- do not rely on this value for anything but (periodic) metals
  | Electronic free energy per atom                       :        -677.12981987 eV

  Self-consistency convergence accuracy:
  | Change of charge density      :  0.2032E+00
  | Change of sum of eigenvalues  :  0.3580E+02 eV
  | Change of total energy        :  0.3422E+00 eV

  End self-consistency iteration #     3       :  max(cpu_time)    wall_clock(cpu1)
  | Time for this iteration                    :        1.180 s           1.181 s
  | Charge density update                      :        0.387 s           0.387 s
  | Density mixing                             :        0.008 s           0.008 s
  | Hartree multipole update                   :        0.009 s           0.008 s
  | Hartree multipole summation                :        0.282 s           0.283 s
  | Integration                                :        0.492 s           0.491 s
  | Solution of K.-S. eqns.                    :        0.002 s           0.002 s
  | Total energy evaluation                    :        0.000 s           0.000 s

  Partial memory accounting:
  | Current value for overall tracked memory usage on task 0  :           0.166 MB
  | Peak value for overall tracked memory usage on task 0     :           0.695 MB after allocating gradient_basis_wave
  | Largest tracked array allocation on task 0 so far         :           0.397 MB  when allocating gradient_basis_wave
  Note:  These values currently only include a subset of arrays which are explicitly tracked.
  The "true" memory usage will be greater.
------------------------------------------------------------

------------------------------------------------------------
          Begin self-consistency iteration #    4

  Date     :  20200815, Time     :  002452.470
------------------------------------------------------------
  Evaluating new KS density.
  Integration grid: deviation in total charge (<rho> - N_e) =  -7.105427E-15
  Pulay mixing of updated and previous charge densities.

  Evaluating partitioned Hartree potential by multipole expansion.
  | Analytical far-field extrapolation by fixed multipoles:
  | Hartree multipole sum: apparent total charge =  -0.561148E-03
  Summing up the Hartree potential.
  Time summed over all CPUs for potential: real work        0.282 s, elapsed        0.282 s
  | RMS charge density error from multipole expansion :   0.253891E-01

  Integrating Hamiltonian matrix: batch-based integration.
  Time summed over all CPUs for integration: real work        0.491 s, elapsed        0.491 s

  Updating Kohn-Sham eigenvalues and eigenvectors using ELSI and the ELPA eigensolver.
  Finished Cholesky decomposition
  | Time :     0.000 s
  Finished transformation to standard eigenproblem
  | Time :     0.000 s
  Starting LAPACK eigensolver
  Finished solving standard eigenproblem
  | Time :     0.002 s
  Finished back-transformation of eigenvectors
  | Time :     0.000 s

  Obtaining occupation numbers and chemical potential using ELSI.
  | Chemical potential (Fermi level):    -2.17817118eV
  Highest occupied state (VBM) at     -5.42384176 eV
  | Occupation number:      2.00000000

  Lowest unoccupied state (CBM) at    -1.34228242 eV
  | Occupation number:      0.00000000

  Overall HOMO-LUMO gap:      4.08155933 eV.

  Total energy components:
  | Sum of eigenvalues            :        -180.37141921 Ha       -4908.15604083 eV
  | XC energy correction          :         -42.66844395 Ha       -1161.06743426 eV
  | XC potential correction       :          54.85736206 Ha        1492.74477163 eV
  | Free-atom electrostatic energy:        -146.85537620 Ha       -3996.13810770 eV
  | Hartree energy correction     :          -8.45408651 Ha        -230.04739860 eV
  | vdW energy correction         :           0.00000000 Ha           0.00000000 eV
  | Entropy correction            :           0.00000000 Ha           0.00000000 eV
  | ---------------------------
  | Total energy                  :        -323.49196381 Ha       -8802.66420976 eV
  | Total energy, T -> 0          :        -323.49196381 Ha       -8802.66420976 eV  <-- do not rely on this value for anything but (periodic) metals
  | Electronic free energy        :        -323.49196381 Ha       -8802.66420976 eV

  Derived energy quantities:
  | Kinetic energy                :         322.81445655 Ha        8784.22829926 eV
  | Electrostatic energy          :        -603.63797641 Ha      -16425.82507476 eV
  | Energy correction for multipole
  | error in Hartree potential    :           0.04253455 Ha           1.15742394 eV
  | Sum of eigenvalues per atom                           :        -377.55046468 eV
  | Total energy (T->0) per atom                          :        -677.12801614 eV  <-- do not rely on this value for anything but (periodic) metals
  | Electronic free energy per atom                       :        -677.12801614 eV

  Self-consistency convergence accuracy:
  | Change of charge density      :  0.6326E-01
  | Change of sum of eigenvalues  :  0.3808E+01 eV
  | Change of total energy        :  0.2345E-01 eV

  End self-consistency iteration #     4       :  max(cpu_time)    wall_clock(cpu1)
  | Time for this iteration                    :        1.180 s           1.181 s
  | Charge density update                      :        0.387 s           0.387 s
  | Density mixing                             :        0.009 s           0.009 s
  | Hartree multipole update                   :        0.009 s           0.009 s
  | Hartree multipole summation                :        0.282 s           0.282 s
  | Integration                                :        0.491 s           0.492 s
  | Solution of K.-S. eqns.                    :        0.002 s           0.002 s
  | Total energy evaluation                    :        0.000 s           0.000 s

  Partial memory accounting:
  | Current value for overall tracked memory usage on task 0  :           0.166 MB
  | Peak value for overall tracked memory usage on task 0     :           0.696 MB after allocating gradient_basis_wave
  | Largest tracked array allocation on task 0 so far         :           0.397 MB  when allocating gradient_basis_wave
  Note:  These values currently only include a subset of arrays which are explicitly tracked.
  The "true" memory usage will be greater.
------------------------------------------------------------

------------------------------------------------------------
          Begin self-consistency iteration #    5

  Date     :  20200815, Time     :  002453.654
------------------------------------------------------------
  Evaluating new KS density.
  Integration grid: deviation in total charge (<rho> - N_e) =  -2.131628E-14
  Pulay mixing of updated and previous charge densities.

  Evaluating partitioned Hartree potential by multipole expansion.
  | Analytical far-field extrapolation by fixed multipoles:
  | Hartree multipole sum: apparent total charge =  -0.554711E-03
  Summing up the Hartree potential.
  Time summed over all CPUs for potential: real work        0.282 s, elapsed        0.282 s
  | RMS charge density error from multipole expansion :   0.251345E-01

  Integrating Hamiltonian matrix: batch-based integration.
  Time summed over all CPUs for integration: real work        0.491 s, elapsed        0.491 s

  Updating Kohn-Sham eigenvalues and eigenvectors using ELSI and the ELPA eigensolver.
  Finished Cholesky decomposition
  | Time :     0.000 s
  Finished transformation to standard eigenproblem
  | Time :     0.000 s
  Starting LAPACK eigensolver
  Finished solving standard eigenproblem
  | Time :     0.002 s
  Finished back-transformation of eigenvectors
  | Time :     0.000 s

  Obtaining occupation numbers and chemical potential using ELSI.
  | Chemical potential (Fermi level):    -2.24351788eV
  Highest occupied state (VBM) at     -5.51694105 eV
  | Occupation number:      2.00000000

  Lowest unoccupied state (CBM) at    -1.42915734 eV
  | Occupation number:      0.00000000

  Overall HOMO-LUMO gap:      4.08778372 eV.

  Total energy components:
  | Sum of eigenvalues            :        -180.56556293 Ha       -4913.43896035 eV
  | XC energy correction          :         -42.64452932 Ha       -1160.41668424 eV
  | XC potential correction       :          54.82634876 Ha        1491.90085675 eV
  | Free-atom electrostatic energy:        -146.85537620 Ha       -3996.13810770 eV
  | Hartree energy correction     :          -8.25254835 Ha        -224.56326629 eV
  | vdW energy correction         :           0.00000000 Ha           0.00000000 eV
  | Entropy correction            :           0.00000000 Ha           0.00000000 eV
  | ---------------------------
  | Total energy                  :        -323.49166805 Ha       -8802.65616182 eV
  | Total energy, T -> 0          :        -323.49166805 Ha       -8802.65616182 eV  <-- do not rely on this value for anything but (periodic) metals
  | Electronic free energy        :        -323.49166805 Ha       -8802.65616182 eV

  Derived energy quantities:
  | Kinetic energy                :         322.70625846 Ha        8781.28407948 eV
  | Electrostatic energy          :        -603.55339718 Ha      -16423.52355707 eV
  | Energy correction for multipole
  | error in Hartree potential    :           0.04188957 Ha           1.13987325 eV
  | Sum of eigenvalues per atom                           :        -377.95684310 eV
  | Total energy (T->0) per atom                          :        -677.12739706 eV  <-- do not rely on this value for anything but (periodic) metals
  | Electronic free energy per atom                       :        -677.12739706 eV

  Self-consistency convergence accuracy:
  | Change of charge density      :  0.2037E-01
  | Change of sum of eigenvalues  : -0.5283E+01 eV
  | Change of total energy        :  0.8048E-02 eV

  End self-consistency iteration #     5       :  max(cpu_time)    wall_clock(cpu1)
  | Time for this iteration                    :        1.182 s           1.182 s
  | Charge density update                      :        0.387 s           0.387 s
  | Density mixing                             :        0.011 s           0.011 s
  | Hartree multipole update                   :        0.009 s           0.008 s
  | Hartree multipole summation                :        0.282 s           0.283 s
  | Integration                                :        0.491 s           0.491 s
  | Solution of K.-S. eqns.                    :        0.002 s           0.002 s
  | Total energy evaluation                    :        0.000 s           0.000 s

  Partial memory accounting:
  | Current value for overall tracked memory usage on task 0  :           0.166 MB
  | Peak value for overall tracked memory usage on task 0     :           0.696 MB after allocating gradient_basis_wave
  | Largest tracked array allocation on task 0 so far         :           0.397 MB  when allocating gradient_basis_wave
  Note:  These values currently only include a subset of arrays which are explicitly tracked.
  The "true" memory usage will be greater.
------------------------------------------------------------

------------------------------------------------------------
          Begin self-consistency iteration #    6

  Date     :  20200815, Time     :  002454.838
------------------------------------------------------------
  Evaluating new KS density.
  Integration grid: deviation in total charge (<rho> - N_e) =   2.131628E-14
  Pulay mixing of updated and previous charge densities.

  Evaluating partitioned Hartree potential by multipole expansion.
  | Analytical far-field extrapolation by fixed multipoles:
  | Hartree multipole sum: apparent total charge =  -0.558233E-03
  Summing up the Hartree potential.
  Time summed over all CPUs for potential: real work        0.282 s, elapsed        0.282 s
  | RMS charge density error from multipole expansion :   0.255534E-01

  Integrating Hamiltonian matrix: batch-based integration.
  Time summed over all CPUs for integration: real work        0.492 s, elapsed        0.492 s

  Updating Kohn-Sham eigenvalues and eigenvectors using ELSI and the ELPA eigensolver.
  Finished Cholesky decomposition
  | Time :     0.000 s
  Finished transformation to standard eigenproblem
  | Time :     0.000 s
  Starting LAPACK eigensolver
  Finished solving standard eigenproblem
  | Time :     0.002 s
  Finished back-transformation of eigenvectors
  | Time :     0.000 s

  Obtaining occupation numbers and chemical potential using ELSI.
  | Chemical potential (Fermi level):    -2.24270458eV
  Highest occupied state (VBM) at     -5.48971086 eV
  | Occupation number:      2.00000000

  Lowest unoccupied state (CBM) at    -1.44528075 eV
  | Occupation number:      0.00000000

  Overall HOMO-LUMO gap:      4.04443011 eV.

  Total energy components:
  | Sum of eigenvalues            :        -180.57076256 Ha       -4913.58044947 eV
  | XC energy correction          :         -42.64310637 Ha       -1160.37796383 eV
  | XC potential correction       :          54.82448158 Ha        1491.85004818 eV
  | Free-atom electrostatic energy:        -146.85537620 Ha       -3996.13810770 eV
  | Hartree energy correction     :          -8.24685834 Ha        -224.40843333 eV
  | vdW energy correction         :           0.00000000 Ha           0.00000000 eV
  | Entropy correction            :           0.00000000 Ha           0.00000000 eV
  | ---------------------------
  | Total energy                  :        -323.49162190 Ha       -8802.65490615 eV
  | Total energy, T -> 0          :        -323.49162190 Ha       -8802.65490615 eV  <-- do not rely on this value for anything but (periodic) metals
  | Electronic free energy        :        -323.49162190 Ha       -8802.65490615 eV

  Derived energy quantities:
  | Kinetic energy                :         322.62552118 Ha        8779.08710643 eV
  | Electrostatic energy          :        -603.47403671 Ha      -16421.36404875 eV
  | Energy correction for multipole
  | error in Hartree potential    :           0.04225735 Ha           1.14988106 eV
  | Sum of eigenvalues per atom                           :        -377.96772688 eV
  | Total energy (T->0) per atom                          :        -677.12730047 eV  <-- do not rely on this value for anything but (periodic) metals
  | Electronic free energy per atom                       :        -677.12730047 eV

  Self-consistency convergence accuracy:
  | Change of charge density      :  0.1046E-01
  | Change of sum of eigenvalues  : -0.1415E+00 eV
  | Change of total energy        :  0.1256E-02 eV

  End self-consistency iteration #     6       :  max(cpu_time)    wall_clock(cpu1)
  | Time for this iteration                    :        1.184 s           1.184 s
  | Charge density update                      :        0.387 s           0.386 s
  | Density mixing                             :        0.012 s           0.012 s
  | Hartree multipole update                   :        0.009 s           0.008 s
  | Hartree multipole summation                :        0.282 s           0.283 s
  | Integration                                :        0.492 s           0.492 s
  | Solution of K.-S. eqns.                    :        0.002 s           0.002 s
  | Total energy evaluation                    :        0.000 s           0.000 s

  Partial memory accounting:
  | Current value for overall tracked memory usage on task 0  :           0.166 MB
  | Peak value for overall tracked memory usage on task 0     :           0.696 MB after allocating gradient_basis_wave
  | Largest tracked array allocation on task 0 so far         :           0.397 MB  when allocating gradient_basis_wave
  Note:  These values currently only include a subset of arrays which are explicitly tracked.
  The "true" memory usage will be greater.
------------------------------------------------------------

------------------------------------------------------------
          Begin self-consistency iteration #    7

  Date     :  20200815, Time     :  002456.025
------------------------------------------------------------
  Evaluating new KS density.
  Integration grid: deviation in total charge (<rho> - N_e) =  -1.421085E-14
  Pulay mixing of updated and previous charge densities.

  Evaluating partitioned Hartree potential by multipole expansion.
  | Analytical far-field extrapolation by fixed multipoles:
  | Hartree multipole sum: apparent total charge =  -0.559411E-03
  Summing up the Hartree potential.
  Time summed over all CPUs for potential: real work        0.282 s, elapsed        0.282 s
  | RMS charge density error from multipole expansion :   0.256886E-01

  Integrating Hamiltonian matrix: batch-based integration.
  Time summed over all CPUs for integration: real work        0.492 s, elapsed        0.492 s

  Updating Kohn-Sham eigenvalues and eigenvectors using ELSI and the ELPA eigensolver.
  Finished Cholesky decomposition
  | Time :     0.000 s
  Finished transformation to standard eigenproblem
  | Time :     0.000 s
  Starting LAPACK eigensolver
  Finished solving standard eigenproblem
  | Time :     0.002 s
  Finished back-transformation of eigenvectors
  | Time :     0.000 s

[...]
  |   Hirshfeld dipole moment :      0.06246932
  |   Hirshfeld second moments:      0.01779414      -0.02025459      -0.01417545
  |                                 -0.02025459      -0.01990699       0.00621229
  |                                 -0.01417545       0.00621229      -0.02285093
  ----------------------------------------------------------------------
  | Atom    12: O
  |   Hirshfeld charge        :     -0.14588077
  |   Free atom volume        :     23.61338643
  |   Hirshfeld volume        :     20.62338894
  |   Hirshfeld dipole vector :      0.00280366       0.01943867       0.03243658
  |   Hirshfeld dipole moment :      0.03791905
  |   Hirshfeld second moments:      0.09314571       0.01666425      -0.02162778
  |                                  0.01666425       0.06029593      -0.01085322
  |                                 -0.02162778      -0.01085322       0.04190833
  ----------------------------------------------------------------------
  | Atom    13: H
  |   Hirshfeld charge        :      0.18163431
  |   Free atom volume        :      9.95071624
  |   Hirshfeld volume        :      6.15186662
  |   Hirshfeld dipole vector :     -0.10060363      -0.02846573       0.06440690
  |   Hirshfeld dipole moment :      0.12279917
  |   Hirshfeld second moments:      0.12064751       0.00241904      -0.00876034
  |                                  0.00241904       0.12524942      -0.00079620
  |                                 -0.00876034      -0.00079620       0.09651951
  ----------------------------------------------------------------------


  Total energy components:
  | Sum of eigenvalues            :        -180.56414793 Ha       -4913.40045633 eV
  | XC energy correction          :         -42.64037692 Ha       -1160.30369167 eV
  | XC potential correction       :          54.82103361 Ha        1491.75622431 eV
  | Free-atom electrostatic energy:        -146.85537620 Ha       -3996.13810770 eV
  | Hartree energy correction     :          -8.25273083 Ha        -224.56823175 eV
  | vdW energy correction         :          -0.00332540 Ha          -0.09048866 eV
  | Entropy correction            :           0.00000000 Ha           0.00000000 eV
  | ---------------------------
  | Total energy                  :        -323.49492367 Ha       -8802.74475179 eV
  | Total energy, T -> 0          :        -323.49492367 Ha       -8802.74475179 eV  <-- do not rely on this value for anything but (periodic) metals
  | Electronic free energy        :        -323.49492367 Ha       -8802.74475179 eV

  Derived energy quantities:
  | Kinetic energy                :         322.58633818 Ha        8778.02088264 eV
  | Electrostatic energy          :        -603.43755953 Ha      -16420.37145410 eV
  | Energy correction for multipole
  | error in Hartree potential    :           0.04233273 Ha           1.15193232 eV
  | Sum of eigenvalues per atom                           :        -377.95388126 eV
  | Total energy (T->0) per atom                          :        -677.13421168 eV  <-- do not rely on this value for anything but (periodic) metals
  | Electronic free energy per atom                       :        -677.13421168 eV

  atomic forces [eV/Ang]:
  -----------------------
  atom #    1
   Hellmann-Feynman              :  0.515489E+00 -0.366946E+00  0.354743E+00
   Ionic forces                  :  0.000000E+00  0.000000E+00  0.000000E+00
   Multipole                     :  0.901371E-01  0.191348E+00 -0.190310E+00
   Pulay + GGA                   : -0.101643E+01 -0.254433E-02 -0.102415E+01
   Van der Waals                 :  0.382488E-02  0.366022E-02 -0.231708E-02
   ----------------------------------------------------------------
   Total forces(   1)            : -0.406983E+00 -0.174482E+00 -0.862038E+00
  atom #    2
   Hellmann-Feynman              :  0.235939E+00  0.983010E-01 -0.949874E-01
   Ionic forces                  :  0.000000E+00  0.000000E+00  0.000000E+00
   Multipole                     :  0.192032E+00  0.125825E-01  0.847963E-02
   Pulay + GGA                   : -0.139293E+00  0.191553E-01  0.371565E-01
   Van der Waals                 :  0.372809E-02 -0.428766E-02 -0.635826E-02
   ----------------------------------------------------------------
   Total forces(   2)            :  0.292407E+00  0.125751E+00 -0.557095E-01
  atom #    3
   Hellmann-Feynman              : -0.102932E+01  0.109184E+02 -0.236289E+01
   Ionic forces                  :  0.000000E+00  0.000000E+00  0.000000E+00
   Multipole                     : -0.241227E+00  0.315943E+00 -0.961551E+00
   Pulay + GGA                   :  0.194909E+01 -0.106372E+02  0.391740E+01
   Van der Waals                 :  0.213797E-02 -0.780601E-02 -0.590785E-02
   ----------------------------------------------------------------
   Total forces(   3)            :  0.680679E+00  0.589305E+00  0.587047E+00
  atom #    4
   Hellmann-Feynman              : -0.192295E+00 -0.317186E+00 -0.953935E-01
   Ionic forces                  :  0.000000E+00  0.000000E+00  0.000000E+00
   Multipole                     :  0.359625E-01 -0.480924E-01 -0.106731E+00
   Pulay + GGA                   : -0.135482E+00  0.169173E+00  0.913389E-01
   Van der Waals                 : -0.144688E-02  0.444161E-02 -0.155711E-02
   ----------------------------------------------------------------
   Total forces(   4)            : -0.293262E+00 -0.191664E+00 -0.112342E+00
  atom #    5
   Hellmann-Feynman              : -0.694215E-01 -0.260719E+00 -0.178835E+00
   Ionic forces                  :  0.000000E+00  0.000000E+00  0.000000E+00
   Multipole                     : -0.777001E-01 -0.591233E-01 -0.599435E-01
   Pulay + GGA                   :  0.197704E+00  0.145246E+00  0.100185E-01
   Van der Waals                 : -0.804914E-03 -0.135245E-02 -0.158318E-02
   ----------------------------------------------------------------
   Total forces(   5)            :  0.497771E-01 -0.175949E+00 -0.230343E+00
  atom #    6
   Hellmann-Feynman              :  0.185034E+00 -0.432573E+00  0.554556E+00
   Ionic forces                  :  0.000000E+00  0.000000E+00  0.000000E+00
   Multipole                     : -0.118168E+00  0.661264E+00  0.244353E+00
   Pulay + GGA                   :  0.756046E-01 -0.635410E+00 -0.571495E+00
   Van der Waals                 : -0.876236E-03  0.711688E-02 -0.121265E-02
   ----------------------------------------------------------------
   Total forces(   6)            :  0.141594E+00 -0.399602E+00  0.226201E+00
  atom #    7
   Hellmann-Feynman              : -0.232802E+00 -0.368028E-01 -0.393889E-01
   Ionic forces                  :  0.000000E+00  0.000000E+00  0.000000E+00
   Multipole                     : -0.117503E+00  0.490852E-01  0.248651E-01
   Pulay + GGA                   :  0.114793E+00  0.271258E-01 -0.417564E-02
   Van der Waals                 : -0.202349E-02  0.135968E-02  0.397845E-02
   ----------------------------------------------------------------
   Total forces(   7)            : -0.237536E+00  0.407678E-01 -0.147210E-01
  atom #    8
   Hellmann-Feynman              :  0.369708E-01 -0.498264E-01  0.178619E+00
   Ionic forces                  :  0.000000E+00  0.000000E+00  0.000000E+00
   Multipole                     :  0.177143E-01  0.650812E-01  0.123372E+00
   Pulay + GGA                   : -0.376695E-01 -0.360691E-01 -0.864146E-01
   Van der Waals                 : -0.286150E-02  0.112811E-01  0.160382E-02
   ----------------------------------------------------------------
   Total forces(   8)            :  0.141542E-01 -0.953323E-02  0.217180E+00
  atom #    9
   Hellmann-Feynman              :  0.890860E-01 -0.179131E-01 -0.207946E+00
   Ionic forces                  :  0.000000E+00  0.000000E+00  0.000000E+00
   Multipole                     :  0.169878E-01  0.132831E+00 -0.831778E-02
   Pulay + GGA                   : -0.556506E-01 -0.112145E+00  0.185739E-01
   Van der Waals                 : -0.248898E-02  0.231810E-02  0.349534E-02
   ----------------------------------------------------------------
   Total forces(   9)            :  0.479343E-01  0.509062E-02 -0.194195E+00
  atom #   10
   Hellmann-Feynman              :  0.370121E+01  0.567553E+01  0.136206E+01
   Ionic forces                  :  0.000000E+00  0.000000E+00  0.000000E+00
   Multipole                     :  0.211935E-01 -0.103396E+00  0.203851E+00
   Pulay + GGA                   : -0.148940E+01 -0.343301E+01 -0.437400E+00
   Van der Waals                 :  0.240183E-02 -0.152931E-01  0.780442E-02
   ----------------------------------------------------------------
   Total forces(  10)            :  0.223540E+01  0.212384E+01  0.113632E+01
  atom #   11
   Hellmann-Feynman              :  0.419585E+01 -0.224831E+01  0.140801E+02
   Ionic forces                  :  0.000000E+00  0.000000E+00  0.000000E+00
   Multipole                     :  0.133849E-01 -0.594831E+00  0.814848E+00
   Pulay + GGA                   : -0.368819E+01  0.349066E+01 -0.133214E+02
   Van der Waals                 : -0.322868E-02 -0.117372E-01  0.102321E-02
   ----------------------------------------------------------------
   Total forces(  11)            :  0.517816E+00  0.635784E+00  0.157456E+01
  atom #   12
   Hellmann-Feynman              : -0.150460E+01 -0.370659E+01 -0.158932E+02
   Ionic forces                  :  0.000000E+00  0.000000E+00  0.000000E+00
   Multipole                     : -0.622786E+00 -0.121226E+01 -0.659966E+00
   Pulay + GGA                   : -0.664426E+00  0.365069E+01  0.142956E+02
   Van der Waals                 :  0.768799E-03  0.469862E-02  0.524916E-02
   ----------------------------------------------------------------
   Total forces(  12)            : -0.279104E+01 -0.126346E+01 -0.225237E+01
  atom #   13
   Hellmann-Feynman              : -0.456699E+00 -0.138318E+01  0.187461E+00
   Ionic forces                  :  0.000000E+00  0.000000E+00  0.000000E+00
   Multipole                     : -0.799957E-01 -0.161481E-01  0.462449E-01
   Pulay + GGA                   :  0.280980E+00  0.842988E-01 -0.249524E+00
   Van der Waals                 :  0.869102E-03  0.560029E-02 -0.421828E-02
   ----------------------------------------------------------------
   Total forces(  13)            : -0.254846E+00 -0.130943E+01 -0.200358E-01

  Timings for VdW correction (Tkatchenko-Scheffler 2009 or later):
  | CPU time:        0.088 s, Wall clock time:        0.089 s.
  Removing unitary transformations (pure translations, rotations) from forces on atoms.
  Atomic forces before filtering:
  | Net force on center of mass :  -0.390610E-02 -0.358480E-02 -0.442019E-03 eV/A
  | Net torque on center of mass:  -0.712429E-02  0.471577E-02 -0.458863E-02 eV
  Atomic forces after filtering:
  | Net force on center of mass :  -0.446015E-15  0.178406E-15  0.473891E-16 eV/A
  | Net torque on center of mass:  -0.283225E-15  0.253723E-15 -0.377634E-15 eV

  Energy and forces in a compact form:
  | Total energy uncorrected      :         -0.880274475179311E+04 eV
  | Total energy corrected        :         -0.880274475179311E+04 eV  <-- do not rely on this value for anything but (periodic) metals
  | Electronic free energy        :         -0.880274475179311E+04 eV
  Total atomic forces (unitary forces cleaned) [eV/Ang]:
  |   1         -0.406681299335372E+00         -0.174114093716842E+00         -0.861895419837551E+00
  |   2          0.292708843900229E+00          0.126270912109811E+00         -0.553850090717904E-01
  |   3          0.681216148262110E+00          0.589831072618752E+00          0.587109714166645E+00
  |   4         -0.292564303236941E+00         -0.190946629792051E+00         -0.112235479737088E+00
  |   5          0.503928283649297E-01         -0.175537472192074E+00         -0.230508671857485E+00
  |   6          0.141598791741870E+00         -0.399419589018161E+00          0.226462775005567E+00
  |   7         -0.237537756777700E+00          0.407953669380960E-01         -0.146372873783682E-01
  |   8          0.139852922657199E-01         -0.946536148329968E-02          0.217503255887627E+00
  |   9          0.478977696925200E-01          0.540375214289112E-02         -0.193729756609434E+00
  |  10          0.223575666375821E+01          0.212403347501793E+01          0.113619072508881E+01
  |  11          0.518022210419227E+00          0.635836240788036E+00          0.157443717467294E+01
  |  12         -0.279045333016754E+01         -0.126325624929261E+01         -0.225275003431340E+01
  |  13         -0.254341858887263E+00         -0.130943142412048E+01         -0.205619860164745E-01

  ------------------------------------ 
  Start decomposition of the XC Energy 
  ------------------------------------ 
  X and C from original XC functional choice 
  Hartree-Fock Energy :          0.000000000 Ha              0.000000000 eV
  X Energy            :        -41.039754838 Ha          -1116.748548671 eV
  C Energy            :         -1.600622085 Ha            -43.555142997 eV
  Total XC Energy     :        -42.640376923 Ha          -1160.303691668 eV
  ------------------------------------ 
  LDA X and C from self-consistent density 
  X Energy LDA        :        -37.258720791 Ha          -1013.861377412 eV
  C Energy LDA        :         -3.138690062 Ha            -85.408102113 eV
  ------------------------------------ 
  End decomposition of the XC Energy 
  ------------------------------------ 

------------------------------------------------------------

------------------------------------------------------------------------------
  Final output of selected total energy values:

  The following output summarizes some interesting total energy values
  at the end of a run (AFTER all relaxation, molecular dynamics, etc.).

  | Total energy of the DFT / Hartree-Fock s.c.f. calculation      :          -8802.744751793 eV
  | Final zero-broadening corrected energy (caution - metals only) :          -8802.744751793 eV
  | For reference only, the value of 1 Hartree used in FHI-aims is :             27.211384500 eV

  Before relying on these values, please be sure to understand exactly which
  total energy value is referred to by a given number. Different objects may
  all carry the same name 'total energy'. Definitions:

  Total energy of the DFT / Hartree-Fock s.c.f. calculation:
  | Note that this energy does not include ANY quantities calculated after the
  | s.c.f. cycle, in particular not ANY RPA, MP2, etc. many-body perturbation terms.

  Final zero-broadening corrected energy:
  | For metallic systems only, a broadening of the occupation numbers at the Fermi
  | level can be extrapolated back to zero broadening by an electron-gas inspired
  | formula. For all systems that are not real metals, this value can be
  | meaningless and should be avoided.

------------------------------------------------------------------------------
  Methods described in the following list of references were used in this FHI-aims run.
  If you publish the results, please make sure to cite these reference if they apply.
  FHI-aims is an academic code, and for our developers (often, Ph.D. students
  and postdocs), scientific credit in the community is essential.
  Thank you for helping us!

  For any use of FHI-aims, please cite:

    Volker Blum, Ralf Gehrke, Felix Hanke, Paula Havu, Ville Havu,
    Xinguo Ren, Karsten Reuter, and Matthias Scheffler
    'Ab initio molecular simulations with numeric atom-centered orbitals'
    Computer Physics Communications 180, 2175-2196 (2009)
    http://dx.doi.org/10.1016/j.cpc.2009.06.022


  The scalable eigensolver library ELPA was used in your run.
  ELPA is essential especially for large systems on hundreds or thousands of CPUs.
  For ELPA, please cite:

    Andreas Marek, Volker Blum, Rainer Johanni, Ville Havu, Bruno Lang,
    Thomas Auckenthaler, Alexander Heinecke, Hans-Joachim Bungartz, and Hermann Lederer,
    'The ELPA Library - Scalable Parallel Eigenvalue Solutions
    for Electronic Structure Theory and Computational Science'
    The Journal of Physics: Condensed Matter 26, 213201 (2014).
    http://dx.doi.org/10.1088/0953-8984/26/21/213201


  The ELSI infrastructure was used in your run to solve the Kohn-Sham electronic structure.
  Please check out http://elsi-interchange.org to learn more.
  If scalability is important for your project, please acknowledge ELSI by citing:

    V. W-z. Yu, F. Corsetti, A. Garcia, W. P. Huhn, M. Jacquelin, W. Jia,
    B. Lange, L. Lin, J. Lu, W. Mi, A. Seifitokaldani, A. Vazquez-Mayagoitia,
    C. Yang, H. Yang, and V. Blum
    'ELSI: A unified software interface for Kohn-Sham electronic structure solvers'
    Computer Physics Communications 222, 267-285 (2018).
    http://dx.doi.org/10.1016/j.cpc.2017.09.007


  For the real-space grid partitioning and parallelization used in this calculation, please cite:

    Ville Havu, Volker Blum, Paula Havu, and Matthias Scheffler,
    'Efficient O(N) integration for all-electron electronic structure calculation'
    'using numerically tabulated basis functions'
    Journal of Computational Physics 228, 8367-8379 (2009).
    http://dx.doi.org/10.1016/j.jcp.2009.08.008

  Of course, there are many other important community references, e.g., those cited in the
  above references. Our list is limited to references that describe implementations in the
  FHI-aims code. The reason is purely practical (length of this list) - please credit others as well.

------------------------------------------------------------
          Leaving FHI-aims.
          Date     :  20200815, Time     :  002509.189

          Computational steps:
          | Number of self-consistency cycles          :           15
          | Number of SCF (re)initializations          :            1

          Detailed time accounting                     :  max(cpu_time)    wall_clock(cpu1)
          | Total time                                 :       21.435 s          21.587 s
          | Preparation time                           :        0.145 s           0.146 s
          | Boundary condition initalization           :        0.000 s           0.000 s
          | Grid partitioning                          :        0.112 s           0.112 s
          | Preloading free-atom quantities on grid    :        0.002 s           0.002 s
          | Free-atom superposition energy             :        0.084 s           0.084 s
          | Total time for integrations                :        8.081 s           8.136 s
          | Total time for solution of K.-S. equations :        0.035 s           0.035 s
          | Total time for density & force components  :        6.773 s           6.812 s
          | Total time for mixing                      :        0.196 s           0.197 s
          | Total time for Hartree multipole update    :        0.130 s           0.130 s
          | Total time for Hartree multipole sum       :        5.481 s           5.497 s
          | Total time for total energy evaluation     :        0.002 s           0.003 s
          | Total time for vdW correction              :        0.088 s           0.089 s

          Partial memory accounting:
          | Residual value for overall tracked memory usage across tasks :           0.000 MB (should be 0.000 MB)
          | Peak values for overall tracked memory usage (after allocating hessian_basis_wave):
          |   Minimum:        1.622 MB (on task 1)
          |   Maximum:        1.622 MB (on task 1)
          |   Average:        1.622 MB
          | Largest tracked array allocation (hessian_basis_wave):
          |   Minimum:        0.794 MB (on task 1)
          |   Maximum:        0.794 MB (on task 1)
          |   Average:        0.794 MB
          Note:  These values currently only include a subset of arrays which are explicitly tracked.
          The "true" memory usage will be greater.

          Have a nice day.
------------------------------------------------------------
