  MPI-parallelism will be employed.
------------------------------------------------------------
          Invoking FHI-aims ...
          Version 171221_1
          Compiled on 2019/09/09 at 14:39:39 on host puhti-login2.bullx.

          When using FHI-aims, please cite the following reference:

          Volker Blum, Ralf Gehrke, Felix Hanke, Paula Havu,
          Ville Havu, Xinguo Ren, Karsten Reuter, and Matthias Scheffler,
          'Ab Initio Molecular Simulations with Numeric Atom-Centered Orbitals',
          Computer Physics Communications 180, 2175-2196 (2009)

          For any questions about FHI-aims, please visit the aimsclub website
          with its forums and wiki. Contributions to both the forums and the
          wiki are warmly encouraged - they are for you, and everyone is welcome there.

------------------------------------------------------------



  Date     :  20200805, Time     :  184343.943
  Time zero on CPU 1             :   0.182510000000000E-01  s.
  Internal wall clock time zero  :           365885023.943  s.

  FHI-aims created a unique identifier for this run for later identification
  aims_uuid : 1BD69BDA-4A4C-42A6-A074-4CEBEF6C7769

  Using        1 parallel tasks.
  Task        0 on host r18c26.bullx reporting.

  Performing system and environment tests:
  | Environment variable OMP_NUM_THREADS correctly set to 1.
  | Stacksize not measured: no C compiler
  | Checking for scalapack...
  | Testing pdtran()...
  | All pdtran() tests passed.

  Obtaining array dimensions for all initial allocations:
  
  -----------------------------------------------------------------------
  Parsing control.in (first pass over file, find array dimensions only).
  The contents of control.in will be repeated verbatim below
  unless switched off by setting 'verbatim_writeout .false.' .
  in the first line of control.in .
  -----------------------------------------------------------------------
  
  #########################################################################################
  #
  #  Volker Blum, FHI 2009 : Test run input file control.in for simple H2O
  #
  #########################################################################################
  #
  #  Physical model
  #
    xc                 pbe
    vdw_correction_hirshfeld
    spin               none
    relativistic       none
    charge             0.
  #
  #  SCF convergence
  #
    occupation_type    gaussian 0.01
    mixer              pulay
      n_max_pulay        10
      charge_mix_param   0.2
    sc_accuracy_rho    1E-5
    sc_accuracy_eev    1E-3
    sc_accuracy_etot   1E-6
    sc_accuracy_forces 1E-4
    sc_iter_limit      100
  #
  #  Relaxation
  #
  #  relax_geometry   bfgs 1.e-3
  #
  ################################################################################
  #
  #  FHI-aims code project
  #  VB, Fritz-Haber Institut, 2009
  #
  #  Suggested "light" defaults for H atom (to be pasted into control.in file)
  #  Be sure to double-check any results obtained with these settings for post-processing,
  #  e.g., with the "tight" defaults and larger basis sets.
  #
  ################################################################################
    species        H
  #     global species definitions
      nucleus             1
      mass                1.00794
  #
      l_hartree           4
  #
      cut_pot             3.5  1.5  1.0
      basis_dep_cutoff    1e-4
  #
      radial_base         24 5.0
      radial_multiplier   1
      angular_grids       specified
        division   0.2421   50
        division   0.3822  110
        division   0.4799  194
        division   0.5341  302
  #      division   0.5626  434
  #      division   0.5922  590
  #      division   0.6542  770
  #      division   0.6868 1202
  #      outer_grid  770
        outer_grid  302
  ################################################################################
  #
  #  Definition of "minimal" basis
  #
  ################################################################################
  #     valence basis states
      valence      1  s   1.
  #     ion occupancy
      ion_occ      1  s   0.5
  ################################################################################
  #
  #  Suggested additional basis functions. For production calculations,
  #  uncomment them one after another (the most important basis functions are
  #  listed first).
  #
  #  Basis constructed for dimers: 0.5 A, 0.7 A, 1.0 A, 1.5 A, 2.5 A
  #
  ################################################################################
  #  "First tier" - improvements: -1014.90 meV to -62.69 meV
       hydro 2 s 2.1
       hydro 2 p 3.5
  #  "Second tier" - improvements: -12.89 meV to -1.83 meV
  #     hydro 1 s 0.85
  #     hydro 2 p 3.7
  #     hydro 2 s 1.2
  #     hydro 3 d 7
  #  "Third tier" - improvements: -0.25 meV to -0.12 meV
  #     hydro 4 f 11.2
  #     hydro 3 p 4.8
  #     hydro 4 d 9
  #     hydro 3 s 3.2
  ################################################################################
  #
  #  FHI-aims code project
  #  VB, Fritz-Haber Institut, 2009
  #
  #  Suggested "light" defaults for C atom (to be pasted into control.in file)
  #  Be sure to double-check any results obtained with these settings for post-processing,
  #  e.g., with the "tight" defaults and larger basis sets.
  #
  ################################################################################
    species        C
  #     global species definitions
      nucleus             6
      mass                12.0107
  #
      l_hartree           4
  #
      cut_pot             3.5  1.5  1.0
      basis_dep_cutoff    1e-4
  #
      radial_base         34 5.0
      radial_multiplier   1
      angular_grids specified
        division   0.3326   50
        division   0.5710  110
        division   0.7727  194
        division   0.8772  302
  #      division   0.9334  434
  #      division   0.9625  590
  #      division   0.9924  770
  #      division   1.0230  974
  #      division   1.4589 1202
  #     outer_grid  974
       outer_grid 302
  ################################################################################
  #
  #  Definition of "minimal" basis
  #
  ################################################################################
  #     valence basis states
      valence      2  s   2.
      valence      2  p   2.
  #     ion occupancy
      ion_occ      2  s   1.
      ion_occ      2  p   1.
  ################################################################################
  #
  #  Suggested additional basis functions. For production calculations,
  #  uncomment them one after another (the most important basis functions are
  #  listed first).
  #
  #  Constructed for dimers: 1.0 A, 1.25 A, 1.5 A, 2.0 A, 3.0 A
  #
  ################################################################################
  #  "First tier" - improvements: -1214.57 meV to -155.61 meV
       hydro 2 p 1.7
       hydro 3 d 6
       hydro 2 s 4.9
  #  "Second tier" - improvements: -67.75 meV to -5.23 meV
  #     hydro 4 f 9.8
  #     hydro 3 p 5.2
  #     hydro 3 s 4.3
  #     hydro 5 g 14.4
  #     hydro 3 d 6.2
  #  "Third tier" - improvements: -2.43 meV to -0.60 meV
  #     hydro 2 p 5.6
  #     hydro 2 s 1.4
  #     hydro 3 d 4.9
  #     hydro 4 f 11.2
  #  "Fourth tier" - improvements: -0.39 meV to -0.18 meV
  #     hydro 2 p 2.1
  #     hydro 5 g 16.4
  #     hydro 4 d 13.2
  #     hydro 3 s 13.6
  #     hydro 4 f 17.6
  #  Further basis functions - improvements: -0.08 meV and below
  #     hydro 3 s 2
  #     hydro 3 p 6
  #     hydro 4 d 20
  ################################################################################
  #
  #  FHI-aims code project
  #  VB, Fritz-Haber Institut, 2009
  #
  #  Suggested "light" defaults for N atom (to be pasted into control.in file)
  #  Be sure to double-check any results obtained with these settings for post-processing,
  #  e.g., with the "tight" defaults and larger basis sets.
  #
  ################################################################################
    species        N
  #     global species definitions
      nucleus             7
      mass                14.0067
  #
      l_hartree           4
  #
      cut_pot             3.5  1.5  1.0
      basis_dep_cutoff    1e-4
  #
      radial_base         35 5.0
      radial_multiplier   1
      angular_grids       specified
        division   0.2599   50
        division   0.4601  110
        division   0.5885  194
        division   0.6503  302
  #      division   0.6939  434
  #      division   0.7396  590
  #      division   0.7632  770
  #      division   0.8122  974
  #      division   1.1604 1202
  #      outer_grid  974
        outer_grid  302
  ################################################################################
  #
  #  Definition of "minimal" basis
  #
  ################################################################################
  #     valence basis states
      valence      2  s   2.
      valence      2  p   3.
  #     ion occupancy
      ion_occ      2  s   1.
      ion_occ      2  p   2.
  ################################################################################
  #
  #  Suggested additional basis functions. For production calculations,
  #  uncomment them one after another (the most important basis functions are
  #  listed first).
  #
  #  Constructed for dimers: 1.0 A, 1.1 A, 1.5 A, 2.0 A, 3.0 A
  #
  ################################################################################
  #  "First tier" - improvements: -1193.42 meV to -220.60 meV
       hydro 2 p 1.8
       hydro 3 d 6.8
       hydro 3 s 5.8
  #  "Second tier" - improvements: -80.21 meV to -6.86 meV
  #     hydro 4 f 10.8
  #     hydro 3 p 5.8
  #     hydro 1 s 0.8
  #     hydro 5 g 16
  #     hydro 3 d 4.9
  #  "Third tier" - improvements: -4.29 meV to -0.53 meV
  #     hydro 3 s 16
  #     ionic 2 p auto
  #     hydro 3 d 6.6
  #     hydro 4 f 11.6
  #  "Fourth tier" - improvements: -0.75 meV to -0.25 meV
  #     hydro 2 p 4.5
  #     hydro 2 s 2.4
  #     hydro 5 g 14.4
  #     hydro 4 d 14.4
  #     hydro 4 f 16.8
  # Further basis functions - -0.21 meV and below
  #     hydro 3 p 14.8
  #     hydro 3 s 4.4
  #     hydro 3 d 19.6
  #     hydro 5 g 12.8
  ################################################################################
  #
  #  FHI-aims code project
  #  VB, Fritz-Haber Institut, 2009
  #
  #  Suggested "light" defaults for O atom (to be pasted into control.in file)
  #  Be sure to double-check any results obtained with these settings for post-processing,
  #  e.g., with the "tight" defaults and larger basis sets.
  #
  ################################################################################
    species        O
  #     global species definitions
      nucleus             8
      mass                15.9994
  #
      l_hartree           4
  #
      cut_pot             3.5  1.5  1.0
      basis_dep_cutoff    1e-4
  #
      radial_base         36 5.0
      radial_multiplier   1
       angular_grids specified
        division   0.2659   50
        division   0.4451  110
        division   0.6052  194
        division   0.7543  302
  #      division   0.8014  434
  #      division   0.8507  590
  #      division   0.8762  770
  #      division   0.9023  974
  #      division   1.2339 1202
  #      outer_grid 974
        outer_grid 302
  ################################################################################
  #
  #  Definition of "minimal" basis
  #
  ################################################################################
  #     valence basis states
      valence      2  s   2.
      valence      2  p   4.
  #     ion occupancy
      ion_occ      2  s   1.
      ion_occ      2  p   3.
  ################################################################################
  #
  #  Suggested additional basis functions. For production calculations,
  #  uncomment them one after another (the most important basis functions are
  #  listed first).
  #
  #  Constructed for dimers: 1.0 A, 1.208 A, 1.5 A, 2.0 A, 3.0 A
  #
  ################################################################################
  #  "First tier" - improvements: -699.05 meV to -159.38 meV
       hydro 2 p 1.8
       hydro 3 d 7.6
       hydro 3 s 6.4
  #  "Second tier" - improvements: -49.91 meV to -5.39 meV
  #     hydro 4 f 11.6
  #     hydro 3 p 6.2
  #     hydro 3 d 5.6
  #     hydro 5 g 17.6
  #     hydro 1 s 0.75
  #  "Third tier" - improvements: -2.83 meV to -0.50 meV
  #     ionic 2 p auto
  #     hydro 4 f 10.8
  #     hydro 4 d 4.7
  #     hydro 2 s 6.8
  #  "Fourth tier" - improvements: -0.40 meV to -0.12 meV
  #     hydro 3 p 5
  #     hydro 3 s 3.3
  #     hydro 5 g 15.6
  #     hydro 4 f 17.6
  #     hydro 4 d 14
  # Further basis functions - -0.08 meV and below
  #     hydro 3 s 2.1
  #     hydro 4 d 11.6
  #     hydro 3 p 16
  #     hydro 2 s 17.2
  
  -----------------------------------------------------------------------
  Completed first pass over input file control.in .
  -----------------------------------------------------------------------
  
  
  -----------------------------------------------------------------------
  Parsing geometry.in (first pass over file, find array dimensions only).
  The contents of geometry.in will be repeated verbatim below
  unless switched off by setting 'verbatim_writeout .false.' .
  in the first line of geometry.in .
  -----------------------------------------------------------------------
  
  atom  0.00000 0.00000 0.00000 C
  atom  1.09300 0.00000 0.00000 H
  atom  -0.47961 0.00000 -1.41207 N
  atom  -0.40611 -0.94828 -1.78247 H
  atom  -1.44910 0.30978 -1.42798 H
  atom  -0.49584 1.26211 0.72868 C
  atom  -1.58789 1.28919 0.74431 H
  atom  -0.13407 1.27425 1.75947 H
  atom  -0.13407 2.16087 0.22380 H
  atom  -0.39425 -1.28861 0.74398 C
  atom  -0.10189 -1.56493 1.88303 O
  atom  -1.10210 -2.13717 0.06896 O
  atom  -1.78928 -2.30982 0.73451 H
  
  -----------------------------------------------------------------------
  Completed first pass over input file geometry.in .
  -----------------------------------------------------------------------
  

  Basic array size parameters:
  | Number of species                 :        4
  | Number of atoms                   :       13
  | Max. basis fn. angular momentum   :        2
  | Max. atomic/ionic basis occupied n:        2
  | Max. number of basis fn. types    :        2
  | Max. radial fns per species/type  :        3
  | Max. logarithmic grid size        :     1301
  | Max. radial integration grid size :       36
  | Max. angular integration grid size:      302
  | Max. angular grid division number :        8
  | Radial grid for Hartree potential :     1301
  | Number of spin channels           :        1

------------------------------------------------------------
          Reading file control.in.
------------------------------------------------------------
  XC: Using PBE gradient-corrected functionals.
  Spin treatment: No spin polarisation.
  Non-relativistic treatment of kinetic energy.
  Charge =   0.000000E+00: Neutral system requested explicitly.
  Occupation type: Gaussian broadening, width =   0.100000E-01 eV.
  Using pulay charge density mixing.
  Pulay mixing - number of memorized iterations:   10
  Charge density mixing - mixing parameter:     0.2000
  Convergence accuracy of self-consistent charge density:  0.1000E-04
  Convergence accuracy of sum of eigenvalues:  0.1000E-02
  Convergence accuracy of total energy:  0.1000E-05
  Convergence accuracy of forces:  0.1000E-03
  Maximum number of s.-c. iterations  :   100
 
  Reading configuration options for species H                   .
  | Found nuclear charge :   1.0000
  | Found atomic mass :    1.00794000000000      amu
  | Found l_max for Hartree potential  :   4
  | Found cutoff potl. onset [A], width [A], scale factor :    3.50000    1.50000    1.00000
  | Threshold for basis-dependent cutoff potential is   0.100000E-03
  | Found data for basic radial integration grid :    24 points, outermost radius =    5.000 A
  | Found multiplier for basic radial grid :   1
  | Found angular grid specification: user-specified.
  | Specified grid contains     5 separate shells.
  | Check grid settings after all constraints further below.
  | Found free-atom valence shell :  1 s   1.000
  | No ionic wave fns used. Skipping ion_occ.
  | Found hydrogenic basis function :  2 s   2.100
  | Found hydrogenic basis function :  2 p   3.500
  Species H                   : Missing cutoff potential type.
  Defaulting to exp(1/x)/(1-x)^2 type cutoff potential.
  Species H : No 'logarithmic' tag. Using default grid for free atom:
  | Default logarithmic grid data [bohr] : 0.1000E-03 0.1000E+03 0.1012E+01
  Species H : On-site basis accuracy parameter (for Gram-Schmidt orthonormalisation) not specified.
  Using default value basis_acc =  0.1000000E-03.
  Species H                   : Using default innermost maximum threshold i_radial=  2 for radial functions.
  Species H                   : Default cutoff onset for free atom density etc. : 0.35000000E+01 AA.
  Species H                   : Basic radial grid will be enhanced according to radial_multiplier =   1, to contain    24 grid points.
 
  Reading configuration options for species C                   .
  | Found nuclear charge :   6.0000
  | Found atomic mass :    12.0107000000000      amu
  | Found l_max for Hartree potential  :   4
  | Found cutoff potl. onset [A], width [A], scale factor :    3.50000    1.50000    1.00000
  | Threshold for basis-dependent cutoff potential is   0.100000E-03
  | Found data for basic radial integration grid :    34 points, outermost radius =    5.000 A
  | Found multiplier for basic radial grid :   1
  | Found angular grid specification: user-specified.
  | Specified grid contains     5 separate shells.
  | Check grid settings after all constraints further below.
  | Found free-atom valence shell :  2 s   2.000
  | Found free-atom valence shell :  2 p   2.000
  | No ionic wave fns used. Skipping ion_occ.
  | No ionic wave fns used. Skipping ion_occ.
  | Found hydrogenic basis function :  2 p   1.700
  | Found hydrogenic basis function :  3 d   6.000
  | Found hydrogenic basis function :  2 s   4.900
  Species C                   : Missing cutoff potential type.
  Defaulting to exp(1/x)/(1-x)^2 type cutoff potential.
  Species C : No 'logarithmic' tag. Using default grid for free atom:
  | Default logarithmic grid data [bohr] : 0.1000E-03 0.1000E+03 0.1012E+01
  Species C : On-site basis accuracy parameter (for Gram-Schmidt orthonormalisation) not specified.
  Using default value basis_acc =  0.1000000E-03.
  Species C                   : Using default innermost maximum threshold i_radial=  2 for radial functions.
  Species C                   : Default cutoff onset for free atom density etc. : 0.35000000E+01 AA.
  Species C                   : Basic radial grid will be enhanced according to radial_multiplier =   1, to contain    34 grid points.
 
  Reading configuration options for species N                   .
  | Found nuclear charge :   7.0000
  | Found atomic mass :    14.0067000000000      amu
  | Found l_max for Hartree potential  :   4
  | Found cutoff potl. onset [A], width [A], scale factor :    3.50000    1.50000    1.00000
  | Threshold for basis-dependent cutoff potential is   0.100000E-03
  | Found data for basic radial integration grid :    35 points, outermost radius =    5.000 A
  | Found multiplier for basic radial grid :   1
  | Found angular grid specification: user-specified.
  | Specified grid contains     5 separate shells.
  | Check grid settings after all constraints further below.
  | Found free-atom valence shell :  2 s   2.000
  | Found free-atom valence shell :  2 p   3.000
  | No ionic wave fns used. Skipping ion_occ.
  | No ionic wave fns used. Skipping ion_occ.
  | Found hydrogenic basis function :  2 p   1.800
  | Found hydrogenic basis function :  3 d   6.800
  | Found hydrogenic basis function :  3 s   5.800
  Species N                   : Missing cutoff potential type.
  Defaulting to exp(1/x)/(1-x)^2 type cutoff potential.
  Species N : No 'logarithmic' tag. Using default grid for free atom:
  | Default logarithmic grid data [bohr] : 0.1000E-03 0.1000E+03 0.1012E+01
  Species N : On-site basis accuracy parameter (for Gram-Schmidt orthonormalisation) not specified.
  Using default value basis_acc =  0.1000000E-03.
  Species N                   : Using default innermost maximum threshold i_radial=  2 for radial functions.
  Species N                   : Default cutoff onset for free atom density etc. : 0.35000000E+01 AA.
  Species N                   : Basic radial grid will be enhanced according to radial_multiplier =   1, to contain    35 grid points.
 
  Reading configuration options for species O                   .
  | Found nuclear charge :   8.0000
  | Found atomic mass :    15.9994000000000      amu
  | Found l_max for Hartree potential  :   4
  | Found cutoff potl. onset [A], width [A], scale factor :    3.50000    1.50000    1.00000
  | Threshold for basis-dependent cutoff potential is   0.100000E-03
  | Found data for basic radial integration grid :    36 points, outermost radius =    5.000 A
  | Found multiplier for basic radial grid :   1
  | Found angular grid specification: user-specified.
  | Specified grid contains     5 separate shells.
  | Check grid settings after all constraints further below.
  | Found free-atom valence shell :  2 s   2.000
  | Found free-atom valence shell :  2 p   4.000
  | No ionic wave fns used. Skipping ion_occ.
  | No ionic wave fns used. Skipping ion_occ.
  | Found hydrogenic basis function :  2 p   1.800
  | Found hydrogenic basis function :  3 d   7.600
  | Found hydrogenic basis function :  3 s   6.400
  Species O                   : Missing cutoff potential type.
  Defaulting to exp(1/x)/(1-x)^2 type cutoff potential.
  Species O : No 'logarithmic' tag. Using default grid for free atom:
  | Default logarithmic grid data [bohr] : 0.1000E-03 0.1000E+03 0.1012E+01
  Species O : On-site basis accuracy parameter (for Gram-Schmidt orthonormalisation) not specified.
  Using default value basis_acc =  0.1000000E-03.
  Species O                   : Using default innermost maximum threshold i_radial=  2 for radial functions.
  Species O                   : Default cutoff onset for free atom density etc. : 0.35000000E+01 AA.
  Species O                   : Basic radial grid will be enhanced according to radial_multiplier =   1, to contain    36 grid points.
 
  Finished reading input file 'control.in'. Consistency checks are next.
 
  MPI_IN_PLACE appears to work with this MPI implementation.
  | Keeping use_mpi_in_place .true. (see manual).
  Target number of points in a grid batch is not set. Defaulting to  100
  Method for grid partitioning is not set. Defaulting to parallel hash+maxmin partitioning.
  Batch size limit is not set. Defaulting to    200
  By default, will store active basis functions for each batch.
  If in need of memory, prune_basis_once .false. can be used to disable this option.
  communication_type for Hartree potential was not specified.
  Defaulting to calc_hartree .
  Pulay mixer: Number of initial linear mixing iterations not set.
  Defaulting to    0 iterations.
  Work space size for distributed Hartree potential not set.
  Defaulting to   0.200000E+03 MB.
  Algorithm-dependent basis array size parameters:
  | n_max_pulay                         :       10
  Presetting      1001 iterations before the initial mixing cycle
  is restarted anyway using the sc_init_iter criterion / keyword.
  Presetting a factor      1.000 between actual scf density residual
  and density convergence criterion sc_accuracy_rho below which sc_init_iter
  takes no effect.
  Geometry relaxation not requested: no relaxation will be performed.
  Handling of forces: Unphysical translation and rotation will be removed from forces.
  No accuracy limit for integral partition fn. given. Defaulting to  0.1000E-14.
  No threshold value for u(r) in integrations given. Defaulting to  0.1000E-05.
  No accuracy for occupation numbers given. Defaulting to  0.1000E-12.
  No threshold value for occupation numbers given. Defaulting to  0.0000E+00.
  No accuracy for fermi level given. Defaulting to  0.1000E-19.
  Maximum # of iterations to find E_F not set. Defaulting to  200.
  Preferred method for the eigenvalue solver ('KS_method') not specified in 'control.in'.
  Defaulting to serial version, 'lapack_fast'.
  Will not use alltoall communication since running on < 1024 CPUs.
  Threshold for basis singularities not set.
  Default threshold for basis singularities:  0.1000E-04
  partition_type (choice of integration weights) for integrals was not specified.
  | Using a version of the partition function of Stratmann and coworkers ('stratmann_smoother').
  | At each grid point, the set of atoms used to build the partition table is smoothly restricted to
  | only those atoms whose free-atom density would be non-zero at that grid point.
  Partitioning for Hartree potential was not defined. Using partition_type for integrals.
  | Adjusted default value of keyword multip_moments_threshold to:       0.10000000E-11
  | This value may affect high angular momentum components of the Hartree potential in periodic systems.
  No q(lm)/r^(l+1) cutoff set for long-range Hartree potential.
  | Using default value of  0.100000E-09 .
  | Verify using the multipole_threshold keyword.
  Defaulting to new monopole extrapolation.
  Density update method: automatic selection selected.
------------------------------------------------------------


------------------------------------------------------------
          Reading geometry description geometry.in.
------------------------------------------------------------
  Input structure read successfully.
  The structure contains       13 atoms,  and a total of         48.000 electrons.

  Input geometry:
  | No unit cell requested.
  | Atomic structure:
  |       Atom                x [A]            y [A]            z [A]
  |    1: Species C             0.00000000        0.00000000        0.00000000
  |    2: Species H             1.09300000        0.00000000        0.00000000
  |    3: Species N            -0.47961000        0.00000000       -1.41207000
  |    4: Species H            -0.40611000       -0.94828000       -1.78247000
  |    5: Species H            -1.44910000        0.30978000       -1.42798000
  |    6: Species C            -0.49584000        1.26211000        0.72868000
  |    7: Species H            -1.58789000        1.28919000        0.74431000
  |    8: Species H            -0.13407000        1.27425000        1.75947000
  |    9: Species H            -0.13407000        2.16087000        0.22380000
  |   10: Species C            -0.39425000       -1.28861000        0.74398000
  |   11: Species O            -0.10189000       -1.56493000        1.88303000
  |   12: Species O            -1.10210000       -2.13717000        0.06896000
  |   13: Species H            -1.78928000       -2.30982000        0.73451000
  |

  | The smallest distance between any two atoms is         0.97210142 AA.
  |
  | The first atom of this pair is atom number                     12 .
  | The second atom of this pair is atom number                    13 .

  Number of empty states per atom not set in control.in - providing a guess from actual geometry.
  | Total number of empty states used during s.c.f. cycle:       29
  If you use a very high smearing, use empty_states (per atom!) in control.in to increase this value.

  Structure-dependent array size parameters: 
  | Maximum number of distinct radial functions  :       21
  | Maximum number of basis functions            :      119
  | Number of Kohn-Sham states (occupied + empty):       53
------------------------------------------------------------

------------------------------------------------------------
          Preparing all fixed parts of the calculation.
------------------------------------------------------------
  Determining machine precision:
    2.225073858507201E-308
  Setting up grids for atomic and cluster calculations.

  Creating wave function, potential, and density for free atoms.

  Species: H

  List of occupied orbitals and eigenvalues:
    n    l              occ      energy [Ha]    energy [eV]
    1    0           1.0000        -0.237589        -6.4651


  Species: C

  List of occupied orbitals and eigenvalues:
    n    l              occ      energy [Ha]    energy [eV]
    1    0           2.0000       -10.038835      -273.1706
    2    0           2.0000        -0.502696       -13.6791
    2    1           2.0000        -0.191971        -5.2238


  Species: N

  List of occupied orbitals and eigenvalues:
    n    l              occ      energy [Ha]    energy [eV]
    1    0           2.0000       -14.128000      -384.4424
    2    0           2.0000        -0.681077       -18.5330
    2    1           3.0000        -0.259788        -7.0692


  Species: O

  List of occupied orbitals and eigenvalues:
    n    l              occ      energy [Ha]    energy [eV]
    1    0           2.0000       -18.898188      -514.2459
    2    0           2.0000        -0.878505       -23.9053
    2    1           4.0000        -0.331779        -9.0282

  Creating fixed part of basis set: Ionic, confined, hydrogenic.
 
  H                    hydrogenic:
 
  List of hydrogenic basis orbitals: 
    n    l      effective z      eigenvalue [eV]  inner max. [A]     outer max. [A]     outer radius [A]   
    2    0         2.100000       -14.9728           0.193243           1.317208           4.583499
    2    1         3.500000       -41.6669           0.602369           0.602369           3.723403
 
 
  C                    hydrogenic:
 
  List of hydrogenic basis orbitals: 
    n    l      effective z      eigenvalue [eV]  inner max. [A]     outer max. [A]     outer radius [A]   
    2    1         1.700000        -9.7616           1.230570           1.230570           4.607917
    3    2         6.000000       -54.4224           0.792453           0.792453           3.883070
    2    0         4.900000       -81.6679           0.082559           0.562749           3.078220
 
 
  N                    hydrogenic:
 
  List of hydrogenic basis orbitals: 
    n    l      effective z      eigenvalue [eV]  inner max. [A]     outer max. [A]     outer radius [A]   
    2    1         1.800000       -10.9749           1.177451           1.177451           4.573712
    3    2         6.800000       -69.9026           0.704619           0.704619           3.538137
    3    0         5.800000       -50.8545           0.067388           1.191934           4.250239
 
 
  O                    hydrogenic:
 
  List of hydrogenic basis orbitals: 
    n    l      effective z      eigenvalue [eV]  inner max. [A]     outer max. [A]     outer radius [A]   
    2    1         1.800000       -10.9749           1.164242           1.164242           4.578029
    3    2         7.600000       -87.3180           0.624125           0.624125           3.251020
    3    0         6.400000       -61.9207           0.061167           1.081902           4.001998
 

  Adding cutoff potential to free-atom effective potential.
  Creating atomic-like basis functions for current effective potential.

  Species H                   :

  List of atomic basis orbitals and eigenvalues:
    n    l      energy [Ha]    energy [eV]    outer radius [A]
    1    0        -0.237589        -6.4651       4.527807


  Species C                   :

  List of atomic basis orbitals and eigenvalues:
    n    l      energy [Ha]    energy [eV]    outer radius [A]
    1    0       -10.038835      -273.1706       1.934409
    2    0        -0.502696       -13.6791       4.496620
    2    1        -0.191971        -5.2238       4.551928


  Species N                   :

  List of atomic basis orbitals and eigenvalues:
    n    l      energy [Ha]    energy [eV]    outer radius [A]
    1    0       -14.128000      -384.4424       1.637919
    2    0        -0.681077       -18.5330       4.463241
    2    1        -0.259788        -7.0692       4.518138


  Species O                   :

  List of atomic basis orbitals and eigenvalues:
    n    l      energy [Ha]    energy [eV]    outer radius [A]
    1    0       -18.898188      -514.2459       1.415765
    2    0        -0.878505       -23.9053       4.413171
    2    1        -0.331779        -9.0282       4.522403

  Assembling full basis from fixed parts.
  | Species H :   atomic orbital   1 s accepted.
  | Species H :    hydro orbital   2 s accepted.
  | Species H :    hydro orbital   2 p accepted.
  | Species C :   atomic orbital   1 s accepted.
  | Species C :    hydro orbital   2 s accepted.
  | Species C :   atomic orbital   2 s accepted.
  | Species C :   atomic orbital   2 p accepted.
  | Species C :    hydro orbital   2 p accepted.
  | Species C :    hydro orbital   3 d accepted.
  | Species N :   atomic orbital   1 s accepted.
  | Species N :    hydro orbital   3 s accepted.
  | Species N :   atomic orbital   2 s accepted.
  | Species N :   atomic orbital   2 p accepted.
  | Species N :    hydro orbital   2 p accepted.
  | Species N :    hydro orbital   3 d accepted.
  | Species O :   atomic orbital   1 s accepted.
  | Species O :    hydro orbital   3 s accepted.
  | Species O :   atomic orbital   2 s accepted.
  | Species O :   atomic orbital   2 p accepted.
  | Species O :    hydro orbital   2 p accepted.
  | Species O :    hydro orbital   3 d accepted.
 
  Basis size parameters after reduction:
  | Total number of radial functions:       21
  | Total number of basis functions :      119
 
  Per-task memory consumption for arrays in subroutine allocate_ext:
  |           5.250512MB.
  Testing on-site integration grid accuracy.
  |  Species  Function  <phi|h_atom|phi> (log., in eV)  <phi|h_atom|phi> (rad., in eV)
           1        1                 -6.4663192853                 -6.4651273558
           1        2                 13.7111246313                 13.7170609718
           1        3                 25.2673269279                 25.2674696378
           2        4               -273.1705927641               -273.1705631568
           2        5                -10.7109323383                -10.7107120029
           2        6                 17.4381822266                 17.4352413244
           2        7                 -5.2255326521                 -5.2270484734
           2        8                  8.6835629259                  8.6603288385
           2        9                 27.4952418996                 27.4953360207
           3       10               -384.4424306495               -384.4423701208
           3       11                 12.5842251816                 12.5842222903
           3       12                -15.7264628251                -15.7264433455
           3       13                 -7.0696854293                 -7.0701769954
           3       14                  8.8090390882                  8.7901077751
           3       15                 35.9586762123                 35.9588528632
           4       16               -514.2458688638               -514.2457643834
           4       17                 15.1795651126                 15.1795290741
           4       18                -21.5359799773                -21.5360846186
           4       19                 -9.0283069236                 -9.0284644067
           4       20                  8.3027758564                  8.2834874195
           4       21                 45.8339351984                 45.8338762259

  Preparing densities etc. for the partition functions (integrals / Hartree potential).

  Preparations completed.
  max(cpu_time)          :      0.144 s.
  Wall clock time (cpu1) :      0.146 s.
------------------------------------------------------------

------------------------------------------------------------
          Begin self-consistency loop: Initialization.

          Date     :  20200805, Time     :  184344.105
------------------------------------------------------------

  Initializing index lists of integration centers etc. from given atomic structure:
  | Number of centers in hartree potential         :        13
  | Number of centers in hartree multipole         :        13
  | Number of centers in electron density summation:        13
  | Number of centers in basis integrals           :        13
  | Number of centers in integrals                 :        13
  | Number of centers in hamiltonian               :        13
  Partitioning the integration grid into batches with parallel hashing+maxmin method.
  | Number of batches:      962
  | Maximal batch size:     139
  | Minimal batch size:      66
  | Average batch size:      72.397
  | Standard deviation of batch sizes:      16.729

  Integration load balanced across     1 MPI tasks.
  Work distribution over tasks is as follows:
  Task     0 has      69646 integration points.
  Initializing partition tables, free-atom densities, potentials, etc. across the integration grid (initialize_grid_storage).
  | initialize_grid_storage: Actual outermost partition radius vs. multipole_radius_free
  | (-- VB: in principle, multipole_radius_free should be larger, hence this output)
  | Species        1: Confinement radius =              4.999999999999999 AA, multipole_radius_free =              5.054417573612229 AA.
  | Species        1: outer_partition_radius set to              5.054417573612229 AA .
  | Species        2: Confinement radius =              4.999999999999999 AA, multipole_radius_free =              5.019602836301480 AA.
  | Species        2: outer_partition_radius set to              5.019602836301480 AA .
  | Species        3: Confinement radius =              4.999999999999999 AA, multipole_radius_free =              5.043624274424571 AA.
  | Species        3: outer_partition_radius set to              5.043624274424571 AA .
  | Species        4: Confinement radius =              4.999999999999999 AA, multipole_radius_free =              5.048384829883283 AA.
  | Species        4: outer_partition_radius set to              5.048384829883283 AA .
  | Original list of interatomic distances with          13 x         13 entries is created.
  | Net number of integration points:    69646
  | of which are non-zero points    :    59501
  Renormalizing the initial density to the exact electron count on the 3D integration grid.
  | Initial density: Formal number of electrons (from input files) :      48.0000000000
  | Integrated number of electrons on 3D grid     :      47.9999959952
  | Charge integration error                      :      -0.0000040048
  | Normalization factor for density and gradient :       1.0000000834
  Obtaining max. number of non-zero basis functions in each batch (get_n_compute_maxes).
  | Maximal number of non-zero basis functions:      119 in task     0
  Selecting the method for density update.
  Loop over occupied states selected for charge density update.
  Allocating        0.050 MB for KS_eigenvector
  Integrating Hamiltonian matrix: batch-based integration.
  Time summed over all CPUs for integration: real work        0.500 s, elapsed        0.500 s
  Integrating overlap matrix.
  Time summed over all CPUs for integration: real work        0.211 s, elapsed        0.211 s

  Updating Kohn-Sham eigenvalues and eigenvectors using ELSI and the ELPA eigensolver.
  Overlap matrix is nonsingular
  | Lowest eigenvalue of overlap  :  0.54E-02
  | Highest eigenvalue of overlap :  0.62E+01
  Finished singularity check of overlap matrix
  | Time :     0.002 s
  Finished Cholesky decomposition
  | Time :     0.000 s
  Finished transformation to standard eigenproblem
  | Time :     0.000 s
  Starting LAPACK eigensolver
  Finished solving standard eigenproblem
  | Time :     0.002 s
  Finished back-transformation of eigenvectors
  | Time :     0.000 s

  Obtaining occupation numbers and chemical potential using ELSI.
  | Chemical potential (Fermi level):    -8.45987263eV
  Writing Kohn-Sham eigenvalues.

  State    Occupation    Eigenvalue [Ha]    Eigenvalue [eV]
      1       2.00000         -19.007973         -517.23327
      2       2.00000         -18.977800         -516.41222
      3       2.00000         -14.245788         -387.64763
      4       2.00000         -10.166753         -276.65142
      5       2.00000         -10.141248         -275.95740
      6       2.00000         -10.132093         -275.70828
      7       2.00000          -1.186592          -32.28882
      8       2.00000          -1.094570          -29.78478
      9       2.00000          -0.991509          -26.98034
     10       2.00000          -0.860347          -23.41122
     11       2.00000          -0.759340          -20.66270
     12       2.00000          -0.680539          -18.51840
     13       2.00000          -0.619913          -16.86868
     14       2.00000          -0.613420          -16.69201
     15       2.00000          -0.589968          -16.05385
     16       2.00000          -0.571216          -15.54357
     17       2.00000          -0.550040          -14.96734
     18       2.00000          -0.522556          -14.21946
     19       2.00000          -0.514219          -13.99260
     20       2.00000          -0.502348          -13.66958
     21       2.00000          -0.465209          -12.65899
     22       2.00000          -0.430364          -11.71080
     23       2.00000          -0.419615          -11.41832
     24       2.00000          -0.376858          -10.25483
     25       0.00000          -0.158280           -4.30702
     26       0.00000          -0.060828           -1.65521
     27       0.00000          -0.028720           -0.78151
     28       0.00000          -0.015379           -0.41849
     29       0.00000          -0.003709           -0.10091
     30       0.00000           0.008400            0.22857
     31       0.00000           0.016515            0.44941
     32       0.00000           0.029733            0.80908
     33       0.00000           0.043269            1.17741
     34       0.00000           0.061782            1.68117
     35       0.00000           0.093828            2.55318
     36       0.00000           0.134810            3.66837
     37       0.00000           0.158202            4.30489
     38       0.00000           0.200221            5.44830
     39       0.00000           0.207277            5.64029
     40       0.00000           0.239055            6.50501
     41       0.00000           0.254280            6.91930
     42       0.00000           0.274198            7.46130
     43       0.00000           0.280575            7.63484
     44       0.00000           0.303632            8.26226
     45       0.00000           0.332186            9.03923
     46       0.00000           0.353064            9.60737
     47       0.00000           0.370383           10.07863
     48       0.00000           0.390764           10.63324
     49       0.00000           0.444142           12.08571
     50       0.00000           0.470679           12.80784
     51       0.00000           0.495033           13.47054
     52       0.00000           0.531961           14.47538
     53       0.00000           0.608634           16.56177

  Highest occupied state (VBM) at    -10.25482706 eV
  | Occupation number:      2.00000000

  Lowest unoccupied state (CBM) at    -4.30701596 eV
  | Occupation number:      0.00000000

  Overall HOMO-LUMO gap:      5.94781110 eV.
  Calculating total energy contributions from superposition of free atom densities.

  Total energy components:
  | Sum of eigenvalues            :        -188.84055733 Ha       -5138.61301479 eV
  | XC energy correction          :         -41.78794299 Ha       -1137.10778427 eV
  | XC potential correction       :          53.71899091 Ha        1461.76811666 eV
  | Free-atom electrostatic energy:        -146.85452467 Ha       -3996.11493648 eV
  | Hartree energy correction     :           0.00000000 Ha           0.00000000 eV
  | vdW energy correction         :           0.00000000 Ha           0.00000000 eV
  | Entropy correction            :           0.00000000 Ha           0.00000000 eV
  | ---------------------------
  | Total energy                  :        -323.76403409 Ha       -8810.06761889 eV
  | Total energy, T -> 0          :        -323.76403409 Ha       -8810.06761889 eV  <-- do not rely on this value for anything but (periodic) metals
  | Electronic free energy        :        -323.76403409 Ha       -8810.06761889 eV

  Derived energy quantities:
  | Kinetic energy                :         320.49115572 Ha        8721.00806725 eV
  | Electrostatic energy          :        -602.46724682 Ha      -16393.96790187 eV
  | Energy correction for multipole
  | error in Hartree potential    :           0.00000000 Ha           0.00000000 eV
  | Sum of eigenvalues per atom                           :        -395.27792421 eV
  | Total energy (T->0) per atom                          :        -677.69750915 eV  <-- do not rely on this value for anything but (periodic) metals
  | Electronic free energy per atom                       :        -677.69750915 eV
  Initialize hartree_potential_storage
  Max. number of atoms included in rho_multipole:           13

  End scf initialization - timings             :  max(cpu_time)    wall_clock(cpu1)
  | Time for scf. initialization               :        1.152 s           1.154 s
  | Boundary condition initialization          :        0.000 s           0.000 s
  | Integration                                :        0.711 s           0.711 s
  | Solution of K.-S. eqns.                    :        0.004 s           0.004 s
  | Grid partitioning                          :        0.110 s           0.111 s
  | Preloading free-atom quantities on grid    :        0.002 s           0.002 s
  | Free-atom superposition energy             :        0.084 s           0.085 s
  | Total energy evaluation                    :        0.000 s           0.000 s

  Partial memory accounting:
  | Current value for overall tracked memory usage on task 0  :           0.165 MB
  | Peak value for overall tracked memory usage on task 0     :           0.678 MB after allocating wave
  | Largest tracked array allocation on task 0 so far         :           0.132 MB  when allocating H_times_psi
  Note:  These values currently only include a subset of arrays which are explicitly tracked.
  The "true" memory usage will be greater.
------------------------------------------------------------

------------------------------------------------------------
          Begin self-consistency iteration #    1

  Date     :  20200805, Time     :  184345.259
------------------------------------------------------------
  Evaluating new KS density.
  Integration grid: deviation in total charge (<rho> - N_e) =  -2.131628E-14
  Pulay mixing of updated and previous charge densities.

  Evaluating partitioned Hartree potential by multipole expansion.
  | Analytical far-field extrapolation by fixed multipoles:
  | Hartree multipole sum: apparent total charge =  -0.115553E-03
  Summing up the Hartree potential.
  Time summed over all CPUs for potential: real work        0.284 s, elapsed        0.284 s
  | RMS charge density error from multipole expansion :   0.588650E-02

  Integrating Hamiltonian matrix: batch-based integration.
  Time summed over all CPUs for integration: real work        0.494 s, elapsed        0.494 s

  Updating Kohn-Sham eigenvalues and eigenvectors using ELSI and the ELPA eigensolver.
  Finished Cholesky decomposition
  | Time :     0.000 s
  Finished transformation to standard eigenproblem
  | Time :     0.000 s
  Starting LAPACK eigensolver
  Finished solving standard eigenproblem
  | Time :     0.002 s
  Finished back-transformation of eigenvectors
  | Time :     0.000 s

  Obtaining occupation numbers and chemical potential using ELSI.
  | Chemical potential (Fermi level):    -7.28913641eV
  Writing Kohn-Sham eigenvalues.

  State    Occupation    Eigenvalue [Ha]    Eigenvalue [eV]
      1       2.00000         -18.904212         -514.40977
      2       2.00000         -18.839606         -512.65176
      3       2.00000         -14.094290         -383.52515
      4       2.00000         -10.117134         -275.30123
      5       2.00000         -10.061738         -273.79382
      6       2.00000         -10.032920         -273.00966
      7       2.00000          -1.138783          -30.98786
      8       2.00000          -1.033278          -28.11693
      9       2.00000          -0.920646          -25.05205
     10       2.00000          -0.794066          -21.60764
     11       2.00000          -0.709320          -19.30159
     12       2.00000          -0.634262          -17.25914
     13       2.00000          -0.561401          -15.27649
     14       2.00000          -0.558466          -15.19663
     15       2.00000          -0.530423          -14.43356
     16       2.00000          -0.513368          -13.96944
     17       2.00000          -0.490509          -13.34744
     18       2.00000          -0.464179          -12.63095
     19       2.00000          -0.449129          -12.22142
     20       2.00000          -0.443658          -12.07255
     21       2.00000          -0.409385          -11.13994
     22       2.00000          -0.371055          -10.09691
     23       2.00000          -0.349108           -9.49970
     24       2.00000          -0.304090           -8.27470
     25       0.00000          -0.123806           -3.36893
     26       0.00000          -0.038242           -1.04062
     27       0.00000           0.003714            0.10107
     28       0.00000           0.016132            0.43896
     29       0.00000           0.026288            0.71534
     30       0.00000           0.047905            1.30357
     31       0.00000           0.058248            1.58500
     32       0.00000           0.068259            1.85742
     33       0.00000           0.079746            2.16999
     34       0.00000           0.104141            2.83382
     35       0.00000           0.137105            3.73081
     36       0.00000           0.162369            4.41829
     37       0.00000           0.182309            4.96089
     38       0.00000           0.228976            6.23076
     39       0.00000           0.233780            6.36147
     40       0.00000           0.275984            7.50990
     41       0.00000           0.290943            7.91696
     42       0.00000           0.309584            8.42422
     43       0.00000           0.315770            8.59253
     44       0.00000           0.340852            9.27506
     45       0.00000           0.373819           10.17214
     46       0.00000           0.389467           10.59795
     47       0.00000           0.407743           11.09526
     48       0.00000           0.425190           11.57001
     49       0.00000           0.484482           13.18341
     50       0.00000           0.509707           13.86982
     51       0.00000           0.523311           14.24002
     52       0.00000           0.563719           15.33957
     53       0.00000           0.648671           17.65122

  Highest occupied state (VBM) at     -8.27470153 eV
  | Occupation number:      2.00000000

  Lowest unoccupied state (CBM) at    -3.36893046 eV
  | Occupation number:      0.00000000

  Overall HOMO-LUMO gap:      4.90577108 eV.

  Total energy components:
  | Sum of eigenvalues            :        -185.45005308 Ha       -5046.35270003 eV
  | XC energy correction          :         -42.11759907 Ha       -1146.07818264 eV
  | XC potential correction       :          54.14776056 Ha        1473.43553250 eV
  | Free-atom electrostatic energy:        -146.85452467 Ha       -3996.11493648 eV
  | Hartree energy correction     :          -3.30789755 Ha         -90.01247220 eV
  | vdW energy correction         :           0.00000000 Ha           0.00000000 eV
  | Entropy correction            :           0.00000000 Ha           0.00000000 eV
  | ---------------------------
  | Total energy                  :        -323.58231382 Ha       -8805.12275886 eV
  | Total energy, T -> 0          :        -323.58231382 Ha       -8805.12275886 eV  <-- do not rely on this value for anything but (periodic) metals
  | Electronic free energy        :        -323.58231382 Ha       -8805.12275886 eV

  Derived energy quantities:
  | Kinetic energy                :         322.28746575 Ha        8769.88815005 eV
  | Electrostatic energy          :        -603.75218050 Ha      -16428.93272627 eV
  | Energy correction for multipole
  | error in Hartree potential    :           0.01200409 Ha           0.32664803 eV
  | Sum of eigenvalues per atom                           :        -388.18097693 eV
  | Total energy (T->0) per atom                          :        -677.31713530 eV  <-- do not rely on this value for anything but (periodic) metals
  | Electronic free energy per atom                       :        -677.31713530 eV

  Self-consistency convergence accuracy:
  | Change of charge density      :  0.5852E+00
  | Change of sum of eigenvalues  :  0.9226E+02 eV
  | Change of total energy        :  0.4945E+01 eV

  End self-consistency iteration #     1       :  max(cpu_time)    wall_clock(cpu1)
  | Time for this iteration                    :        1.188 s           1.190 s
  | Charge density update                      :        0.394 s           0.394 s
  | Density mixing                             :        0.005 s           0.006 s
  | Hartree multipole update                   :        0.009 s           0.009 s
  | Hartree multipole summation                :        0.285 s           0.285 s
  | Integration                                :        0.493 s           0.494 s
  | Solution of K.-S. eqns.                    :        0.002 s           0.002 s
  | Total energy evaluation                    :        0.000 s           0.000 s

  Partial memory accounting:
  | Current value for overall tracked memory usage on task 0  :           0.165 MB
  | Peak value for overall tracked memory usage on task 0     :           0.695 MB after allocating gradient_basis_wave
  | Largest tracked array allocation on task 0 so far         :           0.397 MB  when allocating gradient_basis_wave
  Note:  These values currently only include a subset of arrays which are explicitly tracked.
  The "true" memory usage will be greater.
------------------------------------------------------------

------------------------------------------------------------
          Begin self-consistency iteration #    2

  Date     :  20200805, Time     :  184346.450
------------------------------------------------------------
  Evaluating new KS density.
  Integration grid: deviation in total charge (<rho> - N_e) =   6.394885E-14
  Pulay mixing of updated and previous charge densities.

  Evaluating partitioned Hartree potential by multipole expansion.
  | Analytical far-field extrapolation by fixed multipoles:
  | Hartree multipole sum: apparent total charge =  -0.258302E-03
  Summing up the Hartree potential.
  Time summed over all CPUs for potential: real work        0.284 s, elapsed        0.284 s
  | RMS charge density error from multipole expansion :   0.140318E-01

  Integrating Hamiltonian matrix: batch-based integration.
  Time summed over all CPUs for integration: real work        0.493 s, elapsed        0.493 s

  Updating Kohn-Sham eigenvalues and eigenvectors using ELSI and the ELPA eigensolver.
  Finished Cholesky decomposition
  | Time :     0.000 s
  Finished transformation to standard eigenproblem
  | Time :     0.000 s
  Starting LAPACK eigensolver
  Finished solving standard eigenproblem
  | Time :     0.001 s
  Finished back-transformation of eigenvectors
  | Time :     0.000 s

  Obtaining occupation numbers and chemical potential using ELSI.
  | Chemical potential (Fermi level):    -5.91563453eV
  Highest occupied state (VBM) at     -6.26090023 eV
  | Occupation number:      2.00000000

  Lowest unoccupied state (CBM) at    -2.14925162 eV
  | Occupation number:      0.00000000

  Overall HOMO-LUMO gap:      4.11164861 eV.

  Checking to see if s.c.f. parameters should be adjusted.

  Total energy components:
  | Sum of eigenvalues            :        -181.85477907 Ha       -4948.52031649 eV
  | XC energy correction          :         -42.48070293 Ha       -1155.95874120 eV
  | XC potential correction       :          54.61851742 Ha        1486.24547822 eV
  | Free-atom electrostatic energy:        -146.85452467 Ha       -3996.11493648 eV
  | Hartree energy correction     :          -6.93230284 Ha        -188.63755796 eV
  | vdW energy correction         :           0.00000000 Ha           0.00000000 eV
  | Entropy correction            :           0.00000000 Ha           0.00000000 eV
  | ---------------------------
  | Total energy                  :        -323.50379210 Ha       -8802.98607391 eV
  | Total energy, T -> 0          :        -323.50379210 Ha       -8802.98607391 eV  <-- do not rely on this value for anything but (periodic) metals
  | Electronic free energy        :        -323.50379210 Ha       -8802.98607391 eV

  Derived energy quantities:
  | Kinetic energy                :         323.62194068 Ha        8806.20106052 eV
  | Electrostatic energy          :        -604.64502985 Ha      -16453.22839323 eV
  | Energy correction for multipole
  | error in Hartree potential    :           0.02660345 Ha           0.72391676 eV
  | Sum of eigenvalues per atom                           :        -380.65540896 eV
  | Total energy (T->0) per atom                          :        -677.15277492 eV  <-- do not rely on this value for anything but (periodic) metals
  | Electronic free energy per atom                       :        -677.15277492 eV

  Self-consistency convergence accuracy:
  | Change of charge density      :  0.3657E+00
  | Change of sum of eigenvalues  :  0.9783E+02 eV
  | Change of total energy        :  0.2137E+01 eV

  End self-consistency iteration #     2       :  max(cpu_time)    wall_clock(cpu1)
  | Time for this iteration                    :        1.179 s           1.180 s
  | Charge density update                      :        0.384 s           0.385 s
  | Density mixing                             :        0.007 s           0.006 s
  | Hartree multipole update                   :        0.009 s           0.009 s
  | Hartree multipole summation                :        0.284 s           0.285 s
  | Integration                                :        0.493 s           0.493 s
  | Solution of K.-S. eqns.                    :        0.002 s           0.002 s
  | Total energy evaluation                    :        0.000 s           0.000 s

  Partial memory accounting:
  | Current value for overall tracked memory usage on task 0  :           0.166 MB
  | Peak value for overall tracked memory usage on task 0     :           0.695 MB after allocating gradient_basis_wave
  | Largest tracked array allocation on task 0 so far         :           0.397 MB  when allocating gradient_basis_wave
  Note:  These values currently only include a subset of arrays which are explicitly tracked.
  The "true" memory usage will be greater.
------------------------------------------------------------

------------------------------------------------------------
          Begin self-consistency iteration #    3

  Date     :  20200805, Time     :  184347.631
------------------------------------------------------------
  Evaluating new KS density.
  Integration grid: deviation in total charge (<rho> - N_e) =   4.973799E-14
  Pulay mixing of updated and previous charge densities.

  Evaluating partitioned Hartree potential by multipole expansion.
  | Analytical far-field extrapolation by fixed multipoles:
  | Hartree multipole sum: apparent total charge =  -0.358157E-03
  Summing up the Hartree potential.
  Time summed over all CPUs for potential: real work        0.290 s, elapsed        0.290 s
  | RMS charge density error from multipole expansion :   0.221668E-01

  Integrating Hamiltonian matrix: batch-based integration.
  Time summed over all CPUs for integration: real work        0.493 s, elapsed        0.493 s

  Updating Kohn-Sham eigenvalues and eigenvectors using ELSI and the ELPA eigensolver.
  Finished Cholesky decomposition
  | Time :     0.000 s
  Finished transformation to standard eigenproblem
  | Time :     0.000 s
  Starting LAPACK eigensolver
  Finished solving standard eigenproblem
  | Time :     0.001 s
  Finished back-transformation of eigenvectors
  | Time :     0.000 s

  Obtaining occupation numbers and chemical potential using ELSI.
  | Chemical potential (Fermi level):    -5.20662210eV
  Highest occupied state (VBM) at     -5.58189950 eV
  | Occupation number:      2.00000000

  Lowest unoccupied state (CBM) at    -1.44438946 eV
  | Occupation number:      0.00000000

  Overall HOMO-LUMO gap:      4.13751004 eV.

  Total energy components:
  | Sum of eigenvalues            :        -180.54131474 Ha       -4912.77913365 eV
  | XC energy correction          :         -42.63222317 Ha       -1160.08181675 eV
  | XC potential correction       :          54.81180607 Ha        1491.50513016 eV
  | Free-atom electrostatic energy:        -146.85452467 Ha       -3996.11493648 eV
  | Hartree energy correction     :          -8.27502341 Ha        -225.17484375 eV
  | vdW energy correction         :           0.00000000 Ha           0.00000000 eV
  | Entropy correction            :           0.00000000 Ha           0.00000000 eV
  | ---------------------------
  | Total energy                  :        -323.49127993 Ha       -8802.64560048 eV
  | Total energy, T -> 0          :        -323.49127993 Ha       -8802.64560048 eV  <-- do not rely on this value for anything but (periodic) metals
  | Electronic free energy        :        -323.49127993 Ha       -8802.64560048 eV

  Derived energy quantities:
  | Kinetic energy                :         323.19566392 Ha        8794.60147956 eV
  | Electrostatic energy          :        -604.05472067 Ha      -16437.16526329 eV
  | Energy correction for multipole
  | error in Hartree potential    :           0.03780597 Ha           1.02875286 eV
  | Sum of eigenvalues per atom                           :        -377.90608720 eV
  | Total energy (T->0) per atom                          :        -677.12658465 eV  <-- do not rely on this value for anything but (periodic) metals
  | Electronic free energy per atom                       :        -677.12658465 eV

  Self-consistency convergence accuracy:
  | Change of charge density      :  0.2037E+00
  | Change of sum of eigenvalues  :  0.3574E+02 eV
  | Change of total energy        :  0.3405E+00 eV

  End self-consistency iteration #     3       :  max(cpu_time)    wall_clock(cpu1)
  | Time for this iteration                    :        1.180 s           1.189 s
  | Charge density update                      :        0.385 s           0.386 s
  | Density mixing                             :        0.008 s           0.008 s
  | Hartree multipole update                   :        0.009 s           0.009 s
  | Hartree multipole summation                :        0.284 s           0.290 s
  | Integration                                :        0.492 s           0.493 s
  | Solution of K.-S. eqns.                    :        0.002 s           0.002 s
  | Total energy evaluation                    :        0.000 s           0.000 s

  Partial memory accounting:
  | Current value for overall tracked memory usage on task 0  :           0.166 MB
  | Peak value for overall tracked memory usage on task 0     :           0.695 MB after allocating gradient_basis_wave
  | Largest tracked array allocation on task 0 so far         :           0.397 MB  when allocating gradient_basis_wave
  Note:  These values currently only include a subset of arrays which are explicitly tracked.
  The "true" memory usage will be greater.
------------------------------------------------------------

------------------------------------------------------------
          Begin self-consistency iteration #    4

  Date     :  20200805, Time     :  184348.821
------------------------------------------------------------
  Evaluating new KS density.
  Integration grid: deviation in total charge (<rho> - N_e) =   7.105427E-15
  Pulay mixing of updated and previous charge densities.

  Evaluating partitioned Hartree potential by multipole expansion.
  | Analytical far-field extrapolation by fixed multipoles:
  | Hartree multipole sum: apparent total charge =  -0.390243E-03
  Summing up the Hartree potential.
  Time summed over all CPUs for potential: real work        0.284 s, elapsed        0.284 s
  | RMS charge density error from multipole expansion :   0.255355E-01

  Integrating Hamiltonian matrix: batch-based integration.
  Time summed over all CPUs for integration: real work        0.493 s, elapsed        0.493 s

  Updating Kohn-Sham eigenvalues and eigenvectors using ELSI and the ELPA eigensolver.
  Finished Cholesky decomposition
  | Time :     0.000 s
  Finished transformation to standard eigenproblem
  | Time :     0.000 s
  Starting LAPACK eigensolver
  Finished solving standard eigenproblem
  | Time :     0.001 s
  Finished back-transformation of eigenvectors
  | Time :     0.000 s

  Obtaining occupation numbers and chemical potential using ELSI.
  | Chemical potential (Fermi level):    -5.11369428eV
  Highest occupied state (VBM) at     -5.39472385 eV
  | Occupation number:      2.00000000

  Lowest unoccupied state (CBM) at    -1.36899713 eV
  | Occupation number:      0.00000000

  Overall HOMO-LUMO gap:      4.02572672 eV.

  Total energy components:
  | Sum of eigenvalues            :        -180.40872867 Ha       -4909.17128305 eV
  | XC energy correction          :         -42.66827172 Ha       -1161.06274777 eV
  | XC potential correction       :          54.85716316 Ha        1492.73935925 eV
  | Free-atom electrostatic energy:        -146.85452467 Ha       -3996.11493648 eV
  | Hartree energy correction     :          -8.41602576 Ha        -229.01171282 eV
  | vdW energy correction         :           0.00000000 Ha           0.00000000 eV
  | Entropy correction            :           0.00000000 Ha           0.00000000 eV
  | ---------------------------
  | Total energy                  :        -323.49038767 Ha       -8802.62132088 eV
  | Total energy, T -> 0          :        -323.49038767 Ha       -8802.62132088 eV  <-- do not rely on this value for anything but (periodic) metals
  | Electronic free energy        :        -323.49038767 Ha       -8802.62132088 eV

  Derived energy quantities:
  | Kinetic energy                :         322.80988366 Ha        8784.10386457 eV
  | Electrostatic energy          :        -603.63199960 Ha      -16425.66243768 eV
  | Energy correction for multipole
  | error in Hartree potential    :           0.04196280 Ha           1.14186594 eV
  | Sum of eigenvalues per atom                           :        -377.62856023 eV
  | Total energy (T->0) per atom                          :        -677.12471699 eV  <-- do not rely on this value for anything but (periodic) metals
  | Electronic free energy per atom                       :        -677.12471699 eV

  Self-consistency convergence accuracy:
  | Change of charge density      :  0.6374E-01
  | Change of sum of eigenvalues  :  0.3608E+01 eV
  | Change of total energy        :  0.2428E-01 eV

  End self-consistency iteration #     4       :  max(cpu_time)    wall_clock(cpu1)
  | Time for this iteration                    :        1.182 s           1.183 s
  | Charge density update                      :        0.385 s           0.385 s
  | Density mixing                             :        0.009 s           0.009 s
  | Hartree multipole update                   :        0.009 s           0.009 s
  | Hartree multipole summation                :        0.284 s           0.285 s
  | Integration                                :        0.492 s           0.493 s
  | Solution of K.-S. eqns.                    :        0.002 s           0.002 s
  | Total energy evaluation                    :        0.000 s           0.000 s

  Partial memory accounting:
  | Current value for overall tracked memory usage on task 0  :           0.166 MB
  | Peak value for overall tracked memory usage on task 0     :           0.696 MB after allocating gradient_basis_wave
  | Largest tracked array allocation on task 0 so far         :           0.397 MB  when allocating gradient_basis_wave
  Note:  These values currently only include a subset of arrays which are explicitly tracked.
  The "true" memory usage will be greater.
------------------------------------------------------------

------------------------------------------------------------
          Begin self-consistency iteration #    5

  Date     :  20200805, Time     :  184350.005
------------------------------------------------------------
  Evaluating new KS density.
  Integration grid: deviation in total charge (<rho> - N_e) =  -3.552714E-14
  Pulay mixing of updated and previous charge densities.

  Evaluating partitioned Hartree potential by multipole expansion.
  | Analytical far-field extrapolation by fixed multipoles:
  | Hartree multipole sum: apparent total charge =  -0.383657E-03
  Summing up the Hartree potential.
  Time summed over all CPUs for potential: real work        0.284 s, elapsed        0.284 s
  | RMS charge density error from multipole expansion :   0.252809E-01

  Integrating Hamiltonian matrix: batch-based integration.
  Time summed over all CPUs for integration: real work        0.493 s, elapsed        0.493 s

  Updating Kohn-Sham eigenvalues and eigenvectors using ELSI and the ELPA eigensolver.
  Finished Cholesky decomposition
  | Time :     0.000 s
  Finished transformation to standard eigenproblem
  | Time :     0.000 s
  Starting LAPACK eigensolver
  Finished solving standard eigenproblem
  | Time :     0.001 s
  Finished back-transformation of eigenvectors
  | Time :     0.000 s

  Obtaining occupation numbers and chemical potential using ELSI.
  | Chemical potential (Fermi level):    -5.18777170eV
  Highest occupied state (VBM) at     -5.48938294 eV
  | Occupation number:      2.00000000

  Lowest unoccupied state (CBM) at    -1.45882267 eV
  | Occupation number:      0.00000000

  Overall HOMO-LUMO gap:      4.03056026 eV.

  Total energy components:
  | Sum of eigenvalues            :        -180.60823920 Ha       -4914.60024076 eV
  | XC energy correction          :         -42.64387716 Ha       -1160.39893797 eV
  | XC potential correction       :          54.82552315 Ha        1491.87839077 eV
  | Free-atom electrostatic energy:        -146.85452467 Ha       -3996.11493648 eV
  | Hartree energy correction     :          -8.20897771 Ha        -223.37764872 eV
  | vdW energy correction         :           0.00000000 Ha           0.00000000 eV
  | Entropy correction            :           0.00000000 Ha           0.00000000 eV
  | ---------------------------
  | Total energy                  :        -323.49009559 Ha       -8802.61337316 eV
  | Total energy, T -> 0          :        -323.49009559 Ha       -8802.61337316 eV  <-- do not rely on this value for anything but (periodic) metals
  | Electronic free energy        :        -323.49009559 Ha       -8802.61337316 eV

  Derived energy quantities:
  | Kinetic energy                :         322.69791911 Ha        8781.05715420 eV
  | Electrostatic energy          :        -603.54413754 Ha      -16423.27158940 eV
  | Energy correction for multipole
  | error in Hartree potential    :           0.04132815 Ha           1.12459615 eV
  | Sum of eigenvalues per atom                           :        -378.04617237 eV
  | Total energy (T->0) per atom                          :        -677.12410563 eV  <-- do not rely on this value for anything but (periodic) metals
  | Electronic free energy per atom                       :        -677.12410563 eV

  Self-consistency convergence accuracy:
  | Change of charge density      :  0.2021E-01
  | Change of sum of eigenvalues  : -0.5429E+01 eV
  | Change of total energy        :  0.7948E-02 eV

  End self-consistency iteration #     5       :  max(cpu_time)    wall_clock(cpu1)
  | Time for this iteration                    :        1.183 s           1.184 s
  | Charge density update                      :        0.384 s           0.384 s
  | Density mixing                             :        0.011 s           0.011 s
  | Hartree multipole update                   :        0.008 s           0.009 s
  | Hartree multipole summation                :        0.285 s           0.285 s
  | Integration                                :        0.493 s           0.493 s
  | Solution of K.-S. eqns.                    :        0.002 s           0.002 s
  | Total energy evaluation                    :        0.000 s           0.000 s

  Partial memory accounting:
  | Current value for overall tracked memory usage on task 0  :           0.166 MB
  | Peak value for overall tracked memory usage on task 0     :           0.696 MB after allocating gradient_basis_wave
  | Largest tracked array allocation on task 0 so far         :           0.397 MB  when allocating gradient_basis_wave
  Note:  These values currently only include a subset of arrays which are explicitly tracked.
  The "true" memory usage will be greater.
------------------------------------------------------------

------------------------------------------------------------
          Begin self-consistency iteration #    6

  Date     :  20200805, Time     :  184351.190
------------------------------------------------------------
  Evaluating new KS density.
  Integration grid: deviation in total charge (<rho> - N_e) =   6.394885E-14
  Pulay mixing of updated and previous charge densities.

  Evaluating partitioned Hartree potential by multipole expansion.
  | Analytical far-field extrapolation by fixed multipoles:
  | Hartree multipole sum: apparent total charge =  -0.387089E-03
  Summing up the Hartree potential.
  Time summed over all CPUs for potential: real work        0.284 s, elapsed        0.284 s
  | RMS charge density error from multipole expansion :   0.257046E-01

  Integrating Hamiltonian matrix: batch-based integration.
  Time summed over all CPUs for integration: real work        0.493 s, elapsed        0.493 s

  Updating Kohn-Sham eigenvalues and eigenvectors using ELSI and the ELPA eigensolver.
  Finished Cholesky decomposition
  | Time :     0.000 s
  Finished transformation to standard eigenproblem
  | Time :     0.000 s
  Starting LAPACK eigensolver
  Finished solving standard eigenproblem
  | Time :     0.001 s
  Finished back-transformation of eigenvectors
  | Time :     0.000 s

  Obtaining occupation numbers and chemical potential using ELSI.
  | Chemical potential (Fermi level):    -5.18727907eV
  Highest occupied state (VBM) at     -5.46047134 eV
  | Occupation number:      2.00000000

  Lowest unoccupied state (CBM) at    -1.47246876 eV
  | Occupation number:      0.00000000

  Overall HOMO-LUMO gap:      3.98800258 eV.

  Total energy components:
  | Sum of eigenvalues            :        -180.60802972 Ha       -4914.59454040 eV
  | XC energy correction          :         -42.64334525 Ha       -1160.38446384 eV
  | XC potential correction       :          54.82480731 Ha        1491.85891183 eV
  | Free-atom electrostatic energy:        -146.85452467 Ha       -3996.11493648 eV
  | Hartree energy correction     :          -8.20896283 Ha        -223.37724393 eV
  | vdW energy correction         :           0.00000000 Ha           0.00000000 eV
  | Entropy correction            :           0.00000000 Ha           0.00000000 eV
  | ---------------------------
  | Total energy                  :        -323.49005516 Ha       -8802.61227283 eV
  | Total energy, T -> 0          :        -323.49005516 Ha       -8802.61227283 eV  <-- do not rely on this value for anything but (periodic) metals
  | Electronic free energy        :        -323.49005516 Ha       -8802.61227283 eV

  Derived energy quantities:
  | Kinetic energy                :         322.62203070 Ha        8778.99212554 eV
  | Electrostatic energy          :        -603.46874061 Ha      -16421.21993453 eV
  | Energy correction for multipole
  | error in Hartree potential    :           0.04171751 Ha           1.13519131 eV
  | Sum of eigenvalues per atom                           :        -378.04573388 eV
  | Total energy (T->0) per atom                          :        -677.12402099 eV  <-- do not rely on this value for anything but (periodic) metals
  | Electronic free energy per atom                       :        -677.12402099 eV

  Self-consistency convergence accuracy:
  | Change of charge density      :  0.1031E-01
  | Change of sum of eigenvalues  :  0.5700E-02 eV
  | Change of total energy        :  0.1100E-02 eV

  End self-consistency iteration #     6       :  max(cpu_time)    wall_clock(cpu1)
  | Time for this iteration                    :        1.185 s           1.186 s
  | Charge density update                      :        0.385 s           0.385 s
  | Density mixing                             :        0.012 s           0.012 s
  | Hartree multipole update                   :        0.009 s           0.009 s
  | Hartree multipole summation                :        0.285 s           0.285 s
  | Integration                                :        0.492 s           0.493 s
  | Solution of K.-S. eqns.                    :        0.002 s           0.002 s
  | Total energy evaluation                    :        0.000 s           0.000 s

  Partial memory accounting:
  | Current value for overall tracked memory usage on task 0  :           0.166 MB
  | Peak value for overall tracked memory usage on task 0     :           0.696 MB after allocating gradient_basis_wave
  | Largest tracked array allocation on task 0 so far         :           0.397 MB  when allocating gradient_basis_wave
  Note:  These values currently only include a subset of arrays which are explicitly tracked.
  The "true" memory usage will be greater.
------------------------------------------------------------

------------------------------------------------------------
          Begin self-consistency iteration #    7

  Date     :  20200805, Time     :  184352.377
------------------------------------------------------------
  Evaluating new KS density.
  Integration grid: deviation in total charge (<rho> - N_e) =   4.263256E-14
  Pulay mixing of updated and previous charge densities.

  Evaluating partitioned Hartree potential by multipole expansion.
  | Analytical far-field extrapolation by fixed multipoles:
  | Hartree multipole sum: apparent total charge =  -0.388034E-03
  Summing up the Hartree potential.
  Time summed over all CPUs for potential: real work        0.284 s, elapsed        0.284 s
  | RMS charge density error from multipole expansion :   0.258369E-01

  Integrating Hamiltonian matrix: batch-based integration.
  Time summed over all CPUs for integration: real work        0.493 s, elapsed        0.493 s

  Updating Kohn-Sham eigenvalues and eigenvectors using ELSI and the ELPA eigensolver.
  Finished Cholesky decomposition
  | Time :     0.000 s
  Finished transformation to standard eigenproblem
  | Time :     0.000 s
  Starting LAPACK eigensolver
  Finished solving standard eigenproblem
  | Time :     0.002 s
  Finished back-transformation of eigenvectors
  | Time :     0.000 s

[...]
  |   Hirshfeld dipole moment :      0.06262271
  |   Hirshfeld second moments:      0.01788184      -0.02102844      -0.01469420
  |                                 -0.02102844      -0.02154724       0.00614751
  |                                 -0.01469420       0.00614751      -0.02322803
  ----------------------------------------------------------------------
  | Atom    12: O
  |   Hirshfeld charge        :     -0.15179596
  |   Free atom volume        :     23.61338643
  |   Hirshfeld volume        :     20.66830976
  |   Hirshfeld dipole vector :      0.00736655       0.01789699       0.03184066
  |   Hirshfeld dipole moment :      0.03726118
  |   Hirshfeld second moments:      0.09419758       0.01931600      -0.02831986
  |                                  0.01931600       0.05280363      -0.00551394
  |                                 -0.02831986      -0.00551394       0.04251021
  ----------------------------------------------------------------------
  | Atom    13: H
  |   Hirshfeld charge        :      0.18244987
  |   Free atom volume        :      9.95071624
  |   Hirshfeld volume        :      6.17220143
  |   Hirshfeld dipole vector :     -0.10415097      -0.02291209       0.06439486
  |   Hirshfeld dipole moment :      0.12457563
  |   Hirshfeld second moments:      0.12094546       0.00327480      -0.00904913
  |                                  0.00327480       0.12387435       0.00070582
  |                                 -0.00904913       0.00070582       0.09677495
  ----------------------------------------------------------------------


  Total energy components:
  | Sum of eigenvalues            :        -180.60320733 Ha       -4914.46331667 eV
  | XC energy correction          :         -42.64040989 Ha       -1160.30458865 eV
  | XC potential correction       :          54.82109202 Ha        1491.75781372 eV
  | Free-atom electrostatic energy:        -146.85452467 Ha       -3996.11493648 eV
  | Hartree energy correction     :          -8.21298196 Ha        -223.48660998 eV
  | vdW energy correction         :          -0.00325460 Ha          -0.08856212 eV
  | Entropy correction            :           0.00000000 Ha           0.00000000 eV
  | ---------------------------
  | Total energy                  :        -323.49328643 Ha       -8802.70020019 eV
  | Total energy, T -> 0          :        -323.49328643 Ha       -8802.70020019 eV  <-- do not rely on this value for anything but (periodic) metals
  | Electronic free energy        :        -323.49328643 Ha       -8802.70020019 eV

  Derived energy quantities:
  | Kinetic energy                :         322.58195045 Ha        8777.90148655 eV
  | Electrostatic energy          :        -603.43157240 Ha      -16420.20853596 eV
  | Energy correction for multipole
  | error in Hartree potential    :           0.04179348 Ha           1.13725849 eV
  | Sum of eigenvalues per atom                           :        -378.03563974 eV
  | Total energy (T->0) per atom                          :        -677.13078463 eV  <-- do not rely on this value for anything but (periodic) metals
  | Electronic free energy per atom                       :        -677.13078463 eV

  atomic forces [eV/Ang]:
  -----------------------
  atom #    1
   Hellmann-Feynman              :  0.561094E+00 -0.664466E+00  0.505572E+00
   Ionic forces                  :  0.000000E+00  0.000000E+00  0.000000E+00
   Multipole                     : -0.296278E-01  0.312471E+00 -0.234251E+00
   Pulay + GGA                   : -0.103055E+01  0.145992E+00 -0.116078E+01
   Van der Waals                 :  0.455638E-02  0.414067E-02 -0.259032E-02
   ----------------------------------------------------------------
   Total forces(   1)            : -0.494532E+00 -0.201862E+00 -0.892047E+00
  atom #    2
   Hellmann-Feynman              :  0.339098E+00  0.346075E-01 -0.139623E-01
   Ionic forces                  :  0.000000E+00  0.000000E+00  0.000000E+00
   Multipole                     :  0.175717E+00  0.393252E-01 -0.339678E-01
   Pulay + GGA                   : -0.155148E+00  0.306216E-01 -0.208849E-02
   Van der Waals                 :  0.540999E-02 -0.211672E-02 -0.503550E-02
   ----------------------------------------------------------------
   Total forces(   2)            :  0.365077E+00  0.102438E+00 -0.550542E-01
  atom #    3
   Hellmann-Feynman              :  0.713350E+01  0.749064E+01 -0.496364E+01
   Ionic forces                  :  0.000000E+00  0.000000E+00  0.000000E+00
   Multipole                     : -0.151271E+00  0.140461E+00 -0.102365E+01
   Pulay + GGA                   : -0.605974E+01 -0.717408E+01  0.662218E+01
   Van der Waals                 :  0.203572E-02 -0.799537E-02 -0.570602E-02
   ----------------------------------------------------------------
   Total forces(   3)            :  0.924520E+00  0.449032E+00  0.629183E+00
  atom #    4
   Hellmann-Feynman              : -0.235279E+00 -0.273896E-01 -0.120188E+00
   Ionic forces                  :  0.000000E+00  0.000000E+00  0.000000E+00
   Multipole                     : -0.375217E-01 -0.776443E-01 -0.756367E-01
   Pulay + GGA                   : -0.457200E-02  0.231316E+00  0.611755E-01
   Van der Waals                 : -0.384654E-02  0.240623E-02  0.435265E-03
   ----------------------------------------------------------------
   Total forces(   4)            : -0.281219E+00  0.128688E+00 -0.134214E+00
  atom #    5
   Hellmann-Feynman              : -0.350001E+00 -0.232015E+00 -0.237267E-01
   Ionic forces                  :  0.000000E+00  0.000000E+00  0.000000E+00
   Multipole                     : -0.978560E-01  0.203883E-02 -0.454164E-01
   Pulay + GGA                   :  0.240722E+00 -0.839569E-02 -0.499323E-01
   Van der Waals                 : -0.156484E-02  0.270048E-02 -0.964525E-02
   ----------------------------------------------------------------
   Total forces(   5)            : -0.208700E+00 -0.235671E+00 -0.128721E+00
  atom #    6
   Hellmann-Feynman              :  0.189679E+00 -0.351160E+00  0.256494E+00
   Ionic forces                  :  0.000000E+00  0.000000E+00  0.000000E+00
   Multipole                     : -0.152776E+00  0.631697E+00  0.269793E+00
   Pulay + GGA                   :  0.206586E+00 -0.741168E+00 -0.473705E+00
   Van der Waals                 : -0.227839E-02  0.371242E-02 -0.274642E-02
   ----------------------------------------------------------------
   Total forces(   6)            :  0.241210E+00 -0.456918E+00  0.498352E-01
  atom #    7
   Hellmann-Feynman              : -0.262012E+00 -0.511438E-01 -0.417773E-01
   Ionic forces                  :  0.000000E+00  0.000000E+00  0.000000E+00
   Multipole                     : -0.118589E+00  0.483749E-01  0.383435E-01
   Pulay + GGA                   :  0.106899E+00  0.247464E-01  0.245875E-01
   Van der Waals                 : -0.243873E-02  0.337126E-02  0.834734E-02
   ----------------------------------------------------------------
   Total forces(   7)            : -0.276141E+00  0.253488E-01  0.295010E-01
  atom #    8
   Hellmann-Feynman              :  0.466683E-01 -0.523647E-01  0.128264E+00
   Ionic forces                  :  0.000000E+00  0.000000E+00  0.000000E+00
   Multipole                     :  0.136803E-01  0.660854E-01  0.129239E+00
   Pulay + GGA                   : -0.407719E-01 -0.418634E-01 -0.105642E+00
   Van der Waals                 : -0.313676E-02  0.111993E-01  0.113459E-02
   ----------------------------------------------------------------
   Total forces(   8)            :  0.164398E-01 -0.169435E-01  0.152996E+00
  atom #    9
   Hellmann-Feynman              :  0.953241E-01  0.328141E-01 -0.193863E+00
   Ionic forces                  :  0.000000E+00  0.000000E+00  0.000000E+00
   Multipole                     :  0.208636E-01  0.130462E+00 -0.730758E-02
   Pulay + GGA                   : -0.394849E-01 -0.113840E+00  0.260537E-01
   Van der Waals                 : -0.236157E-02  0.378169E-02  0.445860E-02
   ----------------------------------------------------------------
   Total forces(   9)            :  0.743412E-01  0.532173E-01 -0.170659E+00
  atom #   10
   Hellmann-Feynman              :  0.338053E+01  0.592150E+01  0.153872E+01
   Ionic forces                  :  0.000000E+00  0.000000E+00  0.000000E+00
   Multipole                     :  0.719393E-01 -0.121581E+00  0.192280E+00
   Pulay + GGA                   : -0.136304E+01 -0.362928E+01 -0.457868E+00
   Van der Waals                 :  0.541949E-02 -0.170898E-01  0.770856E-02
   ----------------------------------------------------------------
   Total forces(  10)            :  0.209485E+01  0.215355E+01  0.128084E+01
  atom #   11
   Hellmann-Feynman              :  0.420206E+01 -0.225365E+01  0.140340E+02
   Ionic forces                  :  0.000000E+00  0.000000E+00  0.000000E+00
   Multipole                     : -0.101891E-02 -0.607816E+00  0.832466E+00
   Pulay + GGA                   : -0.362428E+01  0.351806E+01 -0.133066E+02
   Van der Waals                 : -0.306267E-02 -0.116683E-01  0.967603E-03
   ----------------------------------------------------------------
   Total forces(  11)            :  0.573699E+00  0.644927E+00  0.156089E+01
  atom #   12
   Hellmann-Feynman              : -0.808648E+00 -0.417524E+01 -0.160220E+02
   Ionic forces                  :  0.000000E+00  0.000000E+00  0.000000E+00
   Multipole                     : -0.639529E+00 -0.122652E+01 -0.646208E+00
   Pulay + GGA                   : -0.130296E+01  0.406210E+01  0.143990E+02
   Van der Waals                 :  0.115351E-03  0.161926E-02  0.777147E-02
   ----------------------------------------------------------------
   Total forces(  12)            : -0.275102E+01 -0.133803E+01 -0.226146E+01
  atom #   13
   Hellmann-Feynman              : -0.495818E+00 -0.137028E+01  0.151527E+00
   Ionic forces                  :  0.000000E+00  0.000000E+00  0.000000E+00
   Multipole                     : -0.757419E-01 -0.817062E-02  0.364071E-01
   Pulay + GGA                   :  0.287069E+00  0.623939E-01 -0.243903E+00
   Van der Waals                 :  0.115257E-02  0.593894E-02 -0.509991E-02
   ----------------------------------------------------------------
   Total forces(  13)            : -0.283338E+00 -0.131012E+01 -0.610689E-01

  Timings for VdW correction (Tkatchenko-Scheffler 2009 or later):
  | CPU time:        0.089 s, Wall clock time:        0.089 s.
  Removing unitary transformations (pure translations, rotations) from forces on atoms.
  Atomic forces before filtering:
  | Net force on center of mass :  -0.481754E-02 -0.234336E-02  0.211397E-04 eV/A
  | Net torque on center of mass:  -0.804742E-02  0.388270E-02  0.215460E-02 eV
  Atomic forces after filtering:
  | Net force on center of mass :  -0.446015E-16  0.178406E-15 -0.312211E-15 eV/A
  | Net torque on center of mass:  -0.113290E-14 -0.330430E-15  0.377634E-15 eV

  Energy and forces in a compact form:
  | Total energy uncorrected      :         -0.880270020018564E+04 eV
  | Total energy corrected        :         -0.880270020018564E+04 eV  <-- do not rely on this value for anything but (periodic) metals
  | Electronic free energy        :         -0.880270020018564E+04 eV
  Total atomic forces (unitary forces cleaned) [eV/Ang]:
  |   1         -0.494126541310960E+00         -0.201683258348338E+00         -0.891941812507804E+00
  |   2          0.365482988006304E+00          0.102546079089945E+00         -0.547893673299861E-01
  |   3          0.925131849775633E+00          0.449508637294051E+00          0.629218518252688E+00
  |   4         -0.280614222994852E+00          0.129230333659102E+00         -0.134347364479480E+00
  |   5         -0.208065999090790E+00         -0.235129094000313E+00         -0.128768464947404E+00
  |   6          0.241589981979853E+00         -0.456845785883731E+00          0.501068058911057E-01
  |   7         -0.275760980320814E+00          0.254887023858213E-01          0.296182673157351E-01
  |   8          0.166704787080226E-01         -0.170890391185127E-01          0.153322540656385E+00
  |   9          0.748530109051194E-01          0.533622771012003E-01         -0.170164221961928E+00
  |  10          0.209506175388252E+01          0.215361172365958E+01          0.128064645397050E+01
  |  11          0.573729455096797E+00          0.644755890474262E+00          0.156068387787928E+01
  |  12         -0.275076344740290E+01         -0.133779469573025E+01         -0.226192332166273E+01
  |  13         -0.283188327233927E+00         -0.130996177058281E+01         -0.616619110763656E-01

  ------------------------------------ 
  Start decomposition of the XC Energy 
  ------------------------------------ 
  X and C from original XC functional choice 
  Hartree-Fock Energy :          0.000000000 Ha              0.000000000 eV
  X Energy            :        -41.039726614 Ha          -1116.747780658 eV
  C Energy            :         -1.600683273 Ha            -43.556807996 eV
  Total XC Energy     :        -42.640409886 Ha          -1160.304588654 eV
  ------------------------------------ 
  LDA X and C from self-consistent density 
  X Energy LDA        :        -37.258795527 Ha          -1013.863411099 eV
  C Energy LDA        :         -3.138712196 Ha            -85.408704412 eV
  ------------------------------------ 
  End decomposition of the XC Energy 
  ------------------------------------ 

------------------------------------------------------------

------------------------------------------------------------------------------
  Final output of selected total energy values:

  The following output summarizes some interesting total energy values
  at the end of a run (AFTER all relaxation, molecular dynamics, etc.).

  | Total energy of the DFT / Hartree-Fock s.c.f. calculation      :          -8802.700200186 eV
  | Final zero-broadening corrected energy (caution - metals only) :          -8802.700200186 eV
  | For reference only, the value of 1 Hartree used in FHI-aims is :             27.211384500 eV

  Before relying on these values, please be sure to understand exactly which
  total energy value is referred to by a given number. Different objects may
  all carry the same name 'total energy'. Definitions:

  Total energy of the DFT / Hartree-Fock s.c.f. calculation:
  | Note that this energy does not include ANY quantities calculated after the
  | s.c.f. cycle, in particular not ANY RPA, MP2, etc. many-body perturbation terms.

  Final zero-broadening corrected energy:
  | For metallic systems only, a broadening of the occupation numbers at the Fermi
  | level can be extrapolated back to zero broadening by an electron-gas inspired
  | formula. For all systems that are not real metals, this value can be
  | meaningless and should be avoided.

------------------------------------------------------------------------------
  Methods described in the following list of references were used in this FHI-aims run.
  If you publish the results, please make sure to cite these reference if they apply.
  FHI-aims is an academic code, and for our developers (often, Ph.D. students
  and postdocs), scientific credit in the community is essential.
  Thank you for helping us!

  For any use of FHI-aims, please cite:

    Volker Blum, Ralf Gehrke, Felix Hanke, Paula Havu, Ville Havu,
    Xinguo Ren, Karsten Reuter, and Matthias Scheffler
    'Ab initio molecular simulations with numeric atom-centered orbitals'
    Computer Physics Communications 180, 2175-2196 (2009)
    http://dx.doi.org/10.1016/j.cpc.2009.06.022


  The scalable eigensolver library ELPA was used in your run.
  ELPA is essential especially for large systems on hundreds or thousands of CPUs.
  For ELPA, please cite:

    Andreas Marek, Volker Blum, Rainer Johanni, Ville Havu, Bruno Lang,
    Thomas Auckenthaler, Alexander Heinecke, Hans-Joachim Bungartz, and Hermann Lederer,
    'The ELPA Library - Scalable Parallel Eigenvalue Solutions
    for Electronic Structure Theory and Computational Science'
    The Journal of Physics: Condensed Matter 26, 213201 (2014).
    http://dx.doi.org/10.1088/0953-8984/26/21/213201


  The ELSI infrastructure was used in your run to solve the Kohn-Sham electronic structure.
  Please check out http://elsi-interchange.org to learn more.
  If scalability is important for your project, please acknowledge ELSI by citing:

    V. W-z. Yu, F. Corsetti, A. Garcia, W. P. Huhn, M. Jacquelin, W. Jia,
    B. Lange, L. Lin, J. Lu, W. Mi, A. Seifitokaldani, A. Vazquez-Mayagoitia,
    C. Yang, H. Yang, and V. Blum
    'ELSI: A unified software interface for Kohn-Sham electronic structure solvers'
    Computer Physics Communications 222, 267-285 (2018).
    http://dx.doi.org/10.1016/j.cpc.2017.09.007


  For the real-space grid partitioning and parallelization used in this calculation, please cite:

    Ville Havu, Volker Blum, Paula Havu, and Matthias Scheffler,
    'Efficient O(N) integration for all-electron electronic structure calculation'
    'using numerically tabulated basis functions'
    Journal of Computational Physics 228, 8367-8379 (2009).
    http://dx.doi.org/10.1016/j.jcp.2009.08.008

  Of course, there are many other important community references, e.g., those cited in the
  above references. Our list is limited to references that describe implementations in the
  FHI-aims code. The reason is purely practical (length of this list) - please credit others as well.

------------------------------------------------------------
          Leaving FHI-aims.
          Date     :  20200805, Time     :  184406.659

          Computational steps:
          | Number of self-consistency cycles          :           16
          | Number of SCF (re)initializations          :            1

          Detailed time accounting                     :  max(cpu_time)    wall_clock(cpu1)
          | Total time                                 :       22.660 s          22.716 s
          | Preparation time                           :        0.144 s           0.146 s
          | Boundary condition initalization           :        0.000 s           0.000 s
          | Grid partitioning                          :        0.110 s           0.111 s
          | Preloading free-atom quantities on grid    :        0.002 s           0.002 s
          | Free-atom superposition energy             :        0.084 s           0.085 s
          | Total time for integrations                :        8.598 s           8.612 s
          | Total time for solution of K.-S. equations :        0.036 s           0.038 s
          | Total time for density & force components  :        7.112 s           7.122 s
          | Total time for mixing                      :        0.215 s           0.218 s
          | Total time for Hartree multipole update    :        0.140 s           0.144 s
          | Total time for Hartree multipole sum       :        5.818 s           5.827 s
          | Total time for total energy evaluation     :        0.003 s           0.002 s
          | Total time for vdW correction              :        0.089 s           0.089 s

          Partial memory accounting:
          | Residual value for overall tracked memory usage across tasks :           0.000 MB (should be 0.000 MB)
          | Peak values for overall tracked memory usage (after allocating hessian_basis_wave):
          |   Minimum:        1.622 MB (on task 1)
          |   Maximum:        1.622 MB (on task 1)
          |   Average:        1.622 MB
          | Largest tracked array allocation (hessian_basis_wave):
          |   Minimum:        0.794 MB (on task 1)
          |   Maximum:        0.794 MB (on task 1)
          |   Average:        0.794 MB
          Note:  These values currently only include a subset of arrays which are explicitly tracked.
          The "true" memory usage will be greater.

          Have a nice day.
------------------------------------------------------------
