  MPI-parallelism will be employed.
------------------------------------------------------------
          Invoking FHI-aims ...
          Version 171221_1
          Compiled on 2019/09/09 at 14:39:39 on host puhti-login2.bullx.

          When using FHI-aims, please cite the following reference:

          Volker Blum, Ralf Gehrke, Felix Hanke, Paula Havu,
          Ville Havu, Xinguo Ren, Karsten Reuter, and Matthias Scheffler,
          'Ab Initio Molecular Simulations with Numeric Atom-Centered Orbitals',
          Computer Physics Communications 180, 2175-2196 (2009)

          For any questions about FHI-aims, please visit the aimsclub website
          with its forums and wiki. Contributions to both the forums and the
          wiki are warmly encouraged - they are for you, and everyone is welcome there.

------------------------------------------------------------



  Date     :  20200610, Time     :  062231.193
  Time zero on CPU 1             :   0.274800000000000E-01  s.
  Internal wall clock time zero  :           361002151.193  s.

  FHI-aims created a unique identifier for this run for later identification
  aims_uuid : BFE04899-5AC0-41B9-A652-824B4F234351

  Using       20 parallel tasks.
  Task        0 on host r07c01.bullx reporting.
  Task        1 on host r07c01.bullx reporting.
  Task        2 on host r07c01.bullx reporting.
  Task        3 on host r07c01.bullx reporting.
  Task        4 on host r07c01.bullx reporting.
  Task        5 on host r07c01.bullx reporting.
  Task        6 on host r07c01.bullx reporting.
  Task        7 on host r07c01.bullx reporting.
  Task        8 on host r07c01.bullx reporting.
  Task        9 on host r07c01.bullx reporting.
  Task       10 on host r07c01.bullx reporting.
  Task       11 on host r07c01.bullx reporting.
  Task       12 on host r07c01.bullx reporting.
  Task       13 on host r07c01.bullx reporting.
  Task       14 on host r07c01.bullx reporting.
  Task       15 on host r07c01.bullx reporting.
  Task       16 on host r07c01.bullx reporting.
  Task       17 on host r07c01.bullx reporting.
  Task       18 on host r07c01.bullx reporting.
  Task       19 on host r07c01.bullx reporting.

  Performing system and environment tests:
  | Environment variable OMP_NUM_THREADS correctly set to 1.
  | Stacksize not measured: no C compiler
  | Checking for scalapack...
  | Testing pdtran()...
  | All pdtran() tests passed.

  Obtaining array dimensions for all initial allocations:
  
  -----------------------------------------------------------------------
  Parsing control.in (first pass over file, find array dimensions only).
  The contents of control.in will be repeated verbatim below
  unless switched off by setting 'verbatim_writeout .false.' .
  in the first line of control.in .
  -----------------------------------------------------------------------
  
  #########################################################################################
  #
  #  Volker Blum, FHI 2009 : Test run input file control.in for simple H2O
  #
  #########################################################################################
  #
  #  Physical model
  #
    xc                 pbe
    vdw_correction_hirshfeld
    spin               none
    relativistic       none
    charge             0.
  #
  #  SCF convergence
  #
    occupation_type    gaussian 0.01
    mixer              pulay
      n_max_pulay        10
      charge_mix_param   0.2
    sc_accuracy_rho    1E-5
    sc_accuracy_eev    1E-3
    sc_accuracy_etot   1E-6
    sc_accuracy_forces 1E-4
    sc_iter_limit      100
  #
  #  Relaxation
  #
  #  relax_geometry   bfgs 1.e-3
  #
  ################################################################################
  #
  #  FHI-aims code project
  #  VB, Fritz-Haber Institut, 2009
  #
  #  Suggested "light" defaults for H atom (to be pasted into control.in file)
  #  Be sure to double-check any results obtained with these settings for post-processing,
  #  e.g., with the "tight" defaults and larger basis sets.
  #
  ################################################################################
    species        H
  #     global species definitions
      nucleus             1
      mass                1.00794
  #
      l_hartree           4
  #
      cut_pot             3.5  1.5  1.0
      basis_dep_cutoff    1e-4
  #
      radial_base         24 5.0
      radial_multiplier   1
      angular_grids       specified
        division   0.2421   50
        division   0.3822  110
        division   0.4799  194
        division   0.5341  302
  #      division   0.5626  434
  #      division   0.5922  590
  #      division   0.6542  770
  #      division   0.6868 1202
  #      outer_grid  770
        outer_grid  302
  ################################################################################
  #
  #  Definition of "minimal" basis
  #
  ################################################################################
  #     valence basis states
      valence      1  s   1.
  #     ion occupancy
      ion_occ      1  s   0.5
  ################################################################################
  #
  #  Suggested additional basis functions. For production calculations,
  #  uncomment them one after another (the most important basis functions are
  #  listed first).
  #
  #  Basis constructed for dimers: 0.5 A, 0.7 A, 1.0 A, 1.5 A, 2.5 A
  #
  ################################################################################
  #  "First tier" - improvements: -1014.90 meV to -62.69 meV
       hydro 2 s 2.1
       hydro 2 p 3.5
  #  "Second tier" - improvements: -12.89 meV to -1.83 meV
  #     hydro 1 s 0.85
  #     hydro 2 p 3.7
  #     hydro 2 s 1.2
  #     hydro 3 d 7
  #  "Third tier" - improvements: -0.25 meV to -0.12 meV
  #     hydro 4 f 11.2
  #     hydro 3 p 4.8
  #     hydro 4 d 9
  #     hydro 3 s 3.2
  ################################################################################
  #
  #  FHI-aims code project
  #  VB, Fritz-Haber Institut, 2009
  #
  #  Suggested "light" defaults for C atom (to be pasted into control.in file)
  #  Be sure to double-check any results obtained with these settings for post-processing,
  #  e.g., with the "tight" defaults and larger basis sets.
  #
  ################################################################################
    species        C
  #     global species definitions
      nucleus             6
      mass                12.0107
  #
      l_hartree           4
  #
      cut_pot             3.5  1.5  1.0
      basis_dep_cutoff    1e-4
  #
      radial_base         34 5.0
      radial_multiplier   1
      angular_grids specified
        division   0.3326   50
        division   0.5710  110
        division   0.7727  194
        division   0.8772  302
  #      division   0.9334  434
  #      division   0.9625  590
  #      division   0.9924  770
  #      division   1.0230  974
  #      division   1.4589 1202
  #     outer_grid  974
       outer_grid 302
  ################################################################################
  #
  #  Definition of "minimal" basis
  #
  ################################################################################
  #     valence basis states
      valence      2  s   2.
      valence      2  p   2.
  #     ion occupancy
      ion_occ      2  s   1.
      ion_occ      2  p   1.
  ################################################################################
  #
  #  Suggested additional basis functions. For production calculations,
  #  uncomment them one after another (the most important basis functions are
  #  listed first).
  #
  #  Constructed for dimers: 1.0 A, 1.25 A, 1.5 A, 2.0 A, 3.0 A
  #
  ################################################################################
  #  "First tier" - improvements: -1214.57 meV to -155.61 meV
       hydro 2 p 1.7
       hydro 3 d 6
       hydro 2 s 4.9
  #  "Second tier" - improvements: -67.75 meV to -5.23 meV
  #     hydro 4 f 9.8
  #     hydro 3 p 5.2
  #     hydro 3 s 4.3
  #     hydro 5 g 14.4
  #     hydro 3 d 6.2
  #  "Third tier" - improvements: -2.43 meV to -0.60 meV
  #     hydro 2 p 5.6
  #     hydro 2 s 1.4
  #     hydro 3 d 4.9
  #     hydro 4 f 11.2
  #  "Fourth tier" - improvements: -0.39 meV to -0.18 meV
  #     hydro 2 p 2.1
  #     hydro 5 g 16.4
  #     hydro 4 d 13.2
  #     hydro 3 s 13.6
  #     hydro 4 f 17.6
  #  Further basis functions - improvements: -0.08 meV and below
  #     hydro 3 s 2
  #     hydro 3 p 6
  #     hydro 4 d 20
  ################################################################################
  #
  #  FHI-aims code project
  #  VB, Fritz-Haber Institut, 2009
  #
  #  Suggested "light" defaults for N atom (to be pasted into control.in file)
  #  Be sure to double-check any results obtained with these settings for post-processing,
  #  e.g., with the "tight" defaults and larger basis sets.
  #
  ################################################################################
    species        N
  #     global species definitions
      nucleus             7
      mass                14.0067
  #
      l_hartree           4
  #
      cut_pot             3.5  1.5  1.0
      basis_dep_cutoff    1e-4
  #
      radial_base         35 5.0
      radial_multiplier   1
      angular_grids       specified
        division   0.2599   50
        division   0.4601  110
        division   0.5885  194
        division   0.6503  302
  #      division   0.6939  434
  #      division   0.7396  590
  #      division   0.7632  770
  #      division   0.8122  974
  #      division   1.1604 1202
  #      outer_grid  974
        outer_grid  302
  ################################################################################
  #
  #  Definition of "minimal" basis
  #
  ################################################################################
  #     valence basis states
      valence      2  s   2.
      valence      2  p   3.
  #     ion occupancy
      ion_occ      2  s   1.
      ion_occ      2  p   2.
  ################################################################################
  #
  #  Suggested additional basis functions. For production calculations,
  #  uncomment them one after another (the most important basis functions are
  #  listed first).
  #
  #  Constructed for dimers: 1.0 A, 1.1 A, 1.5 A, 2.0 A, 3.0 A
  #
  ################################################################################
  #  "First tier" - improvements: -1193.42 meV to -220.60 meV
       hydro 2 p 1.8
       hydro 3 d 6.8
       hydro 3 s 5.8
  #  "Second tier" - improvements: -80.21 meV to -6.86 meV
  #     hydro 4 f 10.8
  #     hydro 3 p 5.8
  #     hydro 1 s 0.8
  #     hydro 5 g 16
  #     hydro 3 d 4.9
  #  "Third tier" - improvements: -4.29 meV to -0.53 meV
  #     hydro 3 s 16
  #     ionic 2 p auto
  #     hydro 3 d 6.6
  #     hydro 4 f 11.6
  #  "Fourth tier" - improvements: -0.75 meV to -0.25 meV
  #     hydro 2 p 4.5
  #     hydro 2 s 2.4
  #     hydro 5 g 14.4
  #     hydro 4 d 14.4
  #     hydro 4 f 16.8
  # Further basis functions - -0.21 meV and below
  #     hydro 3 p 14.8
  #     hydro 3 s 4.4
  #     hydro 3 d 19.6
  #     hydro 5 g 12.8
  ################################################################################
  #
  #  FHI-aims code project
  #  VB, Fritz-Haber Institut, 2009
  #
  #  Suggested "light" defaults for O atom (to be pasted into control.in file)
  #  Be sure to double-check any results obtained with these settings for post-processing,
  #  e.g., with the "tight" defaults and larger basis sets.
  #
  ################################################################################
    species        O
  #     global species definitions
      nucleus             8
      mass                15.9994
  #
      l_hartree           4
  #
      cut_pot             3.5  1.5  1.0
      basis_dep_cutoff    1e-4
  #
      radial_base         36 5.0
      radial_multiplier   1
       angular_grids specified
        division   0.2659   50
        division   0.4451  110
        division   0.6052  194
        division   0.7543  302
  #      division   0.8014  434
  #      division   0.8507  590
  #      division   0.8762  770
  #      division   0.9023  974
  #      division   1.2339 1202
  #      outer_grid 974
        outer_grid 302
  ################################################################################
  #
  #  Definition of "minimal" basis
  #
  ################################################################################
  #     valence basis states
      valence      2  s   2.
      valence      2  p   4.
  #     ion occupancy
      ion_occ      2  s   1.
      ion_occ      2  p   3.
  ################################################################################
  #
  #  Suggested additional basis functions. For production calculations,
  #  uncomment them one after another (the most important basis functions are
  #  listed first).
  #
  #  Constructed for dimers: 1.0 A, 1.208 A, 1.5 A, 2.0 A, 3.0 A
  #
  ################################################################################
  #  "First tier" - improvements: -699.05 meV to -159.38 meV
       hydro 2 p 1.8
       hydro 3 d 7.6
       hydro 3 s 6.4
  #  "Second tier" - improvements: -49.91 meV to -5.39 meV
  #     hydro 4 f 11.6
  #     hydro 3 p 6.2
  #     hydro 3 d 5.6
  #     hydro 5 g 17.6
  #     hydro 1 s 0.75
  #  "Third tier" - improvements: -2.83 meV to -0.50 meV
  #     ionic 2 p auto
  #     hydro 4 f 10.8
  #     hydro 4 d 4.7
  #     hydro 2 s 6.8
  #  "Fourth tier" - improvements: -0.40 meV to -0.12 meV
  #     hydro 3 p 5
  #     hydro 3 s 3.3
  #     hydro 5 g 15.6
  #     hydro 4 f 17.6
  #     hydro 4 d 14
  # Further basis functions - -0.08 meV and below
  #     hydro 3 s 2.1
  #     hydro 4 d 11.6
  #     hydro 3 p 16
  #     hydro 2 s 17.2
  
  -----------------------------------------------------------------------
  Completed first pass over input file control.in .
  -----------------------------------------------------------------------
  
  
  -----------------------------------------------------------------------
  Parsing geometry.in (first pass over file, find array dimensions only).
  The contents of geometry.in will be repeated verbatim below
  unless switched off by setting 'verbatim_writeout .false.' .
  in the first line of geometry.in .
  -----------------------------------------------------------------------
  
  atom  0.00000 0.00000 0.00000 C
  atom  1.09300 0.00000 0.00000 H
  atom  -0.47961 0.00000 -1.41207 N
  atom  -1.01404 0.85402 -1.57599 H
  atom  0.32747 -0.03432 -2.03139 H
  atom  -0.49584 1.26211 0.72868 C
  atom  0.09369 1.43757 1.63157 H
  atom  -0.40570 2.13690 0.08047 H
  atom  -1.54401 1.14984 1.01553 H
  atom  -0.39425 -1.28861 0.74398 C
  atom  -0.75822 -1.35794 1.89375 O
  atom  -0.32154 -2.38335 0.05621 O
  atom  -0.01851 -2.00236 -0.78522 H
  
  -----------------------------------------------------------------------
  Completed first pass over input file geometry.in .
  -----------------------------------------------------------------------
  

  Basic array size parameters:
  | Number of species                 :        4
  | Number of atoms                   :       13
  | Max. basis fn. angular momentum   :        2
  | Max. atomic/ionic basis occupied n:        2
  | Max. number of basis fn. types    :        2
  | Max. radial fns per species/type  :        3
  | Max. logarithmic grid size        :     1301
  | Max. radial integration grid size :       36
  | Max. angular integration grid size:      302
  | Max. angular grid division number :        8
  | Radial grid for Hartree potential :     1301
  | Number of spin channels           :        1

------------------------------------------------------------
          Reading file control.in.
------------------------------------------------------------
  XC: Using PBE gradient-corrected functionals.
  Spin treatment: No spin polarisation.
  Non-relativistic treatment of kinetic energy.
  Charge =   0.000000E+00: Neutral system requested explicitly.
  Occupation type: Gaussian broadening, width =   0.100000E-01 eV.
  Using pulay charge density mixing.
  Pulay mixing - number of memorized iterations:   10
  Charge density mixing - mixing parameter:     0.2000
  Convergence accuracy of self-consistent charge density:  0.1000E-04
  Convergence accuracy of sum of eigenvalues:  0.1000E-02
  Convergence accuracy of total energy:  0.1000E-05
  Convergence accuracy of forces:  0.1000E-03
  Maximum number of s.-c. iterations  :   100
 
  Reading configuration options for species H                   .
  | Found nuclear charge :   1.0000
  | Found atomic mass :    1.00794000000000      amu
  | Found l_max for Hartree potential  :   4
  | Found cutoff potl. onset [A], width [A], scale factor :    3.50000    1.50000    1.00000
  | Threshold for basis-dependent cutoff potential is   0.100000E-03
  | Found data for basic radial integration grid :    24 points, outermost radius =    5.000 A
  | Found multiplier for basic radial grid :   1
  | Found angular grid specification: user-specified.
  | Specified grid contains     5 separate shells.
  | Check grid settings after all constraints further below.
  | Found free-atom valence shell :  1 s   1.000
  | No ionic wave fns used. Skipping ion_occ.
  | Found hydrogenic basis function :  2 s   2.100
  | Found hydrogenic basis function :  2 p   3.500
  Species H                   : Missing cutoff potential type.
  Defaulting to exp(1/x)/(1-x)^2 type cutoff potential.
  Species H : No 'logarithmic' tag. Using default grid for free atom:
  | Default logarithmic grid data [bohr] : 0.1000E-03 0.1000E+03 0.1012E+01
  Species H : On-site basis accuracy parameter (for Gram-Schmidt orthonormalisation) not specified.
  Using default value basis_acc =  0.1000000E-03.
  Species H                   : Using default innermost maximum threshold i_radial=  2 for radial functions.
  Species H                   : Default cutoff onset for free atom density etc. : 0.35000000E+01 AA.
  Species H                   : Basic radial grid will be enhanced according to radial_multiplier =   1, to contain    24 grid points.
 
  Reading configuration options for species C                   .
  | Found nuclear charge :   6.0000
  | Found atomic mass :    12.0107000000000      amu
  | Found l_max for Hartree potential  :   4
  | Found cutoff potl. onset [A], width [A], scale factor :    3.50000    1.50000    1.00000
  | Threshold for basis-dependent cutoff potential is   0.100000E-03
  | Found data for basic radial integration grid :    34 points, outermost radius =    5.000 A
  | Found multiplier for basic radial grid :   1
  | Found angular grid specification: user-specified.
  | Specified grid contains     5 separate shells.
  | Check grid settings after all constraints further below.
  | Found free-atom valence shell :  2 s   2.000
  | Found free-atom valence shell :  2 p   2.000
  | No ionic wave fns used. Skipping ion_occ.
  | No ionic wave fns used. Skipping ion_occ.
  | Found hydrogenic basis function :  2 p   1.700
  | Found hydrogenic basis function :  3 d   6.000
  | Found hydrogenic basis function :  2 s   4.900
  Species C                   : Missing cutoff potential type.
  Defaulting to exp(1/x)/(1-x)^2 type cutoff potential.
  Species C : No 'logarithmic' tag. Using default grid for free atom:
  | Default logarithmic grid data [bohr] : 0.1000E-03 0.1000E+03 0.1012E+01
  Species C : On-site basis accuracy parameter (for Gram-Schmidt orthonormalisation) not specified.
  Using default value basis_acc =  0.1000000E-03.
  Species C                   : Using default innermost maximum threshold i_radial=  2 for radial functions.
  Species C                   : Default cutoff onset for free atom density etc. : 0.35000000E+01 AA.
  Species C                   : Basic radial grid will be enhanced according to radial_multiplier =   1, to contain    34 grid points.
 
  Reading configuration options for species N                   .
  | Found nuclear charge :   7.0000
  | Found atomic mass :    14.0067000000000      amu
  | Found l_max for Hartree potential  :   4
  | Found cutoff potl. onset [A], width [A], scale factor :    3.50000    1.50000    1.00000
  | Threshold for basis-dependent cutoff potential is   0.100000E-03
  | Found data for basic radial integration grid :    35 points, outermost radius =    5.000 A
  | Found multiplier for basic radial grid :   1
  | Found angular grid specification: user-specified.
  | Specified grid contains     5 separate shells.
  | Check grid settings after all constraints further below.
  | Found free-atom valence shell :  2 s   2.000
  | Found free-atom valence shell :  2 p   3.000
  | No ionic wave fns used. Skipping ion_occ.
  | No ionic wave fns used. Skipping ion_occ.
  | Found hydrogenic basis function :  2 p   1.800
  | Found hydrogenic basis function :  3 d   6.800
  | Found hydrogenic basis function :  3 s   5.800
  Species N                   : Missing cutoff potential type.
  Defaulting to exp(1/x)/(1-x)^2 type cutoff potential.
  Species N : No 'logarithmic' tag. Using default grid for free atom:
  | Default logarithmic grid data [bohr] : 0.1000E-03 0.1000E+03 0.1012E+01
  Species N : On-site basis accuracy parameter (for Gram-Schmidt orthonormalisation) not specified.
  Using default value basis_acc =  0.1000000E-03.
  Species N                   : Using default innermost maximum threshold i_radial=  2 for radial functions.
  Species N                   : Default cutoff onset for free atom density etc. : 0.35000000E+01 AA.
  Species N                   : Basic radial grid will be enhanced according to radial_multiplier =   1, to contain    35 grid points.
 
  Reading configuration options for species O                   .
  | Found nuclear charge :   8.0000
  | Found atomic mass :    15.9994000000000      amu
  | Found l_max for Hartree potential  :   4
  | Found cutoff potl. onset [A], width [A], scale factor :    3.50000    1.50000    1.00000
  | Threshold for basis-dependent cutoff potential is   0.100000E-03
  | Found data for basic radial integration grid :    36 points, outermost radius =    5.000 A
  | Found multiplier for basic radial grid :   1
  | Found angular grid specification: user-specified.
  | Specified grid contains     5 separate shells.
  | Check grid settings after all constraints further below.
  | Found free-atom valence shell :  2 s   2.000
  | Found free-atom valence shell :  2 p   4.000
  | No ionic wave fns used. Skipping ion_occ.
  | No ionic wave fns used. Skipping ion_occ.
  | Found hydrogenic basis function :  2 p   1.800
  | Found hydrogenic basis function :  3 d   7.600
  | Found hydrogenic basis function :  3 s   6.400
  Species O                   : Missing cutoff potential type.
  Defaulting to exp(1/x)/(1-x)^2 type cutoff potential.
  Species O : No 'logarithmic' tag. Using default grid for free atom:
  | Default logarithmic grid data [bohr] : 0.1000E-03 0.1000E+03 0.1012E+01
  Species O : On-site basis accuracy parameter (for Gram-Schmidt orthonormalisation) not specified.
  Using default value basis_acc =  0.1000000E-03.
  Species O                   : Using default innermost maximum threshold i_radial=  2 for radial functions.
  Species O                   : Default cutoff onset for free atom density etc. : 0.35000000E+01 AA.
  Species O                   : Basic radial grid will be enhanced according to radial_multiplier =   1, to contain    36 grid points.
 
  Finished reading input file 'control.in'. Consistency checks are next.
 
  MPI_IN_PLACE appears to work with this MPI implementation.
  | Keeping use_mpi_in_place .true. (see manual).
  Target number of points in a grid batch is not set. Defaulting to  100
  Method for grid partitioning is not set. Defaulting to parallel hash+maxmin partitioning.
  Batch size limit is not set. Defaulting to    200
  By default, will store active basis functions for each batch.
  If in need of memory, prune_basis_once .false. can be used to disable this option.
  communication_type for Hartree potential was not specified.
  Defaulting to calc_hartree .
  Pulay mixer: Number of initial linear mixing iterations not set.
  Defaulting to    0 iterations.
  Work space size for distributed Hartree potential not set.
  Defaulting to   0.200000E+03 MB.
  Algorithm-dependent basis array size parameters:
  | n_max_pulay                         :       10
  Presetting      1001 iterations before the initial mixing cycle
  is restarted anyway using the sc_init_iter criterion / keyword.
  Presetting a factor      1.000 between actual scf density residual
  and density convergence criterion sc_accuracy_rho below which sc_init_iter
  takes no effect.
  Geometry relaxation not requested: no relaxation will be performed.
  Handling of forces: Unphysical translation and rotation will be removed from forces.
  No accuracy limit for integral partition fn. given. Defaulting to  0.1000E-14.
  No threshold value for u(r) in integrations given. Defaulting to  0.1000E-05.
  No accuracy for occupation numbers given. Defaulting to  0.1000E-12.
  No threshold value for occupation numbers given. Defaulting to  0.0000E+00.
  No accuracy for fermi level given. Defaulting to  0.1000E-19.
  Maximum # of iterations to find E_F not set. Defaulting to  200.
  Preferred method for the eigenvalue solver ('KS_method') not specified in 'control.in'.
  Calling BLACS routine to test compilation state
  Since ScaLAPACK support is enabled, defaulting to 'elsi'.
  Will not use alltoall communication since running on < 1024 CPUs.
  Threshold for basis singularities not set.
  Default threshold for basis singularities:  0.1000E-04
  partition_type (choice of integration weights) for integrals was not specified.
  | Using a version of the partition function of Stratmann and coworkers ('stratmann_smoother').
  | At each grid point, the set of atoms used to build the partition table is smoothly restricted to
  | only those atoms whose free-atom density would be non-zero at that grid point.
  Partitioning for Hartree potential was not defined. Using partition_type for integrals.
  | Adjusted default value of keyword multip_moments_threshold to:       0.10000000E-11
  | This value may affect high angular momentum components of the Hartree potential in periodic systems.
  No q(lm)/r^(l+1) cutoff set for long-range Hartree potential.
  | Using default value of  0.100000E-09 .
  | Verify using the multipole_threshold keyword.
  Defaulting to new monopole extrapolation.
  Density update method: automatic selection selected.
------------------------------------------------------------


------------------------------------------------------------
          Reading geometry description geometry.in.
------------------------------------------------------------
  Input structure read successfully.
  The structure contains       13 atoms,  and a total of         48.000 electrons.

  Input geometry:
  | No unit cell requested.
  | Atomic structure:
  |       Atom                x [A]            y [A]            z [A]
  |    1: Species C             0.00000000        0.00000000        0.00000000
  |    2: Species H             1.09300000        0.00000000        0.00000000
  |    3: Species N            -0.47961000        0.00000000       -1.41207000
  |    4: Species H            -1.01404000        0.85402000       -1.57599000
  |    5: Species H             0.32747000       -0.03432000       -2.03139000
  |    6: Species C            -0.49584000        1.26211000        0.72868000
  |    7: Species H             0.09369000        1.43757000        1.63157000
  |    8: Species H            -0.40570000        2.13690000        0.08047000
  |    9: Species H            -1.54401000        1.14984000        1.01553000
  |   10: Species C            -0.39425000       -1.28861000        0.74398000
  |   11: Species O            -0.75822000       -1.35794000        1.89375000
  |   12: Species O            -0.32154000       -2.38335000        0.05621000
  |   13: Species H            -0.01851000       -2.00236000       -0.78522000
  |

  | The smallest distance between any two atoms is         0.97210339 AA.
  |
  | The first atom of this pair is atom number                     12 .
  | The second atom of this pair is atom number                    13 .

  Number of empty states per atom not set in control.in - providing a guess from actual geometry.
  | Total number of empty states used during s.c.f. cycle:       29
  If you use a very high smearing, use empty_states (per atom!) in control.in to increase this value.

  Structure-dependent array size parameters: 
  | Maximum number of distinct radial functions  :       21
  | Maximum number of basis functions            :      119
  | Number of Kohn-Sham states (occupied + empty):       53
------------------------------------------------------------

------------------------------------------------------------
          Preparing all fixed parts of the calculation.
------------------------------------------------------------
  Determining machine precision:
    2.225073858507201E-308
  Setting up grids for atomic and cluster calculations.

  Creating wave function, potential, and density for free atoms.

  Species: H

  List of occupied orbitals and eigenvalues:
    n    l              occ      energy [Ha]    energy [eV]
    1    0           1.0000        -0.237589        -6.4651


  Species: C

  List of occupied orbitals and eigenvalues:
    n    l              occ      energy [Ha]    energy [eV]
    1    0           2.0000       -10.038835      -273.1706
    2    0           2.0000        -0.502696       -13.6791
    2    1           2.0000        -0.191971        -5.2238


  Species: N

  List of occupied orbitals and eigenvalues:
    n    l              occ      energy [Ha]    energy [eV]
    1    0           2.0000       -14.128000      -384.4424
    2    0           2.0000        -0.681077       -18.5330
    2    1           3.0000        -0.259788        -7.0692


  Species: O

  List of occupied orbitals and eigenvalues:
    n    l              occ      energy [Ha]    energy [eV]
    1    0           2.0000       -18.898188      -514.2459
    2    0           2.0000        -0.878505       -23.9053
    2    1           4.0000        -0.331779        -9.0282

  Creating fixed part of basis set: Ionic, confined, hydrogenic.
 
  H                    hydrogenic:
 
  List of hydrogenic basis orbitals: 
    n    l      effective z      eigenvalue [eV]  inner max. [A]     outer max. [A]     outer radius [A]   
    2    0         2.100000       -14.9728           0.193243           1.317208           4.583499
    2    1         3.500000       -41.6669           0.602369           0.602369           3.723403
 
 
  C                    hydrogenic:
 
  List of hydrogenic basis orbitals: 
    n    l      effective z      eigenvalue [eV]  inner max. [A]     outer max. [A]     outer radius [A]   
    2    1         1.700000        -9.7616           1.230570           1.230570           4.607917
    3    2         6.000000       -54.4224           0.792453           0.792453           3.883070
    2    0         4.900000       -81.6679           0.082559           0.562749           3.078220
 
 
  N                    hydrogenic:
 
  List of hydrogenic basis orbitals: 
    n    l      effective z      eigenvalue [eV]  inner max. [A]     outer max. [A]     outer radius [A]   
    2    1         1.800000       -10.9749           1.177451           1.177451           4.573712
    3    2         6.800000       -69.9026           0.704619           0.704619           3.538137
    3    0         5.800000       -50.8545           0.067388           1.191934           4.250239
 
 
  O                    hydrogenic:
 
  List of hydrogenic basis orbitals: 
    n    l      effective z      eigenvalue [eV]  inner max. [A]     outer max. [A]     outer radius [A]   
    2    1         1.800000       -10.9749           1.164242           1.164242           4.578029
    3    2         7.600000       -87.3180           0.624125           0.624125           3.251020
    3    0         6.400000       -61.9207           0.061167           1.081902           4.001998
 

  Adding cutoff potential to free-atom effective potential.
  Creating atomic-like basis functions for current effective potential.

  Species H                   :

  List of atomic basis orbitals and eigenvalues:
    n    l      energy [Ha]    energy [eV]    outer radius [A]
    1    0        -0.237589        -6.4651       4.527807


  Species C                   :

  List of atomic basis orbitals and eigenvalues:
    n    l      energy [Ha]    energy [eV]    outer radius [A]
    1    0       -10.038835      -273.1706       1.934409
    2    0        -0.502696       -13.6791       4.496620
    2    1        -0.191971        -5.2238       4.551928


  Species N                   :

  List of atomic basis orbitals and eigenvalues:
    n    l      energy [Ha]    energy [eV]    outer radius [A]
    1    0       -14.128000      -384.4424       1.637919
    2    0        -0.681077       -18.5330       4.463241
    2    1        -0.259788        -7.0692       4.518138


  Species O                   :

  List of atomic basis orbitals and eigenvalues:
    n    l      energy [Ha]    energy [eV]    outer radius [A]
    1    0       -18.898188      -514.2459       1.415765
    2    0        -0.878505       -23.9053       4.413171
    2    1        -0.331779        -9.0282       4.522403

  Assembling full basis from fixed parts.
  | Species H :   atomic orbital   1 s accepted.
  | Species H :    hydro orbital   2 s accepted.
  | Species H :    hydro orbital   2 p accepted.
  | Species C :   atomic orbital   1 s accepted.
  | Species C :    hydro orbital   2 s accepted.
  | Species C :   atomic orbital   2 s accepted.
  | Species C :   atomic orbital   2 p accepted.
  | Species C :    hydro orbital   2 p accepted.
  | Species C :    hydro orbital   3 d accepted.
  | Species N :   atomic orbital   1 s accepted.
  | Species N :    hydro orbital   3 s accepted.
  | Species N :   atomic orbital   2 s accepted.
  | Species N :   atomic orbital   2 p accepted.
  | Species N :    hydro orbital   2 p accepted.
  | Species N :    hydro orbital   3 d accepted.
  | Species O :   atomic orbital   1 s accepted.
  | Species O :    hydro orbital   3 s accepted.
  | Species O :   atomic orbital   2 s accepted.
  | Species O :   atomic orbital   2 p accepted.
  | Species O :    hydro orbital   2 p accepted.
  | Species O :    hydro orbital   3 d accepted.
 
  Basis size parameters after reduction:
  | Total number of radial functions:       21
  | Total number of basis functions :      119
 
  Per-task memory consumption for arrays in subroutine allocate_ext:
  |           5.250512MB.
  Testing on-site integration grid accuracy.
  |  Species  Function  <phi|h_atom|phi> (log., in eV)  <phi|h_atom|phi> (rad., in eV)
           1        1                 -6.4663192853                 -6.4651273558
           1        2                 13.7111246313                 13.7170609718
           1        3                 25.2673269279                 25.2674696378
           2        4               -273.1705927641               -273.1705631568
           2        5                -10.7109323383                -10.7107120029
           2        6                 17.4381822266                 17.4352413244
           2        7                 -5.2255326521                 -5.2270484734
           2        8                  8.6835629259                  8.6603288385
           2        9                 27.4952418996                 27.4953360207
           3       10               -384.4424306495               -384.4423701208
           3       11                 12.5842251816                 12.5842222903
           3       12                -15.7264628251                -15.7264433455
           3       13                 -7.0696854293                 -7.0701769954
           3       14                  8.8090390882                  8.7901077751
           3       15                 35.9586762123                 35.9588528632
           4       16               -514.2458688638               -514.2457643834
           4       17                 15.1795651126                 15.1795290741
           4       18                -21.5359799773                -21.5360846186
           4       19                 -9.0283069236                 -9.0284644067
           4       20                  8.3027758564                  8.2834874195
           4       21                 45.8339351984                 45.8338762259

  Preparing densities etc. for the partition functions (integrals / Hartree potential).

  Preparations completed.
  max(cpu_time)          :      0.166 s.
  Wall clock time (cpu1) :      0.166 s.
------------------------------------------------------------

------------------------------------------------------------
          Begin self-consistency loop: Initialization.

          Date     :  20200610, Time     :  062231.393
------------------------------------------------------------

  Initializing index lists of integration centers etc. from given atomic structure:
  | Number of centers in hartree potential         :        13
  | Number of centers in hartree multipole         :        13
  | Number of centers in electron density summation:        13
  | Number of centers in basis integrals           :        13
  | Number of centers in integrals                 :        13
  | Number of centers in hamiltonian               :        13
  * Using 20 tasks for Scalapack Eigenvalue solver.
  Detailed listing of tasks and assigned k-points:
  (for non-periodic systems, the "k-point" denotes an internal label only)
   Task     0 k-point     1 on r07c01.bullx
   Task     1 k-point     1 on r07c01.bullx
   Task     2 k-point     1 on r07c01.bullx
   Task     3 k-point     1 on r07c01.bullx
   Task     4 k-point     1 on r07c01.bullx
   Task     5 k-point     1 on r07c01.bullx
   Task     6 k-point     1 on r07c01.bullx
   Task     7 k-point     1 on r07c01.bullx
   Task     8 k-point     1 on r07c01.bullx
   Task     9 k-point     1 on r07c01.bullx
   Task    10 k-point     1 on r07c01.bullx
   Task    11 k-point     1 on r07c01.bullx
   Task    12 k-point     1 on r07c01.bullx
   Task    13 k-point     1 on r07c01.bullx
   Task    14 k-point     1 on r07c01.bullx
   Task    15 k-point     1 on r07c01.bullx
   Task    16 k-point     1 on r07c01.bullx
   Task    17 k-point     1 on r07c01.bullx
   Task    18 k-point     1 on r07c01.bullx
   Task    19 k-point     1 on r07c01.bullx
  Tasks:    20 split into      5 X      4 BLACS grid
  Calculating block size based on n_basis =          119  max_nprow =            5  max_npcol =            4
  ScaLAPACK block size set to:           16
  Allocating        0.008 MB for ovlp
  Allocating        0.008 MB for ham
  Allocating        0.008 MB for eigenvec
  Required Scalapack workspace - INTEGER:            1  REAL:             1
  Partitioning the integration grid into batches with parallel hashing+maxmin method.
  | Number of batches:      854
  | Maximal batch size:     169
  | Minimal batch size:      49
  | Average batch size:      81.553
  | Standard deviation of batch sizes:      18.577

  Integration load balanced across    20 MPI tasks.
  Work distribution over tasks is as follows:
  Task     0 has       3462 integration points.
  Task     1 has       3484 integration points.
  Task     2 has       3454 integration points.
  Task     3 has       3455 integration points.
  Task     4 has       3536 integration points.
  Task     5 has       3445 integration points.
  Task     6 has       3468 integration points.
  Task     7 has       3469 integration points.
  Task     8 has       3481 integration points.
  Task     9 has       3539 integration points.
  Task    10 has       3498 integration points.
  Task    11 has       3607 integration points.
  Task    12 has       3483 integration points.
  Task    13 has       3471 integration points.
  Task    14 has       3443 integration points.
  Task    15 has       3445 integration points.
  Task    16 has       3443 integration points.
  Task    17 has       3463 integration points.
  Task    18 has       3542 integration points.
  Task    19 has       3458 integration points.
  Initializing partition tables, free-atom densities, potentials, etc. across the integration grid (initialize_grid_storage).
  | initialize_grid_storage: Actual outermost partition radius vs. multipole_radius_free
  | (-- VB: in principle, multipole_radius_free should be larger, hence this output)
  | Species        1: Confinement radius =              4.999999999999999 AA, multipole_radius_free =              5.054417573612229 AA.
  | Species        1: outer_partition_radius set to              5.054417573612229 AA .
  | Species        2: Confinement radius =              4.999999999999999 AA, multipole_radius_free =              5.019602836301480 AA.
  | Species        2: outer_partition_radius set to              5.019602836301480 AA .
  | Species        3: Confinement radius =              4.999999999999999 AA, multipole_radius_free =              5.043624274424571 AA.
  | Species        3: outer_partition_radius set to              5.043624274424571 AA .
  | Species        4: Confinement radius =              4.999999999999999 AA, multipole_radius_free =              5.048384829883283 AA.
  | Species        4: outer_partition_radius set to              5.048384829883283 AA .
  | Original list of interatomic distances with          13 x         13 entries is created.
  | Net number of integration points:    69646
  | of which are non-zero points    :    59404
  Renormalizing the initial density to the exact electron count on the 3D integration grid.
  | Initial density: Formal number of electrons (from input files) :      48.0000000000
  | Integrated number of electrons on 3D grid     :      47.9999122134
  | Charge integration error                      :      -0.0000877866
  | Normalization factor for density and gradient :       1.0000018289
  Obtaining max. number of non-zero basis functions in each batch (get_n_compute_maxes).
  | Maximal number of non-zero basis functions:      118 in task     0
  | Maximal number of non-zero basis functions:      118 in task     1
  | Maximal number of non-zero basis functions:      118 in task     2
  | Maximal number of non-zero basis functions:      117 in task     3
  | Maximal number of non-zero basis functions:      117 in task     4
  | Maximal number of non-zero basis functions:      118 in task     5
  | Maximal number of non-zero basis functions:      117 in task     6
  | Maximal number of non-zero basis functions:      117 in task     7
  | Maximal number of non-zero basis functions:      117 in task     8
  | Maximal number of non-zero basis functions:      118 in task     9
  | Maximal number of non-zero basis functions:      118 in task    10
  | Maximal number of non-zero basis functions:      118 in task    11
  | Maximal number of non-zero basis functions:      118 in task    12
  | Maximal number of non-zero basis functions:      118 in task    13
  | Maximal number of non-zero basis functions:      119 in task    14
  | Maximal number of non-zero basis functions:      117 in task    15
  | Maximal number of non-zero basis functions:      117 in task    16
  | Maximal number of non-zero basis functions:      118 in task    17
  | Maximal number of non-zero basis functions:      118 in task    18
  | Maximal number of non-zero basis functions:      119 in task    19
  Selecting the method for density update.
  Loop over occupied states selected for charge density update.
  Allocating        0.050 MB for KS_eigenvector
  Integrating Hamiltonian matrix: batch-based integration.
  Time summed over all CPUs for integration: real work        0.511 s, elapsed        0.538 s
  Integrating overlap matrix.
  Time summed over all CPUs for integration: real work        0.215 s, elapsed        0.225 s
  Deallocating overlap matrix.

  Updating Kohn-Sham eigenvalues and eigenvectors using ELSI and the ELPA eigensolver.
  ELPA settings:
  | ELPA solver          1
  | Time full => band           :     0.001 s
  | Time band => tridiagonal    :     0.001 s
  | Time solve tridiagonal      :     0.001 s
  Overlap matrix is nonsingular
  | Lowest eigenvalue of overlap  :  0.44E-02
  | Highest eigenvalue of overlap :  0.63E+01
  Finished singularity check of overlap matrix
  | Time :     0.003 s
  Finished Cholesky decomposition
  | Time :     0.001 s
  Finished transformation to standard eigenproblem
  | Time :     0.001 s
  Starting ELPA eigensolver
  | Time full => tridiagonal    :     0.002 s
  | Time solve tridiagonal      :     0.000 s
  | Time ev tridiagonal => full :     0.000 s
  Finished solving standard eigenproblem
  | Time :     0.003 s
  Finished back-transformation of eigenvectors
  | Time :     0.000 s

  Obtaining occupation numbers and chemical potential using ELSI.
  | Chemical potential (Fermi level):   -10.25081606eV
  Writing Kohn-Sham eigenvalues.

  State    Occupation    Eigenvalue [Ha]    Eigenvalue [eV]
      1       2.00000         -19.007468         -517.21951
      2       2.00000         -18.977199         -516.39585
      3       2.00000         -14.246591         -387.66948
      4       2.00000         -10.166922         -276.65603
      5       2.00000         -10.142046         -275.97913
      6       2.00000         -10.131890         -275.70275
      7       2.00000          -1.181116          -32.13979
      8       2.00000          -1.101350          -29.96925
      9       2.00000          -0.993260          -27.02797
     10       2.00000          -0.859378          -23.38487
     11       2.00000          -0.756912          -20.59661
     12       2.00000          -0.679859          -18.49990
     13       2.00000          -0.623439          -16.96464
     14       2.00000          -0.619686          -16.86252
     15       2.00000          -0.590012          -16.05504
     16       2.00000          -0.563476          -15.33295
     17       2.00000          -0.546269          -14.86475
     18       2.00000          -0.527221          -14.34643
     19       2.00000          -0.518962          -14.12167
     20       2.00000          -0.489452          -13.31868
     21       2.00000          -0.479593          -13.05038
     22       2.00000          -0.429857          -11.69699
     23       2.00000          -0.419851          -11.42472
     24       2.00000          -0.380289          -10.34819
     25       0.00000          -0.149476           -4.06744
     26       0.00000          -0.067035           -1.82412
     27       0.00000          -0.030955           -0.84234
     28       0.00000          -0.019607           -0.53354
     29       0.00000          -0.002635           -0.07169
     30       0.00000           0.003799            0.10336
     31       0.00000           0.015340            0.41742
     32       0.00000           0.030590            0.83239
     33       0.00000           0.058348            1.58773
     34       0.00000           0.082005            2.23148
     35       0.00000           0.098370            2.67679
     36       0.00000           0.126028            3.42939
     37       0.00000           0.160459            4.36632
     38       0.00000           0.200462            5.45484
     39       0.00000           0.210964            5.74062
     40       0.00000           0.227454            6.18935
     41       0.00000           0.248127            6.75187
     42       0.00000           0.263652            7.17433
     43       0.00000           0.282645            7.69115
     44       0.00000           0.304153            8.27644
     45       0.00000           0.336006            9.14318
     46       0.00000           0.370894           10.09255
     47       0.00000           0.383426           10.43356
     48       0.00000           0.419066           11.40338
     49       0.00000           0.472547           12.85866
     50       0.00000           0.476672           12.97090
     51       0.00000           0.508687           13.84207
     52       0.00000           0.517344           14.07765
     53       0.00000           0.539556           14.68207

  Highest occupied state (VBM) at    -10.34819325 eV
  | Occupation number:      2.00000000

  Lowest unoccupied state (CBM) at    -4.06743829 eV
  | Occupation number:      0.00000000

  Overall HOMO-LUMO gap:      6.28075496 eV.
  Calculating total energy contributions from superposition of free atom densities.

  Total energy components:
  | Sum of eigenvalues            :        -188.86419417 Ha       -5139.25620590 eV
  | XC energy correction          :         -41.79863923 Ha       -1137.39884372 eV
  | XC potential correction       :          53.73371857 Ha        1462.16887653 eV
  | Free-atom electrostatic energy:        -146.83728853 Ha       -3995.64591702 eV
  | Hartree energy correction     :           0.00000000 Ha           0.00000000 eV
  | vdW energy correction         :           0.00000000 Ha           0.00000000 eV
  | Entropy correction            :          -0.00000000 Ha          -0.00000000 eV
  | ---------------------------
  | Total energy                  :        -323.76640336 Ha       -8810.13209011 eV
  | Total energy, T -> 0          :        -323.76640336 Ha       -8810.13209011 eV  <-- do not rely on this value for anything but (periodic) metals
  | Electronic free energy        :        -323.76640336 Ha       -8810.13209011 eV

  Derived energy quantities:
  | Kinetic energy                :         320.50977423 Ha        8721.51470254 eV
  | Electrostatic energy          :        -602.47753836 Ha      -16394.24794893 eV
  | Energy correction for multipole
  | error in Hartree potential    :           0.00000000 Ha           0.00000000 eV
  | Sum of eigenvalues per atom                           :        -395.32740045 eV
  | Total energy (T->0) per atom                          :        -677.70246847 eV  <-- do not rely on this value for anything but (periodic) metals
  | Electronic free energy per atom                       :        -677.70246847 eV
  Initialize hartree_potential_storage
  Max. number of atoms included in rho_multipole:           13

  End scf initialization - timings             :  max(cpu_time)    wall_clock(cpu1)
  | Time for scf. initialization               :        0.094 s           0.094 s
  | Boundary condition initialization          :        0.000 s           0.000 s
  | Integration                                :        0.039 s           0.039 s
  | Solution of K.-S. eqns.                    :        0.009 s           0.010 s
  | Grid partitioning                          :        0.022 s           0.022 s
  | Preloading free-atom quantities on grid    :        0.003 s           0.003 s
  | Free-atom superposition energy             :        0.005 s           0.004 s
  | Total energy evaluation                    :        0.000 s           0.000 s

  Partial memory accounting:
  | Current value for overall tracked memory usage on task 0  :           0.133 MB
  | Peak value for overall tracked memory usage on task 0     :           0.783 MB after allocating wave
  | Largest tracked array allocation on task 0 so far         :           0.160 MB  when allocating H_times_psi
  Note:  These values currently only include a subset of arrays which are explicitly tracked.
  The "true" memory usage will be greater.
------------------------------------------------------------

------------------------------------------------------------
          Begin self-consistency iteration #    1

  Date     :  20200610, Time     :  062231.487
------------------------------------------------------------
  Evaluating new KS density.
  Integration grid: deviation in total charge (<rho> - N_e) =   2.842171E-14
  Pulay mixing of updated and previous charge densities.

  Evaluating partitioned Hartree potential by multipole expansion.
  | Analytical far-field extrapolation by fixed multipoles:
  | Hartree multipole sum: apparent total charge =  -0.191739E-03
  Summing up the Hartree potential.
  Time summed over all CPUs for potential: real work        0.420 s, elapsed        0.438 s
  | RMS charge density error from multipole expansion :   0.596989E-02

  Integrating Hamiltonian matrix: batch-based integration.
  Time summed over all CPUs for integration: real work        0.503 s, elapsed        0.528 s

  Updating Kohn-Sham eigenvalues and eigenvectors using ELSI and the ELPA eigensolver.
  ELPA settings:
  | ELPA solver          1
  Finished transformation to standard eigenproblem
  | Time :     0.000 s
  Starting ELPA eigensolver
  | Time full => tridiagonal    :     0.002 s
  | Time solve tridiagonal      :     0.000 s
  | Time ev tridiagonal => full :     0.000 s
  Finished solving standard eigenproblem
  | Time :     0.003 s
  Finished back-transformation of eigenvectors
  | Time :     0.000 s

  Obtaining occupation numbers and chemical potential using ELSI.
  | Chemical potential (Fermi level):    -5.00309862eV
  Writing Kohn-Sham eigenvalues.

  State    Occupation    Eigenvalue [Ha]    Eigenvalue [eV]
      1       2.00000         -18.905243         -514.43784
      2       2.00000         -18.827073         -512.31071
      3       2.00000         -14.108112         -383.90126
      4       2.00000         -10.110006         -275.10726
      5       2.00000         -10.068703         -273.98336
      6       2.00000         -10.032355         -272.99427
      7       2.00000          -1.129469          -30.73442
      8       2.00000          -1.032594          -28.09832
      9       2.00000          -0.930564          -25.32194
     10       2.00000          -0.795974          -21.65955
     11       2.00000          -0.706203          -19.21676
     12       2.00000          -0.633142          -17.22868
     13       2.00000          -0.574658          -15.63723
     14       2.00000          -0.563441          -15.33201
     15       2.00000          -0.531072          -14.45120
     16       2.00000          -0.502396          -13.67089
     17       2.00000          -0.481109          -13.09163
     18       2.00000          -0.473077          -12.87309
     19       2.00000          -0.456776          -12.42951
     20       2.00000          -0.433839          -11.80536
     21       2.00000          -0.424341          -11.54690
     22       2.00000          -0.363339           -9.88696
     23       2.00000          -0.347002           -9.44240
     24       2.00000          -0.310412           -8.44675
     25       0.00000          -0.108708           -2.95811
     26       0.00000          -0.044112           -1.20034
     27       0.00000           0.001429            0.03889
     28       0.00000           0.009961            0.27106
     29       0.00000           0.028625            0.77891
     30       0.00000           0.036487            0.99286
     31       0.00000           0.049367            1.34335
     32       0.00000           0.066333            1.80501
     33       0.00000           0.098097            2.66937
     34       0.00000           0.122605            3.33626
     35       0.00000           0.133435            3.63095
     36       0.00000           0.157333            4.28124
     37       0.00000           0.189988            5.16983
     38       0.00000           0.229210            6.23713
     39       0.00000           0.241572            6.57351
     40       0.00000           0.259168            7.05232
     41       0.00000           0.278708            7.58402
     42       0.00000           0.299424            8.14775
     43       0.00000           0.321468            8.74758
     44       0.00000           0.341718            9.29861
     45       0.00000           0.376694           10.25036
     46       0.00000           0.410356           11.16636
     47       0.00000           0.422078           11.48533
     48       0.00000           0.456896           12.43278
     49       0.00000           0.502480           13.67319
     50       0.00000           0.509138           13.85436
     51       0.00000           0.542991           14.77553
     52       0.00000           0.551587           15.00944
     53       0.00000           0.577171           15.70563

  Highest occupied state (VBM) at     -8.44675267 eV
  | Occupation number:      2.00000000

  Lowest unoccupied state (CBM) at    -2.95810798 eV
  | Occupation number:      0.00000000

  Overall HOMO-LUMO gap:      5.48864470 eV.

  Total energy components:
  | Sum of eigenvalues            :        -185.48180079 Ha       -5047.21659893 eV
  | XC energy correction          :         -42.12362794 Ha       -1146.24223637 eV
  | XC potential correction       :          54.15635208 Ha        1473.66931951 eV
  | Free-atom electrostatic energy:        -146.83728853 Ha       -3995.64591702 eV
  | Hartree energy correction     :          -3.30163638 Ha         -89.84209710 eV
  | vdW energy correction         :           0.00000000 Ha           0.00000000 eV
  | Entropy correction            :           0.00000000 Ha           0.00000000 eV
  | ---------------------------
  | Total energy                  :        -323.58800156 Ha       -8805.27752992 eV
  | Total energy, T -> 0          :        -323.58800156 Ha       -8805.27752992 eV  <-- do not rely on this value for anything but (periodic) metals
  | Electronic free energy        :        -323.58800156 Ha       -8805.27752992 eV

  Derived energy quantities:
  | Kinetic energy                :         322.28177434 Ha        8769.73327904 eV
  | Electrostatic energy          :        -603.74614796 Ha      -16428.76857259 eV
  | Energy correction for multipole
  | error in Hartree potential    :           0.01188114 Ha           0.32330221 eV
  | Sum of eigenvalues per atom                           :        -388.24743069 eV
  | Total energy (T->0) per atom                          :        -677.32904076 eV  <-- do not rely on this value for anything but (periodic) metals
  | Electronic free energy per atom                       :        -677.32904076 eV

  Self-consistency convergence accuracy:
  | Change of charge density      :  0.5775E+00
  | Change of sum of eigenvalues  :  0.9204E+02 eV
  | Change of total energy        :  0.4855E+01 eV

  End self-consistency iteration #     1       :  max(cpu_time)    wall_clock(cpu1)
  | Time for this iteration                    :        0.077 s           0.077 s
  | Charge density update                      :        0.022 s           0.022 s
  | Density mixing                             :        0.000 s           0.000 s
  | Hartree multipole update                   :        0.001 s           0.001 s
  | Hartree multipole summation                :        0.022 s           0.023 s
  | Integration                                :        0.027 s           0.026 s
  | Solution of K.-S. eqns.                    :        0.004 s           0.004 s
  | Total energy evaluation                    :        0.000 s           0.000 s

  Partial memory accounting:
  | Current value for overall tracked memory usage on task 0  :           0.133 MB
  | Peak value for overall tracked memory usage on task 0     :           0.783 MB after allocating wave
  | Largest tracked array allocation on task 0 so far         :           0.479 MB  when allocating gradient_basis_wave
  Note:  These values currently only include a subset of arrays which are explicitly tracked.
  The "true" memory usage will be greater.
------------------------------------------------------------

------------------------------------------------------------
          Begin self-consistency iteration #    2

  Date     :  20200610, Time     :  062231.568
------------------------------------------------------------
  Evaluating new KS density.
  Integration grid: deviation in total charge (<rho> - N_e) =  -2.131628E-14
  Pulay mixing of updated and previous charge densities.

  Evaluating partitioned Hartree potential by multipole expansion.
  | Analytical far-field extrapolation by fixed multipoles:
  | Hartree multipole sum: apparent total charge =  -0.323928E-03
  Summing up the Hartree potential.
  Time summed over all CPUs for potential: real work        0.419 s, elapsed        0.436 s
  | RMS charge density error from multipole expansion :   0.141308E-01

  Integrating Hamiltonian matrix: batch-based integration.
  Time summed over all CPUs for integration: real work        0.503 s, elapsed        0.529 s

  Updating Kohn-Sham eigenvalues and eigenvectors using ELSI and the ELPA eigensolver.
  ELPA settings:
  | ELPA solver          1
  Finished transformation to standard eigenproblem
  | Time :     0.000 s
  Starting ELPA eigensolver
  | Time full => tridiagonal    :     0.002 s
  | Time solve tridiagonal      :     0.000 s
  | Time ev tridiagonal => full :     0.000 s
  Finished solving standard eigenproblem
  | Time :     0.003 s
  Finished back-transformation of eigenvectors
  | Time :     0.000 s

  Obtaining occupation numbers and chemical potential using ELSI.
  | Chemical potential (Fermi level):    -3.68898380eV
  Highest occupied state (VBM) at     -6.55217264 eV
  | Occupation number:      2.00000000

  Lowest unoccupied state (CBM) at    -1.62323496 eV
  | Occupation number:      0.00000000

  Overall HOMO-LUMO gap:      4.92893768 eV.

  Checking to see if s.c.f. parameters should be adjusted.

  Total energy components:
  | Sum of eigenvalues            :        -181.94651366 Ha       -4951.01654173 eV
  | XC energy correction          :         -42.47673511 Ha       -1155.85077144 eV
  | XC potential correction       :          54.61396145 Ha        1486.12150402 eV
  | Free-atom electrostatic energy:        -146.83728853 Ha       -3995.64591702 eV
  | Hartree energy correction     :          -6.86481155 Ha        -186.80102661 eV
  | vdW energy correction         :           0.00000000 Ha           0.00000000 eV
  | Entropy correction            :           0.00000000 Ha           0.00000000 eV
  | ---------------------------
  | Total energy                  :        -323.51138740 Ha       -8803.19275279 eV
  | Total energy, T -> 0          :        -323.51138740 Ha       -8803.19275279 eV  <-- do not rely on this value for anything but (periodic) metals
  | Electronic free energy        :        -323.51138740 Ha       -8803.19275279 eV

  Derived energy quantities:
  | Kinetic energy                :         323.57875913 Ha        8805.02603076 eV
  | Electrostatic energy          :        -604.61341142 Ha      -16452.36801211 eV
  | Energy correction for multipole
  | error in Hartree potential    :           0.02599453 Ha           0.70734716 eV
  | Sum of eigenvalues per atom                           :        -380.84742629 eV
  | Total energy (T->0) per atom                          :        -677.16867329 eV  <-- do not rely on this value for anything but (periodic) metals
  | Electronic free energy per atom                       :        -677.16867329 eV

  Self-consistency convergence accuracy:
  | Change of charge density      :  0.3608E+00
  | Change of sum of eigenvalues  :  0.9620E+02 eV
  | Change of total energy        :  0.2085E+01 eV

  End self-consistency iteration #     2       :  max(cpu_time)    wall_clock(cpu1)
  | Time for this iteration                    :        0.076 s           0.075 s
  | Charge density update                      :        0.021 s           0.021 s
  | Density mixing                             :        0.001 s           0.000 s
  | Hartree multipole update                   :        0.001 s           0.001 s
  | Hartree multipole summation                :        0.022 s           0.023 s
  | Integration                                :        0.027 s           0.026 s
  | Solution of K.-S. eqns.                    :        0.004 s           0.004 s
  | Total energy evaluation                    :        0.000 s           0.000 s

  Partial memory accounting:
  | Current value for overall tracked memory usage on task 0  :           0.134 MB
  | Peak value for overall tracked memory usage on task 0     :           0.783 MB after allocating wave
  | Largest tracked array allocation on task 0 so far         :           0.479 MB  when allocating gradient_basis_wave
  Note:  These values currently only include a subset of arrays which are explicitly tracked.
  The "true" memory usage will be greater.
------------------------------------------------------------

------------------------------------------------------------
          Begin self-consistency iteration #    3

  Date     :  20200610, Time     :  062231.648
------------------------------------------------------------
  Evaluating new KS density.
  Integration grid: deviation in total charge (<rho> - N_e) =   7.105427E-15
  Pulay mixing of updated and previous charge densities.

  Evaluating partitioned Hartree potential by multipole expansion.
  | Analytical far-field extrapolation by fixed multipoles:
  | Hartree multipole sum: apparent total charge =  -0.420152E-03
  Summing up the Hartree potential.
  Time summed over all CPUs for potential: real work        0.419 s, elapsed        0.437 s
  | RMS charge density error from multipole expansion :   0.223626E-01

  Integrating Hamiltonian matrix: batch-based integration.
  Time summed over all CPUs for integration: real work        0.503 s, elapsed        0.530 s

  Updating Kohn-Sham eigenvalues and eigenvectors using ELSI and the ELPA eigensolver.
  ELPA settings:
  | ELPA solver          1
  Finished transformation to standard eigenproblem
  | Time :     0.000 s
  Starting ELPA eigensolver
  | Time full => tridiagonal    :     0.002 s
  | Time solve tridiagonal      :     0.000 s
  | Time ev tridiagonal => full :     0.000 s
  Finished solving standard eigenproblem
  | Time :     0.003 s
  Finished back-transformation of eigenvectors
  | Time :     0.000 s

  Obtaining occupation numbers and chemical potential using ELSI.
  | Chemical potential (Fermi level):    -2.96444581eV
  Highest occupied state (VBM) at     -5.91504770 eV
  | Occupation number:      2.00000000

  Lowest unoccupied state (CBM) at    -0.94126436 eV
  | Occupation number:      0.00000000

  Overall HOMO-LUMO gap:      4.97378334 eV.

  Total energy components:
  | Sum of eigenvalues            :        -180.59943521 Ha       -4914.36067190 eV
  | XC energy correction          :         -42.63095841 Ha       -1160.04740088 eV
  | XC potential correction       :          54.81056179 Ha        1491.47127156 eV
  | Free-atom electrostatic energy:        -146.83728853 Ha       -3995.64591702 eV
  | Hartree energy correction     :          -8.24172364 Ha        -224.26871089 eV
  | vdW energy correction         :           0.00000000 Ha           0.00000000 eV
  | Entropy correction            :           0.00000000 Ha           0.00000000 eV
  | ---------------------------
  | Total energy                  :        -323.49884399 Ha       -8802.85142913 eV
  | Total energy, T -> 0          :        -323.49884399 Ha       -8802.85142913 eV  <-- do not rely on this value for anything but (periodic) metals
  | Electronic free energy        :        -323.49884399 Ha       -8802.85142913 eV

  Derived energy quantities:
  | Kinetic energy                :         323.18927096 Ha        8794.42751846 eV
  | Electrostatic energy          :        -604.05715654 Ha      -16437.23154671 eV
  | Energy correction for multipole
  | error in Hartree potential    :           0.03677139 Ha           1.00060030 eV
  | Sum of eigenvalues per atom                           :        -378.02774399 eV
  | Total energy (T->0) per atom                          :        -677.14241763 eV  <-- do not rely on this value for anything but (periodic) metals
  | Electronic free energy per atom                       :        -677.14241763 eV

  Self-consistency convergence accuracy:
  | Change of charge density      :  0.2030E+00
  | Change of sum of eigenvalues  :  0.3666E+02 eV
  | Change of total energy        :  0.3413E+00 eV

  End self-consistency iteration #     3       :  max(cpu_time)    wall_clock(cpu1)
  | Time for this iteration                    :        0.076 s           0.074 s
  | Charge density update                      :        0.021 s           0.020 s
  | Density mixing                             :        0.001 s           0.000 s
  | Hartree multipole update                   :        0.001 s           0.001 s
  | Hartree multipole summation                :        0.022 s           0.023 s
  | Integration                                :        0.027 s           0.027 s
  | Solution of K.-S. eqns.                    :        0.003 s           0.003 s
  | Total energy evaluation                    :        0.000 s           0.000 s

  Partial memory accounting:
  | Current value for overall tracked memory usage on task 0  :           0.134 MB
  | Peak value for overall tracked memory usage on task 0     :           0.783 MB after allocating wave
  | Largest tracked array allocation on task 0 so far         :           0.479 MB  when allocating gradient_basis_wave
  Note:  These values currently only include a subset of arrays which are explicitly tracked.
  The "true" memory usage will be greater.
------------------------------------------------------------

------------------------------------------------------------
          Begin self-consistency iteration #    4

  Date     :  20200610, Time     :  062231.727
------------------------------------------------------------
  Evaluating new KS density.
  Integration grid: deviation in total charge (<rho> - N_e) =  -1.421085E-14
  Pulay mixing of updated and previous charge densities.

  Evaluating partitioned Hartree potential by multipole expansion.
  | Analytical far-field extrapolation by fixed multipoles:
  | Hartree multipole sum: apparent total charge =  -0.452326E-03
  Summing up the Hartree potential.
  Time summed over all CPUs for potential: real work        0.412 s, elapsed        0.427 s
  | RMS charge density error from multipole expansion :   0.259339E-01

  Integrating Hamiltonian matrix: batch-based integration.
  Time summed over all CPUs for integration: real work        0.503 s, elapsed        0.529 s

  Updating Kohn-Sham eigenvalues and eigenvectors using ELSI and the ELPA eigensolver.
  ELPA settings:
  | ELPA solver          1
  Finished transformation to standard eigenproblem
  | Time :     0.000 s
  Starting ELPA eigensolver
  | Time full => tridiagonal    :     0.002 s
  | Time solve tridiagonal      :     0.000 s
  | Time ev tridiagonal => full :     0.000 s
  Finished solving standard eigenproblem
  | Time :     0.003 s
  Finished back-transformation of eigenvectors
  | Time :     0.000 s

  Obtaining occupation numbers and chemical potential using ELSI.
  | Chemical potential (Fermi level):    -2.86291550eV
  Highest occupied state (VBM) at     -5.64650029 eV
  | Occupation number:      2.00000000

  Lowest unoccupied state (CBM) at    -0.85298486 eV
  | Occupation number:      0.00000000

  Overall HOMO-LUMO gap:      4.79351543 eV.

  Total energy components:
  | Sum of eigenvalues            :        -180.48158770 Ha       -4911.15387819 eV
  | XC energy correction          :         -42.66789062 Ha       -1161.05237758 eV
  | XC potential correction       :          54.85686360 Ha        1492.73120800 eV
  | Free-atom electrostatic energy:        -146.83728853 Ha       -3995.64591702 eV
  | Hartree energy correction     :          -8.36794693 Ha        -227.70342130 eV
  | vdW energy correction         :           0.00000000 Ha           0.00000000 eV
  | Entropy correction            :           0.00000000 Ha           0.00000000 eV
  | ---------------------------
  | Total energy                  :        -323.49785018 Ha       -8802.82438609 eV
  | Total energy, T -> 0          :        -323.49785018 Ha       -8802.82438609 eV  <-- do not rely on this value for anything but (periodic) metals
  | Electronic free energy        :        -323.49785018 Ha       -8802.82438609 eV

  Derived energy quantities:
  | Kinetic energy                :         322.79038037 Ha        8783.57315306 eV
  | Electrostatic energy          :        -603.62033992 Ha      -16425.34516157 eV
  | Energy correction for multipole
  | error in Hartree potential    :           0.04090659 Ha           1.11312507 eV
  | Sum of eigenvalues per atom                           :        -377.78106755 eV
  | Total energy (T->0) per atom                          :        -677.14033739 eV  <-- do not rely on this value for anything but (periodic) metals
  | Electronic free energy per atom                       :        -677.14033739 eV

  Self-consistency convergence accuracy:
  | Change of charge density      :  0.6649E-01
  | Change of sum of eigenvalues  :  0.3207E+01 eV
  | Change of total energy        :  0.2704E-01 eV

  End self-consistency iteration #     4       :  max(cpu_time)    wall_clock(cpu1)
  | Time for this iteration                    :        0.075 s           0.074 s
  | Charge density update                      :        0.021 s           0.020 s
  | Density mixing                             :        0.001 s           0.000 s
  | Hartree multipole update                   :        0.001 s           0.002 s
  | Hartree multipole summation                :        0.022 s           0.021 s
  | Integration                                :        0.027 s           0.027 s
  | Solution of K.-S. eqns.                    :        0.004 s           0.004 s
  | Total energy evaluation                    :        0.000 s           0.000 s

  Partial memory accounting:
  | Current value for overall tracked memory usage on task 0  :           0.134 MB
  | Peak value for overall tracked memory usage on task 0     :           0.783 MB after allocating wave
  | Largest tracked array allocation on task 0 so far         :           0.479 MB  when allocating gradient_basis_wave
  Note:  These values currently only include a subset of arrays which are explicitly tracked.
  The "true" memory usage will be greater.
------------------------------------------------------------

------------------------------------------------------------
          Begin self-consistency iteration #    5

  Date     :  20200610, Time     :  062231.805
------------------------------------------------------------
  Evaluating new KS density.
  Integration grid: deviation in total charge (<rho> - N_e) =   3.552714E-14
  Pulay mixing of updated and previous charge densities.

  Evaluating partitioned Hartree potential by multipole expansion.
  | Analytical far-field extrapolation by fixed multipoles:
  | Hartree multipole sum: apparent total charge =  -0.447439E-03
  Summing up the Hartree potential.
  Time summed over all CPUs for potential: real work        0.412 s, elapsed        0.428 s
  | RMS charge density error from multipole expansion :   0.256766E-01

  Integrating Hamiltonian matrix: batch-based integration.
  Time summed over all CPUs for integration: real work        0.503 s, elapsed        0.528 s

  Updating Kohn-Sham eigenvalues and eigenvectors using ELSI and the ELPA eigensolver.
  ELPA settings:
  | ELPA solver          1
  Finished transformation to standard eigenproblem
  | Time :     0.000 s
  Starting ELPA eigensolver
  | Time full => tridiagonal    :     0.002 s
  | Time solve tridiagonal      :     0.000 s
  | Time ev tridiagonal => full :     0.000 s
  Finished solving standard eigenproblem
  | Time :     0.003 s
  Finished back-transformation of eigenvectors
  | Time :     0.000 s

  Obtaining occupation numbers and chemical potential using ELSI.
  | Chemical potential (Fermi level):    -2.91319403eV
  Highest occupied state (VBM) at     -5.76312053 eV
  | Occupation number:      2.00000000

  Lowest unoccupied state (CBM) at    -0.91255990 eV
  | Occupation number:      0.00000000

  Overall HOMO-LUMO gap:      4.85056063 eV.

  Total energy components:
  | Sum of eigenvalues            :        -180.62751859 Ha       -4915.12485952 eV
  | XC energy correction          :         -42.64907136 Ha       -1160.54027924 eV
  | XC potential correction       :          54.83246800 Ha        1492.06736984 eV
  | Free-atom electrostatic energy:        -146.83728853 Ha       -3995.64591702 eV
  | Hartree energy correction     :          -8.21611183 Ha        -223.57177800 eV
  | vdW energy correction         :           0.00000000 Ha           0.00000000 eV
  | Entropy correction            :           0.00000000 Ha           0.00000000 eV
  | ---------------------------
  | Total energy                  :        -323.49752229 Ha       -8802.81546395 eV
  | Total energy, T -> 0          :        -323.49752229 Ha       -8802.81546395 eV  <-- do not rely on this value for anything but (periodic) metals
  | Electronic free energy        :        -323.49752229 Ha       -8802.81546395 eV

  Derived energy quantities:
  | Kinetic energy                :         322.71359819 Ha        8781.48380377 eV
  | Electrostatic energy          :        -603.56204913 Ha      -16423.75898848 eV
  | Energy correction for multipole
  | error in Hartree potential    :           0.04033614 Ha           1.09760229 eV
  | Sum of eigenvalues per atom                           :        -378.08652766 eV
  | Total energy (T->0) per atom                          :        -677.13965107 eV  <-- do not rely on this value for anything but (periodic) metals
  | Electronic free energy per atom                       :        -677.13965107 eV

  Self-consistency convergence accuracy:
  | Change of charge density      :  0.2370E-01
  | Change of sum of eigenvalues  : -0.3971E+01 eV
  | Change of total energy        :  0.8922E-02 eV

  End self-consistency iteration #     5       :  max(cpu_time)    wall_clock(cpu1)
  | Time for this iteration                    :        0.075 s           0.074 s
  | Charge density update                      :        0.021 s           0.020 s
  | Density mixing                             :        0.001 s           0.001 s
  | Hartree multipole update                   :        0.001 s           0.001 s
  | Hartree multipole summation                :        0.022 s           0.022 s
  | Integration                                :        0.027 s           0.027 s
  | Solution of K.-S. eqns.                    :        0.004 s           0.003 s
  | Total energy evaluation                    :        0.000 s           0.000 s

  Partial memory accounting:
  | Current value for overall tracked memory usage on task 0  :           0.134 MB
  | Peak value for overall tracked memory usage on task 0     :           0.783 MB after allocating wave
  | Largest tracked array allocation on task 0 so far         :           0.479 MB  when allocating gradient_basis_wave
  Note:  These values currently only include a subset of arrays which are explicitly tracked.
  The "true" memory usage will be greater.
------------------------------------------------------------

------------------------------------------------------------
          Begin self-consistency iteration #    6

  Date     :  20200610, Time     :  062231.884
------------------------------------------------------------
  Evaluating new KS density.
  Integration grid: deviation in total charge (<rho> - N_e) =   7.105427E-15
  Pulay mixing of updated and previous charge densities.

  Evaluating partitioned Hartree potential by multipole expansion.
  | Analytical far-field extrapolation by fixed multipoles:
[...]
  |   Hirshfeld dipole moment :      0.06197659
  |   Hirshfeld second moments:      0.01980286      -0.00709006       0.01230754
  |                                 -0.00709006      -0.03537776       0.00085985
  |                                  0.01230754       0.00085985      -0.02252867
  ----------------------------------------------------------------------
  | Atom    12: O
  |   Hirshfeld charge        :     -0.14214589
  |   Free atom volume        :     23.61338643
  |   Hirshfeld volume        :     21.19785982
  |   Hirshfeld dipole vector :      0.00559731       0.03836095      -0.00908674
  |   Hirshfeld dipole moment :      0.03981785
  |   Hirshfeld second moments:      0.05460126      -0.00214770      -0.01202413
  |                                 -0.00214770       0.02523049       0.01419035
  |                                 -0.01202413       0.01419035       0.07657324
  ----------------------------------------------------------------------
  | Atom    13: H
  |   Hirshfeld charge        :      0.14202190
  |   Free atom volume        :      9.95071624
  |   Hirshfeld volume        :      6.96423743
  |   Hirshfeld dipole vector :      0.05004152       0.00277044      -0.08188706
  |   Hirshfeld dipole moment :      0.09600688
  |   Hirshfeld second moments:      0.10367057       0.00589354      -0.01170170
  |                                  0.00589354       0.07583285       0.02465325
  |                                 -0.01170170       0.02465325       0.09197351
  ----------------------------------------------------------------------


  Total energy components:
  | Sum of eigenvalues            :        -180.67462456 Ha       -4916.40667840 eV
  | XC energy correction          :         -42.63942042 Ha       -1160.27766392 eV
  | XC potential correction       :          54.82000763 Ha        1491.72830593 eV
  | Free-atom electrostatic energy:        -146.83728853 Ha       -3995.64591702 eV
  | Hartree energy correction     :          -8.16609857 Ha        -222.21084816 eV
  | vdW energy correction         :          -0.00325413 Ha          -0.08854952 eV
  | Entropy correction            :           0.00000000 Ha           0.00000000 eV
  | ---------------------------
  | Total energy                  :        -323.50067859 Ha       -8802.90135109 eV
  | Total energy, T -> 0          :        -323.50067859 Ha       -8802.90135109 eV  <-- do not rely on this value for anything but (periodic) metals
  | Electronic free energy        :        -323.50067859 Ha       -8802.90135109 eV

  Derived energy quantities:
  | Kinetic energy                :         322.57816040 Ha        8777.79835400 eV
  | Electrostatic energy          :        -603.43616444 Ha      -16420.33349165 eV
  | Energy correction for multipole
  | error in Hartree potential    :           0.04051944 Ha           1.10259007 eV
  | Sum of eigenvalues per atom                           :        -378.18512911 eV
  | Total energy (T->0) per atom                          :        -677.14625778 eV  <-- do not rely on this value for anything but (periodic) metals
  | Electronic free energy per atom                       :        -677.14625778 eV

  atomic forces [eV/Ang]:
  -----------------------
  atom #    1
   Hellmann-Feynman              :  0.624557E+00  0.375821E+00  0.172815E+01
   Ionic forces                  :  0.000000E+00  0.000000E+00  0.000000E+00
   Multipole                     :  0.584494E-01  0.378078E+00 -0.238100E+00
   Pulay + GGA                   : -0.113098E+01  0.141860E+00 -0.157799E+01
   Van der Waals                 :  0.156515E-02  0.926239E-03 -0.109574E-02
   ----------------------------------------------------------------
   Total forces(   1)            : -0.446404E+00  0.896685E+00 -0.890393E-01
  atom #    2
   Hellmann-Feynman              :  0.378714E+00 -0.851217E-02 -0.127775E-01
   Ionic forces                  :  0.000000E+00  0.000000E+00  0.000000E+00
   Multipole                     :  0.165030E+00  0.223569E-01  0.101129E-01
   Pulay + GGA                   : -0.117780E+00  0.398896E-01  0.372349E-01
   Van der Waals                 :  0.988863E-02  0.448365E-02 -0.362441E-04
   ----------------------------------------------------------------
   Total forces(   2)            :  0.435853E+00  0.582181E-01  0.345341E-01
  atom #    3
   Hellmann-Feynman              : -0.547925E+01 -0.944454E+01 -0.615148E+00
   Ionic forces                  :  0.000000E+00  0.000000E+00  0.000000E+00
   Multipole                     : -0.949175E-01  0.892738E-02 -0.797321E+00
   Pulay + GGA                   :  0.592047E+01  0.874166E+01  0.186009E+01
   Van der Waals                 :  0.679706E-03  0.132932E-03 -0.769580E-02
   ----------------------------------------------------------------
   Total forces(   3)            :  0.346979E+00 -0.693815E+00  0.439922E+00
  atom #    4
   Hellmann-Feynman              :  0.490383E-01  0.207601E-01 -0.192514E+00
   Ionic forces                  :  0.000000E+00  0.000000E+00  0.000000E+00
   Multipole                     : -0.413387E-01  0.685013E-01 -0.862493E-01
   Pulay + GGA                   :  0.442921E-01 -0.249238E+00  0.451841E-01
   Van der Waals                 :  0.144775E-02 -0.763460E-02 -0.177637E-02
   ----------------------------------------------------------------
   Total forces(   4)            :  0.534395E-01 -0.167611E+00 -0.235356E+00
  atom #    5
   Hellmann-Feynman              :  0.284492E-01  0.377887E+00 -0.294583E+00
   Ionic forces                  :  0.000000E+00  0.000000E+00  0.000000E+00
   Multipole                     :  0.420268E-01  0.336845E-02 -0.106095E+00
   Pulay + GGA                   : -0.183914E+00 -0.272519E-01  0.121525E+00
   Van der Waals                 : -0.260353E-02  0.318073E-02  0.390660E-02
   ----------------------------------------------------------------
   Total forces(   5)            : -0.116042E+00  0.357184E+00 -0.275246E+00
  atom #    6
   Hellmann-Feynman              : -0.111293E+00 -0.466108E+00  0.169570E-01
   Ionic forces                  :  0.000000E+00  0.000000E+00  0.000000E+00
   Multipole                     : -0.115731E+00  0.647862E+00  0.290300E+00
   Pulay + GGA                   :  0.444262E+00 -0.629648E+00 -0.185871E+00
   Van der Waals                 :  0.186685E-02  0.111801E-02 -0.351434E-02
   ----------------------------------------------------------------
   Total forces(   6)            :  0.219105E+00 -0.446776E+00  0.117871E+00
  atom #    7
   Hellmann-Feynman              :  0.369083E-02  0.107842E-01  0.170174E+00
   Ionic forces                  :  0.000000E+00  0.000000E+00  0.000000E+00
   Multipole                     :  0.320519E-01  0.825931E-01  0.109826E+00
   Pulay + GGA                   : -0.977230E-01 -0.541883E-01 -0.881953E-01
   Van der Waals                 : -0.581172E-03  0.941753E-02 -0.120926E-03
   ----------------------------------------------------------------
   Total forces(   7)            : -0.625615E-01  0.486065E-01  0.191684E+00
  atom #    8
   Hellmann-Feynman              :  0.167928E+00  0.452526E-01 -0.194761E+00
   Ionic forces                  :  0.000000E+00  0.000000E+00  0.000000E+00
   Multipole                     : -0.120522E-01  0.138703E+00 -0.129529E-01
   Pulay + GGA                   :  0.283772E-02 -0.514247E-01  0.926847E-01
   Van der Waals                 : -0.108695E-02  0.213143E-02  0.410844E-02
   ----------------------------------------------------------------
   Total forces(   8)            :  0.157626E+00  0.134663E+00 -0.110921E+00
  atom #    9
   Hellmann-Feynman              : -0.189286E+00 -0.557240E-01  0.270555E-01
   Ionic forces                  :  0.000000E+00  0.000000E+00  0.000000E+00
   Multipole                     : -0.114503E+00  0.386439E-01  0.610807E-01
   Pulay + GGA                   :  0.134521E+00 -0.210463E-01  0.100857E-01
   Van der Waals                 : -0.403357E-02  0.101701E-01  0.409390E-02
   ----------------------------------------------------------------
   Total forces(   9)            : -0.173302E+00 -0.279563E-01  0.102316E+00
  atom #   10
   Hellmann-Feynman              : -0.537403E+00  0.463394E+01  0.206337E+01
   Ionic forces                  :  0.000000E+00  0.000000E+00  0.000000E+00
   Multipole                     : -0.527985E-01 -0.395241E-01  0.114765E+00
   Pulay + GGA                   : -0.214261E+00 -0.316413E+01 -0.256835E+00
   Van der Waals                 :  0.568784E-03 -0.100005E-01 -0.290192E-02
   ----------------------------------------------------------------
   Total forces(  10)            : -0.803895E+00  0.142029E+01  0.191839E+01
  atom #   11
   Hellmann-Feynman              : -0.428311E+01  0.390511E+00  0.142358E+02
   Ionic forces                  :  0.000000E+00  0.000000E+00  0.000000E+00
   Multipole                     : -0.431106E+00 -0.421004E+00  0.101754E+01
   Pulay + GGA                   :  0.456750E+01  0.808607E+00 -0.141177E+02
   Van der Waals                 : -0.229020E-02 -0.114469E-01  0.650405E-02
   ----------------------------------------------------------------
   Total forces(  11)            : -0.149006E+00  0.766666E+00  0.114216E+01
  atom #   12
   Hellmann-Feynman              : -0.230115E+01 -0.140084E+02  0.152106E+01
   Ionic forces                  :  0.000000E+00  0.000000E+00  0.000000E+00
   Multipole                     :  0.137565E-01 -0.172748E+01 -0.108044E+00
   Pulay + GGA                   :  0.300474E+01  0.142097E+02 -0.337211E+01
   Van der Waals                 : -0.303630E-02 -0.748102E-03  0.214863E-02
   ----------------------------------------------------------------
   Total forces(  12)            :  0.714315E+00 -0.152690E+01 -0.195695E+01
  atom #   13
   Hellmann-Feynman              :  0.184616E-01 -0.763923E+00 -0.153959E+01
   Ionic forces                  :  0.000000E+00  0.000000E+00  0.000000E+00
   Multipole                     :  0.469784E-01  0.820958E-01 -0.854431E-01
   Pulay + GGA                   : -0.239494E+00 -0.135616E+00  0.342917E+00
   Van der Waals                 : -0.238515E-02 -0.173055E-02 -0.362029E-02
   ----------------------------------------------------------------
   Total forces(  13)            : -0.176439E+00 -0.819173E+00 -0.128573E+01

  Timings for VdW correction (Tkatchenko-Scheffler 2009 or later):
  | CPU time:        0.007 s, Wall clock time:        0.006 s.
  Removing unitary transformations (pure translations, rotations) from forces on atoms.
  Atomic forces before filtering:
  | Net force on center of mass :  -0.330631E-03  0.748697E-04 -0.636598E-02 eV/A
  | Net torque on center of mass:   0.841765E-02  0.366414E-02 -0.191086E-04 eV
  Atomic forces after filtering:
  | Net force on center of mass :   0.178406E-15 -0.356812E-15  0.178406E-15 eV/A
  | Net torque on center of mass:   0.472042E-15  0.708063E-15 -0.849676E-15 eV

  Energy and forces in a compact form:
  | Total energy uncorrected      :         -0.880290135108594E+04 eV
  | Total energy corrected        :         -0.880290135108594E+04 eV  <-- do not rely on this value for anything but (periodic) metals
  | Electronic free energy        :         -0.880290135108594E+04 eV
  Total atomic forces (unitary forces cleaned) [eV/Ang]:
  |   1         -0.446374634019023E+00          0.896675646923020E+00         -0.885089383627741E-01
  |   2          0.435881771131872E+00          0.582168470535470E-01          0.352244779929085E-01
  |   3          0.347215136582329E+00         -0.694108953543780E+00          0.440382607007255E+00
  |   4          0.536934101543581E-01         -0.167940956508222E+00         -0.235143844930954E+00
  |   5         -0.115714883696787E+00          0.356773258043965E+00         -0.274661001551428E+00
  |   6          0.219018926098990E+00         -0.446643631800710E+00          0.118077336008236E+00
  |   7         -0.627813021920333E-01          0.489232100425043E-01          0.191941738603998E+00
  |   8          0.157628648408210E+00          0.134667079985284E+00         -0.110875295366660E+00
  |   9         -0.173429625022142E+00         -0.277739230474238E-01          0.102391053607581E+00
  |  10         -0.803965180564888E+00          0.142042191817570E+01          0.191912415838140E+01
  |  11         -0.149244085940706E+00          0.767028802265897E+00          0.114284922191463E+01
  |  12          0.714352604349612E+00         -0.152690043679685E+01         -0.195599425671424E+01
  |  13         -0.176280785289792E+00         -0.819338860792930E+00         -0.128480725658995E+01

  ------------------------------------ 
  Start decomposition of the XC Energy 
  ------------------------------------ 
  X and C from original XC functional choice 
  Hartree-Fock Energy :          0.000000000 Ha              0.000000000 eV
  X Energy            :        -41.037542024 Ha          -1116.688334962 eV
  C Energy            :         -1.601878396 Ha            -43.589328959 eV
  Total XC Energy     :        -42.639420421 Ha          -1160.277663921 eV
  ------------------------------------ 
  LDA X and C from self-consistent density 
  X Energy LDA        :        -37.258038987 Ha          -1013.842824597 eV
  C Energy LDA        :         -3.138909942 Ha            -85.414085341 eV
  ------------------------------------ 
  End decomposition of the XC Energy 
  ------------------------------------ 

------------------------------------------------------------

------------------------------------------------------------------------------
  Final output of selected total energy values:

  The following output summarizes some interesting total energy values
  at the end of a run (AFTER all relaxation, molecular dynamics, etc.).

  | Total energy of the DFT / Hartree-Fock s.c.f. calculation      :          -8802.901351086 eV
  | Final zero-broadening corrected energy (caution - metals only) :          -8802.901351086 eV
  | For reference only, the value of 1 Hartree used in FHI-aims is :             27.211384500 eV

  Before relying on these values, please be sure to understand exactly which
  total energy value is referred to by a given number. Different objects may
  all carry the same name 'total energy'. Definitions:

  Total energy of the DFT / Hartree-Fock s.c.f. calculation:
  | Note that this energy does not include ANY quantities calculated after the
  | s.c.f. cycle, in particular not ANY RPA, MP2, etc. many-body perturbation terms.

  Final zero-broadening corrected energy:
  | For metallic systems only, a broadening of the occupation numbers at the Fermi
  | level can be extrapolated back to zero broadening by an electron-gas inspired
  | formula. For all systems that are not real metals, this value can be
  | meaningless and should be avoided.

------------------------------------------------------------------------------
  Methods described in the following list of references were used in this FHI-aims run.
  If you publish the results, please make sure to cite these reference if they apply.
  FHI-aims is an academic code, and for our developers (often, Ph.D. students
  and postdocs), scientific credit in the community is essential.
  Thank you for helping us!

  For any use of FHI-aims, please cite:

    Volker Blum, Ralf Gehrke, Felix Hanke, Paula Havu, Ville Havu,
    Xinguo Ren, Karsten Reuter, and Matthias Scheffler
    'Ab initio molecular simulations with numeric atom-centered orbitals'
    Computer Physics Communications 180, 2175-2196 (2009)
    http://dx.doi.org/10.1016/j.cpc.2009.06.022


  The scalable eigensolver library ELPA was used in your run.
  ELPA is essential especially for large systems on hundreds or thousands of CPUs.
  For ELPA, please cite:

    Andreas Marek, Volker Blum, Rainer Johanni, Ville Havu, Bruno Lang,
    Thomas Auckenthaler, Alexander Heinecke, Hans-Joachim Bungartz, and Hermann Lederer,
    'The ELPA Library - Scalable Parallel Eigenvalue Solutions
    for Electronic Structure Theory and Computational Science'
    The Journal of Physics: Condensed Matter 26, 213201 (2014).
    http://dx.doi.org/10.1088/0953-8984/26/21/213201


  The ELSI infrastructure was used in your run to solve the Kohn-Sham electronic structure.
  Please check out http://elsi-interchange.org to learn more.
  If scalability is important for your project, please acknowledge ELSI by citing:

    V. W-z. Yu, F. Corsetti, A. Garcia, W. P. Huhn, M. Jacquelin, W. Jia,
    B. Lange, L. Lin, J. Lu, W. Mi, A. Seifitokaldani, A. Vazquez-Mayagoitia,
    C. Yang, H. Yang, and V. Blum
    'ELSI: A unified software interface for Kohn-Sham electronic structure solvers'
    Computer Physics Communications 222, 267-285 (2018).
    http://dx.doi.org/10.1016/j.cpc.2017.09.007


  For the real-space grid partitioning and parallelization used in this calculation, please cite:

    Ville Havu, Volker Blum, Paula Havu, and Matthias Scheffler,
    'Efficient O(N) integration for all-electron electronic structure calculation'
    'using numerically tabulated basis functions'
    Journal of Computational Physics 228, 8367-8379 (2009).
    http://dx.doi.org/10.1016/j.jcp.2009.08.008

  Of course, there are many other important community references, e.g., those cited in the
  above references. Our list is limited to references that describe implementations in the
  FHI-aims code. The reason is purely practical (length of this list) - please credit others as well.

------------------------------------------------------------
          Leaving FHI-aims.
          Date     :  20200610, Time     :  062232.908

          Computational steps:
          | Number of self-consistency cycles          :           16
          | Number of SCF (re)initializations          :            1

          Detailed time accounting                     :  max(cpu_time)    wall_clock(cpu1)
          | Total time                                 :        1.658 s           1.715 s
          | Preparation time                           :        0.166 s           0.166 s
          | Boundary condition initalization           :        0.000 s           0.000 s
          | Grid partitioning                          :        0.022 s           0.022 s
          | Preloading free-atom quantities on grid    :        0.003 s           0.003 s
          | Free-atom superposition energy             :        0.005 s           0.004 s
          | Total time for integrations                :        0.468 s           0.466 s
          | Total time for solution of K.-S. equations :        0.066 s           0.069 s
          | Total time for density & force components  :        0.391 s           0.376 s
          | Total time for mixing                      :        0.018 s           0.014 s
          | Total time for Hartree multipole update    :        0.020 s           0.023 s
          | Total time for Hartree multipole sum       :        0.430 s           0.430 s
          | Total time for total energy evaluation     :        0.003 s           0.004 s
          | Total time for vdW correction              :        0.007 s           0.006 s

          Partial memory accounting:
          | Residual value for overall tracked memory usage across tasks :           0.000 MB (should be 0.000 MB)
          | Peak values for overall tracked memory usage (after allocating hessian_basis_wave):
          |   Minimum:        1.861 MB (on task 16)
          |   Maximum:        1.891 MB (on task 15)
          |   Average:        1.879 MB
          | Largest tracked array allocation (hessian_basis_wave):
          |   Minimum:        0.949 MB (on task  4)
          |   Maximum:        0.965 MB (on task 15)
          |   Average:        0.955 MB
          Note:  These values currently only include a subset of arrays which are explicitly tracked.
          The "true" memory usage will be greater.

          Have a nice day.
------------------------------------------------------------
