  MPI-parallelism will be employed.
------------------------------------------------------------
          Invoking FHI-aims ...
          Version 171221_1
          Compiled on 2019/09/09 at 14:39:39 on host puhti-login2.bullx.

          When using FHI-aims, please cite the following reference:

          Volker Blum, Ralf Gehrke, Felix Hanke, Paula Havu,
          Ville Havu, Xinguo Ren, Karsten Reuter, and Matthias Scheffler,
          'Ab Initio Molecular Simulations with Numeric Atom-Centered Orbitals',
          Computer Physics Communications 180, 2175-2196 (2009)

          For any questions about FHI-aims, please visit the aimsclub website
          with its forums and wiki. Contributions to both the forums and the
          wiki are warmly encouraged - they are for you, and everyone is welcome there.

------------------------------------------------------------



  Date     :  20200616, Time     :  050756.010
  Time zero on CPU 1             :   0.293650000000000E-01  s.
  Internal wall clock time zero  :           361516076.010  s.

  FHI-aims created a unique identifier for this run for later identification
  aims_uuid : DC557934-53A7-4A06-A077-7F1FD171D9B0

  Using       20 parallel tasks.
  Task        0 on host r06c54.bullx reporting.
  Task        1 on host r06c54.bullx reporting.
  Task        2 on host r06c54.bullx reporting.
  Task        3 on host r06c54.bullx reporting.
  Task        4 on host r06c54.bullx reporting.
  Task        5 on host r06c54.bullx reporting.
  Task        6 on host r06c54.bullx reporting.
  Task        7 on host r06c54.bullx reporting.
  Task        8 on host r06c54.bullx reporting.
  Task        9 on host r06c54.bullx reporting.
  Task       10 on host r06c54.bullx reporting.
  Task       11 on host r06c54.bullx reporting.
  Task       12 on host r06c54.bullx reporting.
  Task       13 on host r06c54.bullx reporting.
  Task       14 on host r06c54.bullx reporting.
  Task       15 on host r06c54.bullx reporting.
  Task       16 on host r06c54.bullx reporting.
  Task       17 on host r06c54.bullx reporting.
  Task       18 on host r06c54.bullx reporting.
  Task       19 on host r06c54.bullx reporting.

  Performing system and environment tests:
  | Environment variable OMP_NUM_THREADS correctly set to 1.
  | Stacksize not measured: no C compiler
  | Checking for scalapack...
  | Testing pdtran()...
  | All pdtran() tests passed.

  Obtaining array dimensions for all initial allocations:
  
  -----------------------------------------------------------------------
  Parsing control.in (first pass over file, find array dimensions only).
  The contents of control.in will be repeated verbatim below
  unless switched off by setting 'verbatim_writeout .false.' .
  in the first line of control.in .
  -----------------------------------------------------------------------
  
  #########################################################################################
  #
  #  Volker Blum, FHI 2009 : Test run input file control.in for simple H2O
  #
  #########################################################################################
  #
  #  Physical model
  #
    xc                 pbe
    vdw_correction_hirshfeld
    spin               none
    relativistic       none
    charge             0.
  #
  #  SCF convergence
  #
    occupation_type    gaussian 0.01
    mixer              pulay
      n_max_pulay        10
      charge_mix_param   0.2
    sc_accuracy_rho    1E-5
    sc_accuracy_eev    1E-3
    sc_accuracy_etot   1E-6
    sc_accuracy_forces 1E-4
    sc_iter_limit      100
  #
  #  Relaxation
  #
  #  relax_geometry   bfgs 1.e-3
  #
  ################################################################################
  #
  #  FHI-aims code project
  #  VB, Fritz-Haber Institut, 2009
  #
  #  Suggested "light" defaults for H atom (to be pasted into control.in file)
  #  Be sure to double-check any results obtained with these settings for post-processing,
  #  e.g., with the "tight" defaults and larger basis sets.
  #
  ################################################################################
    species        H
  #     global species definitions
      nucleus             1
      mass                1.00794
  #
      l_hartree           4
  #
      cut_pot             3.5  1.5  1.0
      basis_dep_cutoff    1e-4
  #
      radial_base         24 5.0
      radial_multiplier   1
      angular_grids       specified
        division   0.2421   50
        division   0.3822  110
        division   0.4799  194
        division   0.5341  302
  #      division   0.5626  434
  #      division   0.5922  590
  #      division   0.6542  770
  #      division   0.6868 1202
  #      outer_grid  770
        outer_grid  302
  ################################################################################
  #
  #  Definition of "minimal" basis
  #
  ################################################################################
  #     valence basis states
      valence      1  s   1.
  #     ion occupancy
      ion_occ      1  s   0.5
  ################################################################################
  #
  #  Suggested additional basis functions. For production calculations,
  #  uncomment them one after another (the most important basis functions are
  #  listed first).
  #
  #  Basis constructed for dimers: 0.5 A, 0.7 A, 1.0 A, 1.5 A, 2.5 A
  #
  ################################################################################
  #  "First tier" - improvements: -1014.90 meV to -62.69 meV
       hydro 2 s 2.1
       hydro 2 p 3.5
  #  "Second tier" - improvements: -12.89 meV to -1.83 meV
  #     hydro 1 s 0.85
  #     hydro 2 p 3.7
  #     hydro 2 s 1.2
  #     hydro 3 d 7
  #  "Third tier" - improvements: -0.25 meV to -0.12 meV
  #     hydro 4 f 11.2
  #     hydro 3 p 4.8
  #     hydro 4 d 9
  #     hydro 3 s 3.2
  ################################################################################
  #
  #  FHI-aims code project
  #  VB, Fritz-Haber Institut, 2009
  #
  #  Suggested "light" defaults for C atom (to be pasted into control.in file)
  #  Be sure to double-check any results obtained with these settings for post-processing,
  #  e.g., with the "tight" defaults and larger basis sets.
  #
  ################################################################################
    species        C
  #     global species definitions
      nucleus             6
      mass                12.0107
  #
      l_hartree           4
  #
      cut_pot             3.5  1.5  1.0
      basis_dep_cutoff    1e-4
  #
      radial_base         34 5.0
      radial_multiplier   1
      angular_grids specified
        division   0.3326   50
        division   0.5710  110
        division   0.7727  194
        division   0.8772  302
  #      division   0.9334  434
  #      division   0.9625  590
  #      division   0.9924  770
  #      division   1.0230  974
  #      division   1.4589 1202
  #     outer_grid  974
       outer_grid 302
  ################################################################################
  #
  #  Definition of "minimal" basis
  #
  ################################################################################
  #     valence basis states
      valence      2  s   2.
      valence      2  p   2.
  #     ion occupancy
      ion_occ      2  s   1.
      ion_occ      2  p   1.
  ################################################################################
  #
  #  Suggested additional basis functions. For production calculations,
  #  uncomment them one after another (the most important basis functions are
  #  listed first).
  #
  #  Constructed for dimers: 1.0 A, 1.25 A, 1.5 A, 2.0 A, 3.0 A
  #
  ################################################################################
  #  "First tier" - improvements: -1214.57 meV to -155.61 meV
       hydro 2 p 1.7
       hydro 3 d 6
       hydro 2 s 4.9
  #  "Second tier" - improvements: -67.75 meV to -5.23 meV
  #     hydro 4 f 9.8
  #     hydro 3 p 5.2
  #     hydro 3 s 4.3
  #     hydro 5 g 14.4
  #     hydro 3 d 6.2
  #  "Third tier" - improvements: -2.43 meV to -0.60 meV
  #     hydro 2 p 5.6
  #     hydro 2 s 1.4
  #     hydro 3 d 4.9
  #     hydro 4 f 11.2
  #  "Fourth tier" - improvements: -0.39 meV to -0.18 meV
  #     hydro 2 p 2.1
  #     hydro 5 g 16.4
  #     hydro 4 d 13.2
  #     hydro 3 s 13.6
  #     hydro 4 f 17.6
  #  Further basis functions - improvements: -0.08 meV and below
  #     hydro 3 s 2
  #     hydro 3 p 6
  #     hydro 4 d 20
  ################################################################################
  #
  #  FHI-aims code project
  #  VB, Fritz-Haber Institut, 2009
  #
  #  Suggested "light" defaults for N atom (to be pasted into control.in file)
  #  Be sure to double-check any results obtained with these settings for post-processing,
  #  e.g., with the "tight" defaults and larger basis sets.
  #
  ################################################################################
    species        N
  #     global species definitions
      nucleus             7
      mass                14.0067
  #
      l_hartree           4
  #
      cut_pot             3.5  1.5  1.0
      basis_dep_cutoff    1e-4
  #
      radial_base         35 5.0
      radial_multiplier   1
      angular_grids       specified
        division   0.2599   50
        division   0.4601  110
        division   0.5885  194
        division   0.6503  302
  #      division   0.6939  434
  #      division   0.7396  590
  #      division   0.7632  770
  #      division   0.8122  974
  #      division   1.1604 1202
  #      outer_grid  974
        outer_grid  302
  ################################################################################
  #
  #  Definition of "minimal" basis
  #
  ################################################################################
  #     valence basis states
      valence      2  s   2.
      valence      2  p   3.
  #     ion occupancy
      ion_occ      2  s   1.
      ion_occ      2  p   2.
  ################################################################################
  #
  #  Suggested additional basis functions. For production calculations,
  #  uncomment them one after another (the most important basis functions are
  #  listed first).
  #
  #  Constructed for dimers: 1.0 A, 1.1 A, 1.5 A, 2.0 A, 3.0 A
  #
  ################################################################################
  #  "First tier" - improvements: -1193.42 meV to -220.60 meV
       hydro 2 p 1.8
       hydro 3 d 6.8
       hydro 3 s 5.8
  #  "Second tier" - improvements: -80.21 meV to -6.86 meV
  #     hydro 4 f 10.8
  #     hydro 3 p 5.8
  #     hydro 1 s 0.8
  #     hydro 5 g 16
  #     hydro 3 d 4.9
  #  "Third tier" - improvements: -4.29 meV to -0.53 meV
  #     hydro 3 s 16
  #     ionic 2 p auto
  #     hydro 3 d 6.6
  #     hydro 4 f 11.6
  #  "Fourth tier" - improvements: -0.75 meV to -0.25 meV
  #     hydro 2 p 4.5
  #     hydro 2 s 2.4
  #     hydro 5 g 14.4
  #     hydro 4 d 14.4
  #     hydro 4 f 16.8
  # Further basis functions - -0.21 meV and below
  #     hydro 3 p 14.8
  #     hydro 3 s 4.4
  #     hydro 3 d 19.6
  #     hydro 5 g 12.8
  ################################################################################
  #
  #  FHI-aims code project
  #  VB, Fritz-Haber Institut, 2009
  #
  #  Suggested "light" defaults for O atom (to be pasted into control.in file)
  #  Be sure to double-check any results obtained with these settings for post-processing,
  #  e.g., with the "tight" defaults and larger basis sets.
  #
  ################################################################################
    species        O
  #     global species definitions
      nucleus             8
      mass                15.9994
  #
      l_hartree           4
  #
      cut_pot             3.5  1.5  1.0
      basis_dep_cutoff    1e-4
  #
      radial_base         36 5.0
      radial_multiplier   1
       angular_grids specified
        division   0.2659   50
        division   0.4451  110
        division   0.6052  194
        division   0.7543  302
  #      division   0.8014  434
  #      division   0.8507  590
  #      division   0.8762  770
  #      division   0.9023  974
  #      division   1.2339 1202
  #      outer_grid 974
        outer_grid 302
  ################################################################################
  #
  #  Definition of "minimal" basis
  #
  ################################################################################
  #     valence basis states
      valence      2  s   2.
      valence      2  p   4.
  #     ion occupancy
      ion_occ      2  s   1.
      ion_occ      2  p   3.
  ################################################################################
  #
  #  Suggested additional basis functions. For production calculations,
  #  uncomment them one after another (the most important basis functions are
  #  listed first).
  #
  #  Constructed for dimers: 1.0 A, 1.208 A, 1.5 A, 2.0 A, 3.0 A
  #
  ################################################################################
  #  "First tier" - improvements: -699.05 meV to -159.38 meV
       hydro 2 p 1.8
       hydro 3 d 7.6
       hydro 3 s 6.4
  #  "Second tier" - improvements: -49.91 meV to -5.39 meV
  #     hydro 4 f 11.6
  #     hydro 3 p 6.2
  #     hydro 3 d 5.6
  #     hydro 5 g 17.6
  #     hydro 1 s 0.75
  #  "Third tier" - improvements: -2.83 meV to -0.50 meV
  #     ionic 2 p auto
  #     hydro 4 f 10.8
  #     hydro 4 d 4.7
  #     hydro 2 s 6.8
  #  "Fourth tier" - improvements: -0.40 meV to -0.12 meV
  #     hydro 3 p 5
  #     hydro 3 s 3.3
  #     hydro 5 g 15.6
  #     hydro 4 f 17.6
  #     hydro 4 d 14
  # Further basis functions - -0.08 meV and below
  #     hydro 3 s 2.1
  #     hydro 4 d 11.6
  #     hydro 3 p 16
  #     hydro 2 s 17.2
  
  -----------------------------------------------------------------------
  Completed first pass over input file control.in .
  -----------------------------------------------------------------------
  
  
  -----------------------------------------------------------------------
  Parsing geometry.in (first pass over file, find array dimensions only).
  The contents of geometry.in will be repeated verbatim below
  unless switched off by setting 'verbatim_writeout .false.' .
  in the first line of geometry.in .
  -----------------------------------------------------------------------
  
  atom  0.00000 0.00000 0.00000 C
  atom  1.09300 0.00000 0.00000 H
  atom  -0.47961 0.00000 -1.41207 N
  atom  -1.50022 -0.01372 -1.41086 H
  atom  -0.13960 0.84160 -1.87275 H
  atom  -0.49584 1.26211 0.72868 C
  atom  0.32767 1.74306 1.26166 H
  atom  -0.91057 1.97688 0.01408 H
  atom  -1.27312 1.00436 1.45184 H
  atom  -0.39425 -1.28861 0.74398 C
  atom  0.27929 -2.28739 0.83368 O
  atom  -1.55543 -1.27795 1.31695 O
  atom  -1.64890 -2.23402 1.46587 H
  
  -----------------------------------------------------------------------
  Completed first pass over input file geometry.in .
  -----------------------------------------------------------------------
  

  Basic array size parameters:
  | Number of species                 :        4
  | Number of atoms                   :       13
  | Max. basis fn. angular momentum   :        2
  | Max. atomic/ionic basis occupied n:        2
  | Max. number of basis fn. types    :        2
  | Max. radial fns per species/type  :        3
  | Max. logarithmic grid size        :     1301
  | Max. radial integration grid size :       36
  | Max. angular integration grid size:      302
  | Max. angular grid division number :        8
  | Radial grid for Hartree potential :     1301
  | Number of spin channels           :        1

------------------------------------------------------------
          Reading file control.in.
------------------------------------------------------------
  XC: Using PBE gradient-corrected functionals.
  Spin treatment: No spin polarisation.
  Non-relativistic treatment of kinetic energy.
  Charge =   0.000000E+00: Neutral system requested explicitly.
  Occupation type: Gaussian broadening, width =   0.100000E-01 eV.
  Using pulay charge density mixing.
  Pulay mixing - number of memorized iterations:   10
  Charge density mixing - mixing parameter:     0.2000
  Convergence accuracy of self-consistent charge density:  0.1000E-04
  Convergence accuracy of sum of eigenvalues:  0.1000E-02
  Convergence accuracy of total energy:  0.1000E-05
  Convergence accuracy of forces:  0.1000E-03
  Maximum number of s.-c. iterations  :   100
 
  Reading configuration options for species H                   .
  | Found nuclear charge :   1.0000
  | Found atomic mass :    1.00794000000000      amu
  | Found l_max for Hartree potential  :   4
  | Found cutoff potl. onset [A], width [A], scale factor :    3.50000    1.50000    1.00000
  | Threshold for basis-dependent cutoff potential is   0.100000E-03
  | Found data for basic radial integration grid :    24 points, outermost radius =    5.000 A
  | Found multiplier for basic radial grid :   1
  | Found angular grid specification: user-specified.
  | Specified grid contains     5 separate shells.
  | Check grid settings after all constraints further below.
  | Found free-atom valence shell :  1 s   1.000
  | No ionic wave fns used. Skipping ion_occ.
  | Found hydrogenic basis function :  2 s   2.100
  | Found hydrogenic basis function :  2 p   3.500
  Species H                   : Missing cutoff potential type.
  Defaulting to exp(1/x)/(1-x)^2 type cutoff potential.
  Species H : No 'logarithmic' tag. Using default grid for free atom:
  | Default logarithmic grid data [bohr] : 0.1000E-03 0.1000E+03 0.1012E+01
  Species H : On-site basis accuracy parameter (for Gram-Schmidt orthonormalisation) not specified.
  Using default value basis_acc =  0.1000000E-03.
  Species H                   : Using default innermost maximum threshold i_radial=  2 for radial functions.
  Species H                   : Default cutoff onset for free atom density etc. : 0.35000000E+01 AA.
  Species H                   : Basic radial grid will be enhanced according to radial_multiplier =   1, to contain    24 grid points.
 
  Reading configuration options for species C                   .
  | Found nuclear charge :   6.0000
  | Found atomic mass :    12.0107000000000      amu
  | Found l_max for Hartree potential  :   4
  | Found cutoff potl. onset [A], width [A], scale factor :    3.50000    1.50000    1.00000
  | Threshold for basis-dependent cutoff potential is   0.100000E-03
  | Found data for basic radial integration grid :    34 points, outermost radius =    5.000 A
  | Found multiplier for basic radial grid :   1
  | Found angular grid specification: user-specified.
  | Specified grid contains     5 separate shells.
  | Check grid settings after all constraints further below.
  | Found free-atom valence shell :  2 s   2.000
  | Found free-atom valence shell :  2 p   2.000
  | No ionic wave fns used. Skipping ion_occ.
  | No ionic wave fns used. Skipping ion_occ.
  | Found hydrogenic basis function :  2 p   1.700
  | Found hydrogenic basis function :  3 d   6.000
  | Found hydrogenic basis function :  2 s   4.900
  Species C                   : Missing cutoff potential type.
  Defaulting to exp(1/x)/(1-x)^2 type cutoff potential.
  Species C : No 'logarithmic' tag. Using default grid for free atom:
  | Default logarithmic grid data [bohr] : 0.1000E-03 0.1000E+03 0.1012E+01
  Species C : On-site basis accuracy parameter (for Gram-Schmidt orthonormalisation) not specified.
  Using default value basis_acc =  0.1000000E-03.
  Species C                   : Using default innermost maximum threshold i_radial=  2 for radial functions.
  Species C                   : Default cutoff onset for free atom density etc. : 0.35000000E+01 AA.
  Species C                   : Basic radial grid will be enhanced according to radial_multiplier =   1, to contain    34 grid points.
 
  Reading configuration options for species N                   .
  | Found nuclear charge :   7.0000
  | Found atomic mass :    14.0067000000000      amu
  | Found l_max for Hartree potential  :   4
  | Found cutoff potl. onset [A], width [A], scale factor :    3.50000    1.50000    1.00000
  | Threshold for basis-dependent cutoff potential is   0.100000E-03
  | Found data for basic radial integration grid :    35 points, outermost radius =    5.000 A
  | Found multiplier for basic radial grid :   1
  | Found angular grid specification: user-specified.
  | Specified grid contains     5 separate shells.
  | Check grid settings after all constraints further below.
  | Found free-atom valence shell :  2 s   2.000
  | Found free-atom valence shell :  2 p   3.000
  | No ionic wave fns used. Skipping ion_occ.
  | No ionic wave fns used. Skipping ion_occ.
  | Found hydrogenic basis function :  2 p   1.800
  | Found hydrogenic basis function :  3 d   6.800
  | Found hydrogenic basis function :  3 s   5.800
  Species N                   : Missing cutoff potential type.
  Defaulting to exp(1/x)/(1-x)^2 type cutoff potential.
  Species N : No 'logarithmic' tag. Using default grid for free atom:
  | Default logarithmic grid data [bohr] : 0.1000E-03 0.1000E+03 0.1012E+01
  Species N : On-site basis accuracy parameter (for Gram-Schmidt orthonormalisation) not specified.
  Using default value basis_acc =  0.1000000E-03.
  Species N                   : Using default innermost maximum threshold i_radial=  2 for radial functions.
  Species N                   : Default cutoff onset for free atom density etc. : 0.35000000E+01 AA.
  Species N                   : Basic radial grid will be enhanced according to radial_multiplier =   1, to contain    35 grid points.
 
  Reading configuration options for species O                   .
  | Found nuclear charge :   8.0000
  | Found atomic mass :    15.9994000000000      amu
  | Found l_max for Hartree potential  :   4
  | Found cutoff potl. onset [A], width [A], scale factor :    3.50000    1.50000    1.00000
  | Threshold for basis-dependent cutoff potential is   0.100000E-03
  | Found data for basic radial integration grid :    36 points, outermost radius =    5.000 A
  | Found multiplier for basic radial grid :   1
  | Found angular grid specification: user-specified.
  | Specified grid contains     5 separate shells.
  | Check grid settings after all constraints further below.
  | Found free-atom valence shell :  2 s   2.000
  | Found free-atom valence shell :  2 p   4.000
  | No ionic wave fns used. Skipping ion_occ.
  | No ionic wave fns used. Skipping ion_occ.
  | Found hydrogenic basis function :  2 p   1.800
  | Found hydrogenic basis function :  3 d   7.600
  | Found hydrogenic basis function :  3 s   6.400
  Species O                   : Missing cutoff potential type.
  Defaulting to exp(1/x)/(1-x)^2 type cutoff potential.
  Species O : No 'logarithmic' tag. Using default grid for free atom:
  | Default logarithmic grid data [bohr] : 0.1000E-03 0.1000E+03 0.1012E+01
  Species O : On-site basis accuracy parameter (for Gram-Schmidt orthonormalisation) not specified.
  Using default value basis_acc =  0.1000000E-03.
  Species O                   : Using default innermost maximum threshold i_radial=  2 for radial functions.
  Species O                   : Default cutoff onset for free atom density etc. : 0.35000000E+01 AA.
  Species O                   : Basic radial grid will be enhanced according to radial_multiplier =   1, to contain    36 grid points.
 
  Finished reading input file 'control.in'. Consistency checks are next.
 
  MPI_IN_PLACE appears to work with this MPI implementation.
  | Keeping use_mpi_in_place .true. (see manual).
  Target number of points in a grid batch is not set. Defaulting to  100
  Method for grid partitioning is not set. Defaulting to parallel hash+maxmin partitioning.
  Batch size limit is not set. Defaulting to    200
  By default, will store active basis functions for each batch.
  If in need of memory, prune_basis_once .false. can be used to disable this option.
  communication_type for Hartree potential was not specified.
  Defaulting to calc_hartree .
  Pulay mixer: Number of initial linear mixing iterations not set.
  Defaulting to    0 iterations.
  Work space size for distributed Hartree potential not set.
  Defaulting to   0.200000E+03 MB.
  Algorithm-dependent basis array size parameters:
  | n_max_pulay                         :       10
  Presetting      1001 iterations before the initial mixing cycle
  is restarted anyway using the sc_init_iter criterion / keyword.
  Presetting a factor      1.000 between actual scf density residual
  and density convergence criterion sc_accuracy_rho below which sc_init_iter
  takes no effect.
  Geometry relaxation not requested: no relaxation will be performed.
  Handling of forces: Unphysical translation and rotation will be removed from forces.
  No accuracy limit for integral partition fn. given. Defaulting to  0.1000E-14.
  No threshold value for u(r) in integrations given. Defaulting to  0.1000E-05.
  No accuracy for occupation numbers given. Defaulting to  0.1000E-12.
  No threshold value for occupation numbers given. Defaulting to  0.0000E+00.
  No accuracy for fermi level given. Defaulting to  0.1000E-19.
  Maximum # of iterations to find E_F not set. Defaulting to  200.
  Preferred method for the eigenvalue solver ('KS_method') not specified in 'control.in'.
  Calling BLACS routine to test compilation state
  Since ScaLAPACK support is enabled, defaulting to 'elsi'.
  Will not use alltoall communication since running on < 1024 CPUs.
  Threshold for basis singularities not set.
  Default threshold for basis singularities:  0.1000E-04
  partition_type (choice of integration weights) for integrals was not specified.
  | Using a version of the partition function of Stratmann and coworkers ('stratmann_smoother').
  | At each grid point, the set of atoms used to build the partition table is smoothly restricted to
  | only those atoms whose free-atom density would be non-zero at that grid point.
  Partitioning for Hartree potential was not defined. Using partition_type for integrals.
  | Adjusted default value of keyword multip_moments_threshold to:       0.10000000E-11
  | This value may affect high angular momentum components of the Hartree potential in periodic systems.
  No q(lm)/r^(l+1) cutoff set for long-range Hartree potential.
  | Using default value of  0.100000E-09 .
  | Verify using the multipole_threshold keyword.
  Defaulting to new monopole extrapolation.
  Density update method: automatic selection selected.
------------------------------------------------------------


------------------------------------------------------------
          Reading geometry description geometry.in.
------------------------------------------------------------
  Input structure read successfully.
  The structure contains       13 atoms,  and a total of         48.000 electrons.

  Input geometry:
  | No unit cell requested.
  | Atomic structure:
  |       Atom                x [A]            y [A]            z [A]
  |    1: Species C             0.00000000        0.00000000        0.00000000
  |    2: Species H             1.09300000        0.00000000        0.00000000
  |    3: Species N            -0.47961000        0.00000000       -1.41207000
  |    4: Species H            -1.50022000       -0.01372000       -1.41086000
  |    5: Species H            -0.13960000        0.84160000       -1.87275000
  |    6: Species C            -0.49584000        1.26211000        0.72868000
  |    7: Species H             0.32767000        1.74306000        1.26166000
  |    8: Species H            -0.91057000        1.97688000        0.01408000
  |    9: Species H            -1.27312000        1.00436000        1.45184000
  |   10: Species C            -0.39425000       -1.28861000        0.74398000
  |   11: Species O             0.27929000       -2.28739000        0.83368000
  |   12: Species O            -1.55543000       -1.27795000        1.31695000
  |   13: Species H            -1.64890000       -2.23402000        1.46587000
  |

  | The smallest distance between any two atoms is         0.97210270 AA.
  |
  | The first atom of this pair is atom number                     12 .
  | The second atom of this pair is atom number                    13 .

  Number of empty states per atom not set in control.in - providing a guess from actual geometry.
  | Total number of empty states used during s.c.f. cycle:       29
  If you use a very high smearing, use empty_states (per atom!) in control.in to increase this value.

  Structure-dependent array size parameters: 
  | Maximum number of distinct radial functions  :       21
  | Maximum number of basis functions            :      119
  | Number of Kohn-Sham states (occupied + empty):       53
------------------------------------------------------------

------------------------------------------------------------
          Preparing all fixed parts of the calculation.
------------------------------------------------------------
  Determining machine precision:
    2.225073858507201E-308
  Setting up grids for atomic and cluster calculations.

  Creating wave function, potential, and density for free atoms.

  Species: H

  List of occupied orbitals and eigenvalues:
    n    l              occ      energy [Ha]    energy [eV]
    1    0           1.0000        -0.237589        -6.4651


  Species: C

  List of occupied orbitals and eigenvalues:
    n    l              occ      energy [Ha]    energy [eV]
    1    0           2.0000       -10.038835      -273.1706
    2    0           2.0000        -0.502696       -13.6791
    2    1           2.0000        -0.191971        -5.2238


  Species: N

  List of occupied orbitals and eigenvalues:
    n    l              occ      energy [Ha]    energy [eV]
    1    0           2.0000       -14.128000      -384.4424
    2    0           2.0000        -0.681077       -18.5330
    2    1           3.0000        -0.259788        -7.0692


  Species: O

  List of occupied orbitals and eigenvalues:
    n    l              occ      energy [Ha]    energy [eV]
    1    0           2.0000       -18.898188      -514.2459
    2    0           2.0000        -0.878505       -23.9053
    2    1           4.0000        -0.331779        -9.0282

  Creating fixed part of basis set: Ionic, confined, hydrogenic.
 
  H                    hydrogenic:
 
  List of hydrogenic basis orbitals: 
    n    l      effective z      eigenvalue [eV]  inner max. [A]     outer max. [A]     outer radius [A]   
    2    0         2.100000       -14.9728           0.193243           1.317208           4.583499
    2    1         3.500000       -41.6669           0.602369           0.602369           3.723403
 
 
  C                    hydrogenic:
 
  List of hydrogenic basis orbitals: 
    n    l      effective z      eigenvalue [eV]  inner max. [A]     outer max. [A]     outer radius [A]   
    2    1         1.700000        -9.7616           1.230570           1.230570           4.607917
    3    2         6.000000       -54.4224           0.792453           0.792453           3.883070
    2    0         4.900000       -81.6679           0.082559           0.562749           3.078220
 
 
  N                    hydrogenic:
 
  List of hydrogenic basis orbitals: 
    n    l      effective z      eigenvalue [eV]  inner max. [A]     outer max. [A]     outer radius [A]   
    2    1         1.800000       -10.9749           1.177451           1.177451           4.573712
    3    2         6.800000       -69.9026           0.704619           0.704619           3.538137
    3    0         5.800000       -50.8545           0.067388           1.191934           4.250239
 
 
  O                    hydrogenic:
 
  List of hydrogenic basis orbitals: 
    n    l      effective z      eigenvalue [eV]  inner max. [A]     outer max. [A]     outer radius [A]   
    2    1         1.800000       -10.9749           1.164242           1.164242           4.578029
    3    2         7.600000       -87.3180           0.624125           0.624125           3.251020
    3    0         6.400000       -61.9207           0.061167           1.081902           4.001998
 

  Adding cutoff potential to free-atom effective potential.
  Creating atomic-like basis functions for current effective potential.

  Species H                   :

  List of atomic basis orbitals and eigenvalues:
    n    l      energy [Ha]    energy [eV]    outer radius [A]
    1    0        -0.237589        -6.4651       4.527807


  Species C                   :

  List of atomic basis orbitals and eigenvalues:
    n    l      energy [Ha]    energy [eV]    outer radius [A]
    1    0       -10.038835      -273.1706       1.934409
    2    0        -0.502696       -13.6791       4.496620
    2    1        -0.191971        -5.2238       4.551928


  Species N                   :

  List of atomic basis orbitals and eigenvalues:
    n    l      energy [Ha]    energy [eV]    outer radius [A]
    1    0       -14.128000      -384.4424       1.637919
    2    0        -0.681077       -18.5330       4.463241
    2    1        -0.259788        -7.0692       4.518138


  Species O                   :

  List of atomic basis orbitals and eigenvalues:
    n    l      energy [Ha]    energy [eV]    outer radius [A]
    1    0       -18.898188      -514.2459       1.415765
    2    0        -0.878505       -23.9053       4.413171
    2    1        -0.331779        -9.0282       4.522403

  Assembling full basis from fixed parts.
  | Species H :   atomic orbital   1 s accepted.
  | Species H :    hydro orbital   2 s accepted.
  | Species H :    hydro orbital   2 p accepted.
  | Species C :   atomic orbital   1 s accepted.
  | Species C :    hydro orbital   2 s accepted.
  | Species C :   atomic orbital   2 s accepted.
  | Species C :   atomic orbital   2 p accepted.
  | Species C :    hydro orbital   2 p accepted.
  | Species C :    hydro orbital   3 d accepted.
  | Species N :   atomic orbital   1 s accepted.
  | Species N :    hydro orbital   3 s accepted.
  | Species N :   atomic orbital   2 s accepted.
  | Species N :   atomic orbital   2 p accepted.
  | Species N :    hydro orbital   2 p accepted.
  | Species N :    hydro orbital   3 d accepted.
  | Species O :   atomic orbital   1 s accepted.
  | Species O :    hydro orbital   3 s accepted.
  | Species O :   atomic orbital   2 s accepted.
  | Species O :   atomic orbital   2 p accepted.
  | Species O :    hydro orbital   2 p accepted.
  | Species O :    hydro orbital   3 d accepted.
 
  Basis size parameters after reduction:
  | Total number of radial functions:       21
  | Total number of basis functions :      119
 
  Per-task memory consumption for arrays in subroutine allocate_ext:
  |           5.250512MB.
  Testing on-site integration grid accuracy.
  |  Species  Function  <phi|h_atom|phi> (log., in eV)  <phi|h_atom|phi> (rad., in eV)
           1        1                 -6.4663192853                 -6.4651273558
           1        2                 13.7111246313                 13.7170609718
           1        3                 25.2673269279                 25.2674696378
           2        4               -273.1705927641               -273.1705631568
           2        5                -10.7109323383                -10.7107120029
           2        6                 17.4381822266                 17.4352413244
           2        7                 -5.2255326521                 -5.2270484734
           2        8                  8.6835629259                  8.6603288385
           2        9                 27.4952418996                 27.4953360207
           3       10               -384.4424306495               -384.4423701208
           3       11                 12.5842251816                 12.5842222903
           3       12                -15.7264628251                -15.7264433455
           3       13                 -7.0696854293                 -7.0701769954
           3       14                  8.8090390882                  8.7901077751
           3       15                 35.9586762123                 35.9588528632
           4       16               -514.2458688638               -514.2457643834
           4       17                 15.1795651126                 15.1795290741
           4       18                -21.5359799773                -21.5360846186
           4       19                 -9.0283069236                 -9.0284644067
           4       20                  8.3027758564                  8.2834874195
           4       21                 45.8339351984                 45.8338762259

  Preparing densities etc. for the partition functions (integrals / Hartree potential).

  Preparations completed.
  max(cpu_time)          :      0.164 s.
  Wall clock time (cpu1) :      0.164 s.
------------------------------------------------------------

------------------------------------------------------------
          Begin self-consistency loop: Initialization.

          Date     :  20200616, Time     :  050756.214
------------------------------------------------------------

  Initializing index lists of integration centers etc. from given atomic structure:
  | Number of centers in hartree potential         :        13
  | Number of centers in hartree multipole         :        13
  | Number of centers in electron density summation:        13
  | Number of centers in basis integrals           :        13
  | Number of centers in integrals                 :        13
  | Number of centers in hamiltonian               :        13
  * Using 20 tasks for Scalapack Eigenvalue solver.
  Detailed listing of tasks and assigned k-points:
  (for non-periodic systems, the "k-point" denotes an internal label only)
   Task     0 k-point     1 on r06c54.bullx
   Task     1 k-point     1 on r06c54.bullx
   Task     2 k-point     1 on r06c54.bullx
   Task     3 k-point     1 on r06c54.bullx
   Task     4 k-point     1 on r06c54.bullx
   Task     5 k-point     1 on r06c54.bullx
   Task     6 k-point     1 on r06c54.bullx
   Task     7 k-point     1 on r06c54.bullx
   Task     8 k-point     1 on r06c54.bullx
   Task     9 k-point     1 on r06c54.bullx
   Task    10 k-point     1 on r06c54.bullx
   Task    11 k-point     1 on r06c54.bullx
   Task    12 k-point     1 on r06c54.bullx
   Task    13 k-point     1 on r06c54.bullx
   Task    14 k-point     1 on r06c54.bullx
   Task    15 k-point     1 on r06c54.bullx
   Task    16 k-point     1 on r06c54.bullx
   Task    17 k-point     1 on r06c54.bullx
   Task    18 k-point     1 on r06c54.bullx
   Task    19 k-point     1 on r06c54.bullx
  Tasks:    20 split into      5 X      4 BLACS grid
  Calculating block size based on n_basis =          119  max_nprow =            5  max_npcol =            4
  ScaLAPACK block size set to:           16
  Allocating        0.008 MB for ovlp
  Allocating        0.008 MB for ham
  Allocating        0.008 MB for eigenvec
  Required Scalapack workspace - INTEGER:            1  REAL:             1
  Partitioning the integration grid into batches with parallel hashing+maxmin method.
  | Number of batches:      874
  | Maximal batch size:     192
  | Minimal batch size:      51
  | Average batch size:      79.686
  | Standard deviation of batch sizes:      20.049

  Integration load balanced across    20 MPI tasks.
  Work distribution over tasks is as follows:
  Task     0 has       3565 integration points.
  Task     1 has       3559 integration points.
  Task     2 has       3423 integration points.
  Task     3 has       3440 integration points.
  Task     4 has       3431 integration points.
  Task     5 has       3428 integration points.
  Task     6 has       3436 integration points.
  Task     7 has       3523 integration points.
  Task     8 has       3501 integration points.
  Task     9 has       3432 integration points.
  Task    10 has       3485 integration points.
  Task    11 has       3426 integration points.
  Task    12 has       3527 integration points.
  Task    13 has       3484 integration points.
  Task    14 has       3562 integration points.
  Task    15 has       3506 integration points.
  Task    16 has       3426 integration points.
  Task    17 has       3531 integration points.
  Task    18 has       3428 integration points.
  Task    19 has       3533 integration points.
  Initializing partition tables, free-atom densities, potentials, etc. across the integration grid (initialize_grid_storage).
  | initialize_grid_storage: Actual outermost partition radius vs. multipole_radius_free
  | (-- VB: in principle, multipole_radius_free should be larger, hence this output)
  | Species        1: Confinement radius =              4.999999999999999 AA, multipole_radius_free =              5.054417573612229 AA.
  | Species        1: outer_partition_radius set to              5.054417573612229 AA .
  | Species        2: Confinement radius =              4.999999999999999 AA, multipole_radius_free =              5.019602836301480 AA.
  | Species        2: outer_partition_radius set to              5.019602836301480 AA .
  | Species        3: Confinement radius =              4.999999999999999 AA, multipole_radius_free =              5.043624274424571 AA.
  | Species        3: outer_partition_radius set to              5.043624274424571 AA .
  | Species        4: Confinement radius =              4.999999999999999 AA, multipole_radius_free =              5.048384829883283 AA.
  | Species        4: outer_partition_radius set to              5.048384829883283 AA .
  | Original list of interatomic distances with          13 x         13 entries is created.
  | Net number of integration points:    69646
  | of which are non-zero points    :    59629
  Renormalizing the initial density to the exact electron count on the 3D integration grid.
  | Initial density: Formal number of electrons (from input files) :      48.0000000000
  | Integrated number of electrons on 3D grid     :      48.0000821016
  | Charge integration error                      :       0.0000821016
  | Normalization factor for density and gradient :       0.9999982896
  Obtaining max. number of non-zero basis functions in each batch (get_n_compute_maxes).
  | Maximal number of non-zero basis functions:      118 in task     0
  | Maximal number of non-zero basis functions:      119 in task     1
  | Maximal number of non-zero basis functions:      118 in task     2
  | Maximal number of non-zero basis functions:      118 in task     3
  | Maximal number of non-zero basis functions:      119 in task     4
  | Maximal number of non-zero basis functions:      118 in task     5
  | Maximal number of non-zero basis functions:      118 in task     6
  | Maximal number of non-zero basis functions:      119 in task     7
  | Maximal number of non-zero basis functions:      119 in task     8
  | Maximal number of non-zero basis functions:      118 in task     9
  | Maximal number of non-zero basis functions:      118 in task    10
  | Maximal number of non-zero basis functions:      118 in task    11
  | Maximal number of non-zero basis functions:      117 in task    12
  | Maximal number of non-zero basis functions:      117 in task    13
  | Maximal number of non-zero basis functions:      118 in task    14
  | Maximal number of non-zero basis functions:      117 in task    15
  | Maximal number of non-zero basis functions:      118 in task    16
  | Maximal number of non-zero basis functions:      119 in task    17
  | Maximal number of non-zero basis functions:      118 in task    18
  | Maximal number of non-zero basis functions:      118 in task    19
  Selecting the method for density update.
  Loop over occupied states selected for charge density update.
  Allocating        0.050 MB for KS_eigenvector
  Integrating Hamiltonian matrix: batch-based integration.
  Time summed over all CPUs for integration: real work        0.517 s, elapsed        0.549 s
  Integrating overlap matrix.
  Time summed over all CPUs for integration: real work        0.215 s, elapsed        0.228 s
  Deallocating overlap matrix.

  Updating Kohn-Sham eigenvalues and eigenvectors using ELSI and the ELPA eigensolver.
  ELPA settings:
  | ELPA solver          1
  | Time full => band           :     0.001 s
  | Time band => tridiagonal    :     0.001 s
  | Time solve tridiagonal      :     0.001 s
  Overlap matrix is nonsingular
  | Lowest eigenvalue of overlap  :  0.42E-02
  | Highest eigenvalue of overlap :  0.62E+01
  Finished singularity check of overlap matrix
  | Time :     0.003 s
  Finished Cholesky decomposition
  | Time :     0.001 s
  Finished transformation to standard eigenproblem
  | Time :     0.001 s
  Starting ELPA eigensolver
  | Time full => tridiagonal    :     0.003 s
  | Time solve tridiagonal      :     0.000 s
  | Time ev tridiagonal => full :     0.000 s
  Finished solving standard eigenproblem
  | Time :     0.003 s
  Finished back-transformation of eigenvectors
  | Time :     0.000 s

  Obtaining occupation numbers and chemical potential using ELSI.
  | Chemical potential (Fermi level):    -9.48907412eV
  Writing Kohn-Sham eigenvalues.

  State    Occupation    Eigenvalue [Ha]    Eigenvalue [eV]
      1       2.00000         -19.007990         -517.23373
      2       2.00000         -18.978261         -516.42477
      3       2.00000         -14.245811         -387.64824
      4       2.00000         -10.166815         -276.65310
      5       2.00000         -10.141235         -275.95703
      6       2.00000         -10.132013         -275.70611
      7       2.00000          -1.188322          -32.33588
      8       2.00000          -1.093087          -29.74440
      9       2.00000          -0.992358          -27.00343
     10       2.00000          -0.860070          -23.40368
     11       2.00000          -0.761317          -20.71648
     12       2.00000          -0.686106          -18.66989
     13       2.00000          -0.617992          -16.81641
     14       2.00000          -0.596645          -16.23552
     15       2.00000          -0.592396          -16.11991
     16       2.00000          -0.566949          -15.42746
     17       2.00000          -0.549047          -14.94034
     18       2.00000          -0.530101          -14.42478
     19       2.00000          -0.526402          -14.32412
     20       2.00000          -0.500197          -13.61104
     21       2.00000          -0.471801          -12.83837
     22       2.00000          -0.428679          -11.66496
     23       2.00000          -0.403744          -10.98643
     24       2.00000          -0.389129          -10.58873
     25       0.00000          -0.160115           -4.35695
     26       0.00000          -0.053780           -1.46342
     27       0.00000          -0.025770           -0.70123
     28       0.00000          -0.017829           -0.48515
     29       0.00000          -0.009103           -0.24769
     30       0.00000           0.006522            0.17747
     31       0.00000           0.019727            0.53681
     32       0.00000           0.025534            0.69482
     33       0.00000           0.045262            1.23163
     34       0.00000           0.090722            2.46866
     35       0.00000           0.094512            2.57179
     36       0.00000           0.116091            3.15901
     37       0.00000           0.152608            4.15266
     38       0.00000           0.195020            5.30676
     39       0.00000           0.220128            5.98999
     40       0.00000           0.240063            6.53244
     41       0.00000           0.250988            6.82973
     42       0.00000           0.285232            7.76157
     43       0.00000           0.293340            7.98219
     44       0.00000           0.317828            8.64853
     45       0.00000           0.328815            8.94752
     46       0.00000           0.358404            9.75267
     47       0.00000           0.362508            9.86434
     48       0.00000           0.378034           10.28682
     49       0.00000           0.424069           11.53949
     50       0.00000           0.451494           12.28577
     51       0.00000           0.484094           13.17286
     52       0.00000           0.542898           14.77300
     53       0.00000           0.568952           15.48197

  Highest occupied state (VBM) at    -10.58873370 eV
  | Occupation number:      2.00000000

  Lowest unoccupied state (CBM) at    -4.35695191 eV
  | Occupation number:      0.00000000

  Overall HOMO-LUMO gap:      6.23178179 eV.
  Calculating total energy contributions from superposition of free atom densities.

  Total energy components:
  | Sum of eigenvalues            :        -188.85292800 Ha       -5138.94963782 eV
  | XC energy correction          :         -41.79028247 Ha       -1137.17144457 eV
  | XC potential correction       :          53.72209710 Ha        1461.85264038 eV
  | Free-atom electrostatic energy:        -146.84641385 Ha       -3995.89422979 eV
  | Hartree energy correction     :           0.00000000 Ha           0.00000000 eV
  | vdW energy correction         :           0.00000000 Ha           0.00000000 eV
  | Entropy correction            :           0.00000000 Ha           0.00000000 eV
  | ---------------------------
  | Total energy                  :        -323.76752722 Ha       -8810.16267180 eV
  | Total energy, T -> 0          :        -323.76752722 Ha       -8810.16267180 eV  <-- do not rely on this value for anything but (periodic) metals
  | Electronic free energy        :        -323.76752722 Ha       -8810.16267180 eV

  Derived energy quantities:
  | Kinetic energy                :         320.49300894 Ha        8721.05849581 eV
  | Electrostatic energy          :        -602.47025369 Ha      -16394.04972304 eV
  | Energy correction for multipole
  | error in Hartree potential    :           0.00000000 Ha           0.00000000 eV
  | Sum of eigenvalues per atom                           :        -395.30381829 eV
  | Total energy (T->0) per atom                          :        -677.70482091 eV  <-- do not rely on this value for anything but (periodic) metals
  | Electronic free energy per atom                       :        -677.70482091 eV
  Initialize hartree_potential_storage
  Max. number of atoms included in rho_multipole:           13

  End scf initialization - timings             :  max(cpu_time)    wall_clock(cpu1)
  | Time for scf. initialization               :        0.094 s           0.094 s
  | Boundary condition initialization          :        0.000 s           0.000 s
  | Integration                                :        0.040 s           0.040 s
  | Solution of K.-S. eqns.                    :        0.010 s           0.010 s
  | Grid partitioning                          :        0.021 s           0.021 s
  | Preloading free-atom quantities on grid    :        0.003 s           0.002 s
  | Free-atom superposition energy             :        0.005 s           0.005 s
  | Total energy evaluation                    :        0.000 s           0.000 s

  Partial memory accounting:
  | Current value for overall tracked memory usage on task 0  :           0.133 MB
  | Peak value for overall tracked memory usage on task 0     :           0.848 MB after allocating wave
  | Largest tracked array allocation on task 0 so far         :           0.181 MB  when allocating H_times_psi
  Note:  These values currently only include a subset of arrays which are explicitly tracked.
  The "true" memory usage will be greater.
------------------------------------------------------------

------------------------------------------------------------
          Begin self-consistency iteration #    1

  Date     :  20200616, Time     :  050756.309
------------------------------------------------------------
  Evaluating new KS density.
  Integration grid: deviation in total charge (<rho> - N_e) =   7.105427E-15
  Pulay mixing of updated and previous charge densities.

  Evaluating partitioned Hartree potential by multipole expansion.
  | Analytical far-field extrapolation by fixed multipoles:
  | Hartree multipole sum: apparent total charge =  -0.231902E-04
  Summing up the Hartree potential.
  Time summed over all CPUs for potential: real work        0.421 s, elapsed        0.431 s
  | RMS charge density error from multipole expansion :   0.594584E-02

  Integrating Hamiltonian matrix: batch-based integration.
  Time summed over all CPUs for integration: real work        0.506 s, elapsed        0.537 s

  Updating Kohn-Sham eigenvalues and eigenvectors using ELSI and the ELPA eigensolver.
  ELPA settings:
  | ELPA solver          1
  Finished transformation to standard eigenproblem
  | Time :     0.000 s
  Starting ELPA eigensolver
  | Time full => tridiagonal    :     0.002 s
  | Time solve tridiagonal      :     0.000 s
  | Time ev tridiagonal => full :     0.000 s
  Finished solving standard eigenproblem
  | Time :     0.003 s
  Finished back-transformation of eigenvectors
  | Time :     0.000 s

  Obtaining occupation numbers and chemical potential using ELSI.
  | Chemical potential (Fermi level):    -4.39796321eV
  Writing Kohn-Sham eigenvalues.

  State    Occupation    Eigenvalue [Ha]    Eigenvalue [eV]
      1       2.00000         -18.908763         -514.53361
      2       2.00000         -18.838242         -512.61465
      3       2.00000         -14.096400         -383.58255
      4       2.00000         -10.115110         -275.24615
      5       2.00000         -10.060934         -273.77195
      6       2.00000         -10.030170         -272.93481
      7       2.00000          -1.140235          -31.02736
      8       2.00000          -1.030981          -28.05441
      9       2.00000          -0.921520          -25.07585
     10       2.00000          -0.795062          -21.63474
     11       2.00000          -0.709172          -19.29755
     12       2.00000          -0.640046          -17.41654
     13       2.00000          -0.561601          -15.28193
     14       2.00000          -0.538199          -14.64515
     15       2.00000          -0.529919          -14.41983
     16       2.00000          -0.505632          -13.75895
     17       2.00000          -0.488869          -13.30280
     18       2.00000          -0.474194          -12.90349
     19       2.00000          -0.467828          -12.73024
     20       2.00000          -0.440980          -11.99966
     21       2.00000          -0.420185          -11.43380
     22       2.00000          -0.368579          -10.02955
     23       2.00000          -0.332270           -9.04153
     24       2.00000          -0.312537           -8.50457
     25       0.00000          -0.120112           -3.26842
     26       0.00000          -0.030180           -0.82125
     27       0.00000          -0.002052           -0.05583
     28       0.00000           0.014332            0.38999
     29       0.00000           0.028173            0.76664
     30       0.00000           0.042754            1.16339
     31       0.00000           0.053530            1.45662
     32       0.00000           0.068715            1.86982
     33       0.00000           0.086268            2.34748
     34       0.00000           0.131479            3.57773
     35       0.00000           0.136976            3.72732
     36       0.00000           0.145077            3.94775
     37       0.00000           0.179769            4.89176
     38       0.00000           0.221474            6.02661
     39       0.00000           0.252792            6.87883
     40       0.00000           0.273492            7.44211
     41       0.00000           0.288395            7.84763
     42       0.00000           0.319833            8.70310
     43       0.00000           0.328779            8.94654
     44       0.00000           0.353361            9.61544
     45       0.00000           0.368591           10.02987
     46       0.00000           0.395958           10.77457
     47       0.00000           0.403547           10.98108
     48       0.00000           0.414737           11.28558
     49       0.00000           0.463965           12.62512
     50       0.00000           0.492894           13.41234
     51       0.00000           0.518050           14.09687
     52       0.00000           0.578942           15.75380
     53       0.00000           0.600457           16.33926

  Highest occupied state (VBM) at     -8.50457251 eV
  | Occupation number:      2.00000000

  Lowest unoccupied state (CBM) at    -3.26841717 eV
  | Occupation number:      0.00000000

  Overall HOMO-LUMO gap:      5.23615534 eV.

  Total energy components:
  | Sum of eigenvalues            :        -185.45485626 Ha       -5046.48340114 eV
  | XC energy correction          :         -42.11804508 Ha       -1146.09031904 eV
  | XC potential correction       :          54.14836537 Ha        1473.45199014 eV
  | Free-atom electrostatic energy:        -146.84641385 Ha       -3995.89422979 eV
  | Hartree energy correction     :          -3.31586530 Ha         -90.22928567 eV
  | vdW energy correction         :           0.00000000 Ha           0.00000000 eV
  | Entropy correction            :           0.00000000 Ha           0.00000000 eV
  | ---------------------------
  | Total energy                  :        -323.58681513 Ha       -8805.24524550 eV
  | Total energy, T -> 0          :        -323.58681513 Ha       -8805.24524550 eV  <-- do not rely on this value for anything but (periodic) metals
  | Electronic free energy        :        -323.58681513 Ha       -8805.24524550 eV

  Derived energy quantities:
  | Kinetic energy                :         322.27816702 Ha        8769.63511882 eV
  | Electrostatic energy          :        -603.74693707 Ha      -16428.79004527 eV
  | Energy correction for multipole
  | error in Hartree potential    :           0.01219124 Ha           0.33174061 eV
  | Sum of eigenvalues per atom                           :        -388.19103086 eV
  | Total energy (T->0) per atom                          :        -677.32655735 eV  <-- do not rely on this value for anything but (periodic) metals
  | Electronic free energy per atom                       :        -677.32655735 eV

  Self-consistency convergence accuracy:
  | Change of charge density      :  0.5815E+00
  | Change of sum of eigenvalues  :  0.9247E+02 eV
  | Change of total energy        :  0.4917E+01 eV

  End self-consistency iteration #     1       :  max(cpu_time)    wall_clock(cpu1)
  | Time for this iteration                    :        0.078 s           0.078 s
  | Charge density update                      :        0.022 s           0.021 s
  | Density mixing                             :        0.000 s           0.001 s
  | Hartree multipole update                   :        0.001 s           0.001 s
  | Hartree multipole summation                :        0.022 s           0.022 s
  | Integration                                :        0.027 s           0.028 s
  | Solution of K.-S. eqns.                    :        0.004 s           0.004 s
  | Total energy evaluation                    :        0.000 s           0.001 s

  Partial memory accounting:
  | Current value for overall tracked memory usage on task 0  :           0.133 MB
  | Peak value for overall tracked memory usage on task 0     :           0.858 MB after allocating gradient_basis_wave
  | Largest tracked array allocation on task 0 so far         :           0.544 MB  when allocating gradient_basis_wave
  Note:  These values currently only include a subset of arrays which are explicitly tracked.
  The "true" memory usage will be greater.
------------------------------------------------------------

------------------------------------------------------------
          Begin self-consistency iteration #    2

  Date     :  20200616, Time     :  050756.393
------------------------------------------------------------
  Evaluating new KS density.
  Integration grid: deviation in total charge (<rho> - N_e) =   3.552714E-14
  Pulay mixing of updated and previous charge densities.

  Evaluating partitioned Hartree potential by multipole expansion.
  | Analytical far-field extrapolation by fixed multipoles:
  | Hartree multipole sum: apparent total charge =  -0.158172E-03
  Summing up the Hartree potential.
  Time summed over all CPUs for potential: real work        0.421 s, elapsed        0.433 s
  | RMS charge density error from multipole expansion :   0.142927E-01

  Integrating Hamiltonian matrix: batch-based integration.
  Time summed over all CPUs for integration: real work        0.505 s, elapsed        0.537 s

  Updating Kohn-Sham eigenvalues and eigenvectors using ELSI and the ELPA eigensolver.
  ELPA settings:
  | ELPA solver          1
  Finished transformation to standard eigenproblem
  | Time :     0.000 s
  Starting ELPA eigensolver
  | Time full => tridiagonal    :     0.002 s
  | Time solve tridiagonal      :     0.000 s
  | Time ev tridiagonal => full :     0.000 s
  Finished solving standard eigenproblem
  | Time :     0.003 s
  Finished back-transformation of eigenvectors
  | Time :     0.000 s

  Obtaining occupation numbers and chemical potential using ELSI.
  | Chemical potential (Fermi level):    -3.26030894eV
  Highest occupied state (VBM) at     -6.37014428 eV
  | Occupation number:      2.00000000

  Lowest unoccupied state (CBM) at    -1.93307250 eV
  | Occupation number:      0.00000000

  Overall HOMO-LUMO gap:      4.43707178 eV.

  Checking to see if s.c.f. parameters should be adjusted.

  Total energy components:
  | Sum of eigenvalues            :        -181.82480086 Ha       -4947.70456795 eV
  | XC energy correction          :         -42.48403804 Ha       -1156.04949414 eV
  | XC potential correction       :          54.62278483 Ha        1486.36160049 eV
  | Free-atom electrostatic energy:        -146.84641385 Ha       -3995.89422979 eV
  | Hartree energy correction     :          -6.97501051 Ha        -189.79969291 eV
  | vdW energy correction         :           0.00000000 Ha           0.00000000 eV
  | Entropy correction            :           0.00000000 Ha           0.00000000 eV
  | ---------------------------
  | Total energy                  :        -323.50747843 Ha       -8803.08638430 eV
  | Total energy, T -> 0          :        -323.50747843 Ha       -8803.08638430 eV  <-- do not rely on this value for anything but (periodic) metals
  | Electronic free energy        :        -323.50747843 Ha       -8803.08638430 eV

  Derived energy quantities:
  | Kinetic energy                :         323.62671342 Ha        8806.33093341 eV
  | Electrostatic energy          :        -604.65015382 Ha      -16453.36782357 eV
  | Energy correction for multipole
  | error in Hartree potential    :           0.02728595 Ha           0.74248853 eV
  | Sum of eigenvalues per atom                           :        -380.59265907 eV
  | Total energy (T->0) per atom                          :        -677.16049110 eV  <-- do not rely on this value for anything but (periodic) metals
  | Electronic free energy per atom                       :        -677.16049110 eV

  Self-consistency convergence accuracy:
  | Change of charge density      :  0.3645E+00
  | Change of sum of eigenvalues  :  0.9878E+02 eV
  | Change of total energy        :  0.2159E+01 eV

  End self-consistency iteration #     2       :  max(cpu_time)    wall_clock(cpu1)
  | Time for this iteration                    :        0.081 s           0.078 s
  | Charge density update                      :        0.025 s           0.022 s
  | Density mixing                             :        0.001 s           0.001 s
  | Hartree multipole update                   :        0.001 s           0.001 s
  | Hartree multipole summation                :        0.022 s           0.022 s
  | Integration                                :        0.027 s           0.028 s
  | Solution of K.-S. eqns.                    :        0.004 s           0.004 s
  | Total energy evaluation                    :        0.000 s           0.000 s

  Partial memory accounting:
  | Current value for overall tracked memory usage on task 0  :           0.134 MB
  | Peak value for overall tracked memory usage on task 0     :           0.858 MB after allocating gradient_basis_wave
  | Largest tracked array allocation on task 0 so far         :           0.544 MB  when allocating gradient_basis_wave
  Note:  These values currently only include a subset of arrays which are explicitly tracked.
  The "true" memory usage will be greater.
------------------------------------------------------------

------------------------------------------------------------
          Begin self-consistency iteration #    3

  Date     :  20200616, Time     :  050756.476
------------------------------------------------------------
  Evaluating new KS density.
  Integration grid: deviation in total charge (<rho> - N_e) =   2.842171E-14
  Pulay mixing of updated and previous charge densities.

  Evaluating partitioned Hartree potential by multipole expansion.
  | Analytical far-field extrapolation by fixed multipoles:
  | Hartree multipole sum: apparent total charge =  -0.247359E-03
  Summing up the Hartree potential.
  Time summed over all CPUs for potential: real work        0.421 s, elapsed        0.435 s
  | RMS charge density error from multipole expansion :   0.226028E-01

  Integrating Hamiltonian matrix: batch-based integration.
  Time summed over all CPUs for integration: real work        0.505 s, elapsed        0.538 s

  Updating Kohn-Sham eigenvalues and eigenvectors using ELSI and the ELPA eigensolver.
  ELPA settings:
  | ELPA solver          1
  Finished transformation to standard eigenproblem
  | Time :     0.000 s
  Starting ELPA eigensolver
  | Time full => tridiagonal    :     0.002 s
  | Time solve tridiagonal      :     0.000 s
  | Time ev tridiagonal => full :     0.000 s
  Finished solving standard eigenproblem
  | Time :     0.003 s
  Finished back-transformation of eigenvectors
  | Time :     0.000 s

  Obtaining occupation numbers and chemical potential using ELSI.
  | Chemical potential (Fermi level):    -2.62423307eV
  Highest occupied state (VBM) at     -5.72203890 eV
  | Occupation number:      2.00000000

  Lowest unoccupied state (CBM) at    -1.29546816 eV
  | Occupation number:      0.00000000

  Overall HOMO-LUMO gap:      4.42657074 eV.

  Total energy components:
  | Sum of eigenvalues            :        -180.59594362 Ha       -4914.26566100 eV
  | XC energy correction          :         -42.63089271 Ha       -1160.04561313 eV
  | XC potential correction       :          54.80980206 Ha        1491.45059827 eV
  | Free-atom electrostatic energy:        -146.84641385 Ha       -3995.89422979 eV
  | Hartree energy correction     :          -8.23175353 Ha        -223.99741035 eV
  | vdW energy correction         :           0.00000000 Ha           0.00000000 eV
  | Entropy correction            :           0.00000000 Ha           0.00000000 eV
  | ---------------------------
  | Total energy                  :        -323.49520165 Ha       -8802.75231599 eV
  | Total energy, T -> 0          :        -323.49520165 Ha       -8802.75231599 eV  <-- do not rely on this value for anything but (periodic) metals
  | Electronic free energy        :        -323.49520165 Ha       -8802.75231599 eV

  Derived energy quantities:
  | Kinetic energy                :         323.17275642 Ha        8793.97813475 eV
  | Electrostatic energy          :        -604.03706535 Ha      -16436.68483761 eV
  | Energy correction for multipole
  | error in Hartree potential    :           0.03888957 Ha           1.05823891 eV
  | Sum of eigenvalues per atom                           :        -378.02043546 eV
  | Total energy (T->0) per atom                          :        -677.13479354 eV  <-- do not rely on this value for anything but (periodic) metals
  | Electronic free energy per atom                       :        -677.13479354 eV

  Self-consistency convergence accuracy:
  | Change of charge density      :  0.2016E+00
  | Change of sum of eigenvalues  :  0.3344E+02 eV
  | Change of total energy        :  0.3341E+00 eV

  End self-consistency iteration #     3       :  max(cpu_time)    wall_clock(cpu1)
  | Time for this iteration                    :        0.082 s           0.080 s
  | Charge density update                      :        0.026 s           0.024 s
  | Density mixing                             :        0.001 s           0.001 s
  | Hartree multipole update                   :        0.001 s           0.001 s
  | Hartree multipole summation                :        0.022 s           0.022 s
  | Integration                                :        0.027 s           0.028 s
  | Solution of K.-S. eqns.                    :        0.004 s           0.004 s
  | Total energy evaluation                    :        0.000 s           0.000 s

  Partial memory accounting:
  | Current value for overall tracked memory usage on task 0  :           0.134 MB
  | Peak value for overall tracked memory usage on task 0     :           0.859 MB after allocating gradient_basis_wave
  | Largest tracked array allocation on task 0 so far         :           0.544 MB  when allocating gradient_basis_wave
  Note:  These values currently only include a subset of arrays which are explicitly tracked.
  The "true" memory usage will be greater.
------------------------------------------------------------

------------------------------------------------------------
          Begin self-consistency iteration #    4

  Date     :  20200616, Time     :  050756.562
------------------------------------------------------------
  Evaluating new KS density.
  Integration grid: deviation in total charge (<rho> - N_e) =   2.842171E-14
  Pulay mixing of updated and previous charge densities.

  Evaluating partitioned Hartree potential by multipole expansion.
  | Analytical far-field extrapolation by fixed multipoles:
  | Hartree multipole sum: apparent total charge =  -0.276088E-03
  Summing up the Hartree potential.
  Time summed over all CPUs for potential: real work        0.412 s, elapsed        0.425 s
  | RMS charge density error from multipole expansion :   0.259688E-01

  Integrating Hamiltonian matrix: batch-based integration.
  Time summed over all CPUs for integration: real work        0.506 s, elapsed        0.538 s

  Updating Kohn-Sham eigenvalues and eigenvectors using ELSI and the ELPA eigensolver.
  ELPA settings:
  | ELPA solver          1
  Finished transformation to standard eigenproblem
  | Time :     0.000 s
  Starting ELPA eigensolver
  | Time full => tridiagonal    :     0.002 s
  | Time solve tridiagonal      :     0.000 s
  | Time ev tridiagonal => full :     0.000 s
  Finished solving standard eigenproblem
  | Time :     0.003 s
  Finished back-transformation of eigenvectors
  | Time :     0.000 s

  Obtaining occupation numbers and chemical potential using ELSI.
  | Chemical potential (Fermi level):    -2.51066087eV
  Highest occupied state (VBM) at     -5.55408025 eV
  | Occupation number:      2.00000000

  Lowest unoccupied state (CBM) at    -1.21595841 eV
  | Occupation number:      0.00000000

  Overall HOMO-LUMO gap:      4.33812185 eV.

  Total energy components:
  | Sum of eigenvalues            :        -180.44808443 Ha       -4910.24220779 eV
  | XC energy correction          :         -42.66898314 Ha       -1161.08210636 eV
  | XC potential correction       :          54.85781960 Ha        1492.75722201 eV
  | Free-atom electrostatic energy:        -146.84641385 Ha       -3995.89422979 eV
  | Hartree energy correction     :          -8.38880780 Ha        -228.27107442 eV
  | vdW energy correction         :           0.00000000 Ha           0.00000000 eV
  | Entropy correction            :           0.00000000 Ha           0.00000000 eV
  | ---------------------------
  | Total energy                  :        -323.49446962 Ha       -8802.73239635 eV
  | Total energy, T -> 0          :        -323.49446962 Ha       -8802.73239635 eV  <-- do not rely on this value for anything but (periodic) metals
  | Electronic free energy        :        -323.49446962 Ha       -8802.73239635 eV

  Derived energy quantities:
  | Kinetic energy                :         322.81633084 Ha        8784.27930137 eV
  | Electrostatic energy          :        -603.64181732 Ha      -16425.92959135 eV
  | Energy correction for multipole
  | error in Hartree potential    :           0.04313450 Ha           1.17374940 eV
  | Sum of eigenvalues per atom                           :        -377.71093906 eV
  | Total energy (T->0) per atom                          :        -677.13326126 eV  <-- do not rely on this value for anything but (periodic) metals
  | Electronic free energy per atom                       :        -677.13326126 eV

  Self-consistency convergence accuracy:
  | Change of charge density      :  0.6143E-01
  | Change of sum of eigenvalues  :  0.4023E+01 eV
  | Change of total energy        :  0.1992E-01 eV

  End self-consistency iteration #     4       :  max(cpu_time)    wall_clock(cpu1)
  | Time for this iteration                    :        0.081 s           0.078 s
  | Charge density update                      :        0.026 s           0.022 s
  | Density mixing                             :        0.001 s           0.001 s
  | Hartree multipole update                   :        0.001 s           0.001 s
  | Hartree multipole summation                :        0.022 s           0.022 s
  | Integration                                :        0.027 s           0.027 s
  | Solution of K.-S. eqns.                    :        0.004 s           0.004 s
  | Total energy evaluation                    :        0.000 s           0.001 s

  Partial memory accounting:
  | Current value for overall tracked memory usage on task 0  :           0.134 MB
  | Peak value for overall tracked memory usage on task 0     :           0.859 MB after allocating gradient_basis_wave
  | Largest tracked array allocation on task 0 so far         :           0.544 MB  when allocating gradient_basis_wave
  Note:  These values currently only include a subset of arrays which are explicitly tracked.
  The "true" memory usage will be greater.
------------------------------------------------------------

------------------------------------------------------------
          Begin self-consistency iteration #    5

  Date     :  20200616, Time     :  050756.645
------------------------------------------------------------
  Evaluating new KS density.
  Integration grid: deviation in total charge (<rho> - N_e) =   1.421085E-14
  Pulay mixing of updated and previous charge densities.

  Evaluating partitioned Hartree potential by multipole expansion.
  | Analytical far-field extrapolation by fixed multipoles:
  | Hartree multipole sum: apparent total charge =  -0.270370E-03
  Summing up the Hartree potential.
  Time summed over all CPUs for potential: real work        0.412 s, elapsed        0.424 s
  | RMS charge density error from multipole expansion :   0.256895E-01

  Integrating Hamiltonian matrix: batch-based integration.
  Time summed over all CPUs for integration: real work        0.506 s, elapsed        0.537 s

  Updating Kohn-Sham eigenvalues and eigenvectors using ELSI and the ELPA eigensolver.
  ELPA settings:
  | ELPA solver          1
  Finished transformation to standard eigenproblem
  | Time :     0.000 s
  Starting ELPA eigensolver
  | Time full => tridiagonal    :     0.002 s
  | Time solve tridiagonal      :     0.000 s
  | Time ev tridiagonal => full :     0.000 s
  Finished solving standard eigenproblem
  | Time :     0.003 s
  Finished back-transformation of eigenvectors
  | Time :     0.000 s

  Obtaining occupation numbers and chemical potential using ELSI.
  | Chemical potential (Fermi level):    -2.56433425eV
  Highest occupied state (VBM) at     -5.63162078 eV
  | Occupation number:      2.00000000

  Lowest unoccupied state (CBM) at    -1.29171245 eV
  | Occupation number:      0.00000000

  Overall HOMO-LUMO gap:      4.33990833 eV.

  Total energy components:
  | Sum of eigenvalues            :        -180.61685044 Ha       -4914.83456456 eV
  | XC energy correction          :         -42.64770297 Ha       -1160.50304364 eV
  | XC potential correction       :          54.83024180 Ha        1492.00679183 eV
  | Free-atom electrostatic energy:        -146.84641385 Ha       -3995.89422979 eV
  | Hartree energy correction     :          -8.21343797 Ha        -223.49901867 eV
  | vdW energy correction         :           0.00000000 Ha           0.00000000 eV
  | Entropy correction            :           0.00000000 Ha           0.00000000 eV
  | ---------------------------
  | Total energy                  :        -323.49416344 Ha       -8802.72406483 eV
  | Total energy, T -> 0          :        -323.49416344 Ha       -8802.72406483 eV  <-- do not rely on this value for anything but (periodic) metals
  | Electronic free energy        :        -323.49416344 Ha       -8802.72406483 eV

  Derived energy quantities:
  | Kinetic energy                :         322.72798831 Ha        8781.87537879 eV
  | Electrostatic energy          :        -603.57444877 Ha      -16424.09639997 eV
  | Energy correction for multipole
  | error in Hartree potential    :           0.04250760 Ha           1.15669068 eV
  | Sum of eigenvalues per atom                           :        -378.06419727 eV
  | Total energy (T->0) per atom                          :        -677.13262037 eV  <-- do not rely on this value for anything but (periodic) metals
  | Electronic free energy per atom                       :        -677.13262037 eV

  Self-consistency convergence accuracy:
  | Change of charge density      :  0.2077E-01
  | Change of sum of eigenvalues  : -0.4592E+01 eV
  | Change of total energy        :  0.8332E-02 eV

  End self-consistency iteration #     5       :  max(cpu_time)    wall_clock(cpu1)
  | Time for this iteration                    :        0.082 s           0.080 s
  | Charge density update                      :        0.027 s           0.024 s
  | Density mixing                             :        0.001 s           0.001 s
  | Hartree multipole update                   :        0.001 s           0.001 s
  | Hartree multipole summation                :        0.022 s           0.022 s
  | Integration                                :        0.027 s           0.027 s
  | Solution of K.-S. eqns.                    :        0.004 s           0.004 s
  | Total energy evaluation                    :        0.000 s           0.000 s

  Partial memory accounting:
  | Current value for overall tracked memory usage on task 0  :           0.134 MB
  | Peak value for overall tracked memory usage on task 0     :           0.859 MB after allocating gradient_basis_wave
  | Largest tracked array allocation on task 0 so far         :           0.544 MB  when allocating gradient_basis_wave
  Note:  These values currently only include a subset of arrays which are explicitly tracked.
  The "true" memory usage will be greater.
------------------------------------------------------------

------------------------------------------------------------
          Begin self-consistency iteration #    6

  Date     :  20200616, Time     :  050756.728
------------------------------------------------------------
  Evaluating new KS density.
  Integration grid: deviation in total charge (<rho> - N_e) =   1.421085E-14
  Pulay mixing of updated and previous charge densities.

[...]
  |   Hirshfeld dipole moment :      0.06271325
  |   Hirshfeld second moments:     -0.01403021       0.01110662       0.01959003
  |                                  0.01110662      -0.01556916       0.01390214
  |                                  0.01959003       0.01390214       0.00534041
  ----------------------------------------------------------------------
  | Atom    12: O
  |   Hirshfeld charge        :     -0.13536742
  |   Free atom volume        :     23.61338643
  |   Hirshfeld volume        :     20.52474326
  |   Hirshfeld dipole vector :      0.02850143      -0.02215227      -0.00554984
  |   Hirshfeld dipole moment :      0.03652198
  |   Hirshfeld second moments:      0.05306022       0.03262839      -0.00299364
  |                                  0.03262839       0.08411994      -0.01068032
  |                                 -0.00299364      -0.01068032       0.06877392
  ----------------------------------------------------------------------
  | Atom    13: H
  |   Hirshfeld charge        :      0.17331521
  |   Free atom volume        :      9.95071624
  |   Hirshfeld volume        :      6.34026656
  |   Hirshfeld dipole vector :     -0.04411333      -0.10220019       0.02320168
  |   Hirshfeld dipole moment :      0.11370656
  |   Hirshfeld second moments:      0.09984893       0.02215907       0.00149236
  |                                  0.02215907       0.10285567      -0.00237587
  |                                  0.00149236      -0.00237587       0.12219006
  ----------------------------------------------------------------------


  Total energy components:
  | Sum of eigenvalues            :        -180.64108113 Ha       -4915.49391512 eV
  | XC energy correction          :         -42.64043022 Ha       -1160.30514205 eV
  | XC potential correction       :          54.82088531 Ha        1491.75218886 eV
  | Free-atom electrostatic energy:        -146.84641385 Ha       -3995.89422979 eV
  | Hartree energy correction     :          -8.18704113 Ha        -222.78072401 eV
  | vdW energy correction         :          -0.00326252 Ha          -0.08877756 eV
  | Entropy correction            :           0.00000000 Ha           0.00000000 eV
  | ---------------------------
  | Total energy                  :        -323.49734353 Ha       -8802.81059966 eV
  | Total energy, T -> 0          :        -323.49734353 Ha       -8802.81059966 eV  <-- do not rely on this value for anything but (periodic) metals
  | Electronic free energy        :        -323.49734353 Ha       -8802.81059966 eV

  Derived energy quantities:
  | Kinetic energy                :         322.59769533 Ha        8778.32992644 eV
  | Electrostatic energy          :        -603.45134613 Ha      -16420.74660649 eV
  | Energy correction for multipole
  | error in Hartree potential    :           0.04284897 Ha           1.16597979 eV
  | Sum of eigenvalues per atom                           :        -378.11491655 eV
  | Total energy (T->0) per atom                          :        -677.13927690 eV  <-- do not rely on this value for anything but (periodic) metals
  | Electronic free energy per atom                       :        -677.13927690 eV

  atomic forces [eV/Ang]:
  -----------------------
  atom #    1
   Hellmann-Feynman              :  0.955079E+00  0.131285E+01  0.182070E+01
   Ionic forces                  :  0.000000E+00  0.000000E+00  0.000000E+00
   Multipole                     : -0.456019E-01  0.492593E+00 -0.370862E+00
   Pulay + GGA                   : -0.129420E+01 -0.108443E+01 -0.173969E+01
   Van der Waals                 :  0.199719E-02  0.480442E-03 -0.166738E-02
   ----------------------------------------------------------------
   Total forces(   1)            : -0.382724E+00  0.721491E+00 -0.291518E+00
  atom #    2
   Hellmann-Feynman              :  0.109644E+00 -0.107952E+00 -0.233016E+00
   Ionic forces                  :  0.000000E+00  0.000000E+00  0.000000E+00
   Multipole                     :  0.210168E+00  0.330182E-02 -0.256654E-01
   Pulay + GGA                   : -0.138972E+00 -0.430633E-01  0.294943E-02
   Van der Waals                 : -0.232271E-02 -0.653419E-03  0.208158E-02
   ----------------------------------------------------------------
   Total forces(   2)            :  0.178516E+00 -0.148367E+00 -0.253651E+00
  atom #    3
   Hellmann-Feynman              :  0.371100E+01 -0.104196E+02 -0.496092E+01
   Ionic forces                  :  0.000000E+00  0.000000E+00  0.000000E+00
   Multipole                     : -0.448767E-01 -0.374750E-01 -0.866369E+00
   Pulay + GGA                   : -0.329211E+01  0.919096E+01  0.630920E+01
   Van der Waals                 :  0.544900E-03 -0.208449E-03 -0.146921E-02
   ----------------------------------------------------------------
   Total forces(   3)            :  0.374564E+00 -0.126632E+01  0.480441E+00
  atom #    4
   Hellmann-Feynman              : -0.183935E+00  0.300838E+00 -0.482032E-01
   Ionic forces                  :  0.000000E+00  0.000000E+00  0.000000E+00
   Multipole                     : -0.877645E-01  0.208831E-01 -0.442032E-01
   Pulay + GGA                   :  0.225836E+00 -0.790081E-01 -0.399025E-01
   Van der Waals                 : -0.243325E-02 -0.525897E-02 -0.515519E-02
   ----------------------------------------------------------------
   Total forces(   4)            : -0.482968E-01  0.237454E+00 -0.137464E+00
  atom #    5
   Hellmann-Feynman              : -0.955133E-01  0.290104E+00  0.321539E-01
   Ionic forces                  :  0.000000E+00  0.000000E+00  0.000000E+00
   Multipole                     : -0.116343E-01  0.659216E-01 -0.751054E-01
   Pulay + GGA                   : -0.222878E-01 -0.247136E+00  0.408680E-01
   Van der Waals                 : -0.825225E-03 -0.441369E-02 -0.455899E-02
   ----------------------------------------------------------------
   Total forces(   5)            : -0.130261E+00  0.104476E+00 -0.664255E-02
  atom #    6
   Hellmann-Feynman              :  0.168767E+00 -0.108074E+01  0.385116E+00
   Ionic forces                  :  0.000000E+00  0.000000E+00  0.000000E+00
   Multipole                     : -0.195717E+00  0.817095E+00  0.255963E+00
   Pulay + GGA                   :  0.153924E+00  0.140111E+00 -0.129173E+00
   Van der Waals                 :  0.401361E-02  0.598888E-02  0.120272E-01
   ----------------------------------------------------------------
   Total forces(   6)            :  0.130987E+00 -0.117544E+00  0.523934E+00
  atom #    7
   Hellmann-Feynman              :  0.121605E+00  0.118326E+00  0.187425E+00
   Ionic forces                  :  0.000000E+00  0.000000E+00  0.000000E+00
   Multipole                     :  0.431603E-01  0.114198E+00  0.820626E-01
   Pulay + GGA                   : -0.848999E-01 -0.531567E-01 -0.520308E-01
   Van der Waals                 : -0.380359E-02 -0.452185E-02 -0.390102E-02
   ----------------------------------------------------------------
   Total forces(   7)            :  0.760622E-01  0.174846E+00  0.213556E+00
  atom #    8
   Hellmann-Feynman              :  0.253851E-01  0.535374E-01 -0.121635E+00
   Ionic forces                  :  0.000000E+00  0.000000E+00  0.000000E+00
   Multipole                     : -0.618840E-01  0.135634E+00 -0.124578E-01
   Pulay + GGA                   :  0.247899E-01 -0.708028E-01  0.719156E-01
   Van der Waals                 : -0.373550E-03  0.188022E-02  0.950403E-02
   ----------------------------------------------------------------
   Total forces(   8)            : -0.120825E-01  0.120248E+00 -0.526729E-01
  atom #    9
   Hellmann-Feynman              : -0.143501E+00  0.138369E+00  0.105451E+00
   Ionic forces                  :  0.000000E+00  0.000000E+00  0.000000E+00
   Multipole                     : -0.981247E-01  0.369975E-01  0.966573E-01
   Pulay + GGA                   :  0.677047E-01  0.152258E-01 -0.801265E-01
   Van der Waals                 :  0.169994E-02 -0.203662E-02 -0.555666E-02
   ----------------------------------------------------------------
   Total forces(   9)            : -0.172221E+00  0.188555E+00  0.116426E+00
  atom #   10
   Hellmann-Feynman              :  0.436400E+01  0.243992E+01 -0.339648E+01
   Ionic forces                  :  0.000000E+00  0.000000E+00  0.000000E+00
   Multipole                     :  0.676269E-01 -0.293368E+00  0.848829E-01
   Pulay + GGA                   : -0.227126E+01 -0.140769E+01  0.185204E+01
   Van der Waals                 :  0.341531E-02 -0.173416E-02  0.179326E-02
   ----------------------------------------------------------------
   Total forces(  10)            :  0.216378E+01  0.737126E+00 -0.145776E+01
  atom #   11
   Hellmann-Feynman              :  0.902991E+01 -0.117341E+02  0.554870E+00
   Ionic forces                  :  0.000000E+00  0.000000E+00  0.000000E+00
   Multipole                     :  0.440340E+00 -0.862567E+00  0.242036E+00
   Pulay + GGA                   : -0.808954E+01  0.116960E+02 -0.126405E+01
   Van der Waals                 : -0.371966E-02  0.584265E-02 -0.191492E-04
   ----------------------------------------------------------------
   Total forces(  11)            :  0.137699E+01 -0.894750E+00 -0.467166E+00
  atom #   12
   Hellmann-Feynman              : -0.105100E+02  0.121294E+02  0.247954E+01
   Ionic forces                  :  0.000000E+00  0.000000E+00  0.000000E+00
   Multipole                     : -0.136526E+01  0.145427E+00  0.800049E+00
   Pulay + GGA                   :  0.886906E+01 -0.116659E+02 -0.268623E+01
   Van der Waals                 : -0.119090E-03 -0.314589E-02  0.125511E-03
   ----------------------------------------------------------------
   Total forces(  12)            : -0.300632E+01  0.605818E+00  0.593486E+00
  atom #   13
   Hellmann-Feynman              : -0.646614E+00 -0.713105E+00  0.775436E+00
   Ionic forces                  :  0.000000E+00  0.000000E+00  0.000000E+00
   Multipole                     :  0.178921E-01 -0.969205E-01  0.163234E-01
   Pulay + GGA                   :  0.770486E-01  0.332040E+00 -0.522999E-01
   Van der Waals                 :  0.192612E-02  0.778084E-02 -0.320402E-02
   ----------------------------------------------------------------
   Total forces(  13)            : -0.549747E+00 -0.470204E+00  0.736256E+00

  Timings for VdW correction (Tkatchenko-Scheffler 2009 or later):
  | CPU time:        0.009 s, Wall clock time:        0.009 s.
  Removing unitary transformations (pure translations, rotations) from forces on atoms.
  Atomic forces before filtering:
  | Net force on center of mass :  -0.755656E-03 -0.716738E-02 -0.277770E-02 eV/A
  | Net torque on center of mass:   0.575530E-02  0.220836E-02  0.503976E-02 eV
  Atomic forces after filtering:
  | Net force on center of mass :  -0.892031E-16 -0.892031E-16  0.892031E-16 eV/A
  | Net torque on center of mass:  -0.472042E-15  0.755268E-15  0.132172E-14 eV

  Energy and forces in a compact form:
  | Total energy uncorrected      :         -0.880281059965794E+04 eV
  | Total energy corrected        :         -0.880281059965794E+04 eV  <-- do not rely on this value for anything but (periodic) metals
  | Electronic free energy        :         -0.880281059965794E+04 eV
  Total atomic forces (unitary forces cleaned) [eV/Ang]:
  |   1         -0.382644331768293E+00          0.721937113017527E+00         -0.291268551889314E+00
  |   2          0.178595511604996E+00         -0.148072275108993E+00         -0.253317426108818E+00
  |   3          0.374751188598557E+00         -0.126600563901300E+01          0.480654647011268E+00
  |   4         -0.481119312613070E-01          0.237906021295596E+00         -0.137326503264750E+00
  |   5         -0.129922523353343E+00          0.104673572958636E+00         -0.652337279487179E-02
  |   6          0.131185027242654E+00         -0.116926098799372E+00          0.523966189106071E+00
  |   7          0.762860252465421E-01          0.175426370795423E+00          0.213581858195590E+00
  |   8         -0.117314120341391E-01          0.120822112575703E+00         -0.527744961100370E-01
  |   9         -0.172114119555130E+00          0.189384253385614E+00          0.116435278837305E+00
  |  10          0.216362233768975E+01          0.737732423528470E+00         -0.145735843209789E+01
  |  11          0.137669366721980E+01         -0.894223154472429E+00         -0.466568160280327E+00
  |  12         -0.300652183964184E+01          0.606667037001042E+00          0.593800158040785E+00
  |  13         -0.550087599988244E+00         -0.469321737164217E+00          0.736698811354990E+00

  ------------------------------------ 
  Start decomposition of the XC Energy 
  ------------------------------------ 
  X and C from original XC functional choice 
  Hartree-Fock Energy :          0.000000000 Ha              0.000000000 eV
  X Energy            :        -41.040205392 Ha          -1116.760808893 eV
  C Energy            :         -1.600224831 Ha            -43.544333153 eV
  Total XC Energy     :        -42.640430223 Ha          -1160.305142046 eV
  ------------------------------------ 
  LDA X and C from self-consistent density 
  X Energy LDA        :        -37.258578902 Ha          -1013.857516420 eV
  C Energy LDA        :         -3.138640186 Ha            -85.406744901 eV
  ------------------------------------ 
  End decomposition of the XC Energy 
  ------------------------------------ 

------------------------------------------------------------

------------------------------------------------------------------------------
  Final output of selected total energy values:

  The following output summarizes some interesting total energy values
  at the end of a run (AFTER all relaxation, molecular dynamics, etc.).

  | Total energy of the DFT / Hartree-Fock s.c.f. calculation      :          -8802.810599658 eV
  | Final zero-broadening corrected energy (caution - metals only) :          -8802.810599658 eV
  | For reference only, the value of 1 Hartree used in FHI-aims is :             27.211384500 eV

  Before relying on these values, please be sure to understand exactly which
  total energy value is referred to by a given number. Different objects may
  all carry the same name 'total energy'. Definitions:

  Total energy of the DFT / Hartree-Fock s.c.f. calculation:
  | Note that this energy does not include ANY quantities calculated after the
  | s.c.f. cycle, in particular not ANY RPA, MP2, etc. many-body perturbation terms.

  Final zero-broadening corrected energy:
  | For metallic systems only, a broadening of the occupation numbers at the Fermi
  | level can be extrapolated back to zero broadening by an electron-gas inspired
  | formula. For all systems that are not real metals, this value can be
  | meaningless and should be avoided.

------------------------------------------------------------------------------
  Methods described in the following list of references were used in this FHI-aims run.
  If you publish the results, please make sure to cite these reference if they apply.
  FHI-aims is an academic code, and for our developers (often, Ph.D. students
  and postdocs), scientific credit in the community is essential.
  Thank you for helping us!

  For any use of FHI-aims, please cite:

    Volker Blum, Ralf Gehrke, Felix Hanke, Paula Havu, Ville Havu,
    Xinguo Ren, Karsten Reuter, and Matthias Scheffler
    'Ab initio molecular simulations with numeric atom-centered orbitals'
    Computer Physics Communications 180, 2175-2196 (2009)
    http://dx.doi.org/10.1016/j.cpc.2009.06.022


  The scalable eigensolver library ELPA was used in your run.
  ELPA is essential especially for large systems on hundreds or thousands of CPUs.
  For ELPA, please cite:

    Andreas Marek, Volker Blum, Rainer Johanni, Ville Havu, Bruno Lang,
    Thomas Auckenthaler, Alexander Heinecke, Hans-Joachim Bungartz, and Hermann Lederer,
    'The ELPA Library - Scalable Parallel Eigenvalue Solutions
    for Electronic Structure Theory and Computational Science'
    The Journal of Physics: Condensed Matter 26, 213201 (2014).
    http://dx.doi.org/10.1088/0953-8984/26/21/213201


  The ELSI infrastructure was used in your run to solve the Kohn-Sham electronic structure.
  Please check out http://elsi-interchange.org to learn more.
  If scalability is important for your project, please acknowledge ELSI by citing:

    V. W-z. Yu, F. Corsetti, A. Garcia, W. P. Huhn, M. Jacquelin, W. Jia,
    B. Lange, L. Lin, J. Lu, W. Mi, A. Seifitokaldani, A. Vazquez-Mayagoitia,
    C. Yang, H. Yang, and V. Blum
    'ELSI: A unified software interface for Kohn-Sham electronic structure solvers'
    Computer Physics Communications 222, 267-285 (2018).
    http://dx.doi.org/10.1016/j.cpc.2017.09.007


  For the real-space grid partitioning and parallelization used in this calculation, please cite:

    Ville Havu, Volker Blum, Paula Havu, and Matthias Scheffler,
    'Efficient O(N) integration for all-electron electronic structure calculation'
    'using numerically tabulated basis functions'
    Journal of Computational Physics 228, 8367-8379 (2009).
    http://dx.doi.org/10.1016/j.jcp.2009.08.008

  Of course, there are many other important community references, e.g., those cited in the
  above references. Our list is limited to references that describe implementations in the
  FHI-aims code. The reason is purely practical (length of this list) - please credit others as well.

------------------------------------------------------------
          Leaving FHI-aims.
          Date     :  20200616, Time     :  050757.730

          Computational steps:
          | Number of self-consistency cycles          :           15
          | Number of SCF (re)initializations          :            1

          Detailed time accounting                     :  max(cpu_time)    wall_clock(cpu1)
          | Total time                                 :        1.648 s           1.720 s
          | Preparation time                           :        0.164 s           0.164 s
          | Boundary condition initalization           :        0.000 s           0.000 s
          | Grid partitioning                          :        0.021 s           0.021 s
          | Preloading free-atom quantities on grid    :        0.003 s           0.002 s
          | Free-atom superposition energy             :        0.005 s           0.005 s
          | Total time for integrations                :        0.449 s           0.449 s
          | Total time for solution of K.-S. equations :        0.071 s           0.071 s
          | Total time for density & force components  :        0.437 s           0.375 s
          | Total time for mixing                      :        0.016 s           0.016 s
          | Total time for Hartree multipole update    :        0.019 s           0.020 s
          | Total time for Hartree multipole sum       :        0.407 s           0.406 s
          | Total time for total energy evaluation     :        0.003 s           0.007 s
          | Total time for vdW correction              :        0.009 s           0.009 s

          Partial memory accounting:
          | Residual value for overall tracked memory usage across tasks :           0.000 MB (should be 0.000 MB)
          | Peak values for overall tracked memory usage (after allocating hessian_basis_wave):
          |   Minimum:        2.098 MB (on task 16)
          |   Maximum:        2.145 MB (on task  2)
          |   Average:        2.123 MB
          | Largest tracked array allocation (hessian_basis_wave):
          |   Minimum:        1.078 MB (on task 13)
          |   Maximum:        1.097 MB (on task  2)
          |   Average:        1.088 MB
          Note:  These values currently only include a subset of arrays which are explicitly tracked.
          The "true" memory usage will be greater.

          Have a nice day.
------------------------------------------------------------
