  MPI-parallelism will be employed.
------------------------------------------------------------
          Invoking FHI-aims ...
          Version 171221_1
          Compiled on 2019/09/09 at 14:39:39 on host puhti-login2.bullx.

          When using FHI-aims, please cite the following reference:

          Volker Blum, Ralf Gehrke, Felix Hanke, Paula Havu,
          Ville Havu, Xinguo Ren, Karsten Reuter, and Matthias Scheffler,
          'Ab Initio Molecular Simulations with Numeric Atom-Centered Orbitals',
          Computer Physics Communications 180, 2175-2196 (2009)

          For any questions about FHI-aims, please visit the aimsclub website
          with its forums and wiki. Contributions to both the forums and the
          wiki are warmly encouraged - they are for you, and everyone is welcome there.

------------------------------------------------------------



  Date     :  20200710, Time     :  151339.236
  Time zero on CPU 1             :   0.113020000000000E-01  s.
  Internal wall clock time zero  :           363626019.236  s.

  FHI-aims created a unique identifier for this run for later identification
  aims_uuid : 12F4565C-F62E-43C7-A12C-55AAC98D43DE

  Using        1 parallel tasks.
  Task        0 on host r18c47.bullx reporting.

  Performing system and environment tests:
  | Environment variable OMP_NUM_THREADS correctly set to 1.
  | Stacksize not measured: no C compiler
  | Checking for scalapack...
  | Testing pdtran()...
  | All pdtran() tests passed.

  Obtaining array dimensions for all initial allocations:
  
  -----------------------------------------------------------------------
  Parsing control.in (first pass over file, find array dimensions only).
  The contents of control.in will be repeated verbatim below
  unless switched off by setting 'verbatim_writeout .false.' .
  in the first line of control.in .
  -----------------------------------------------------------------------
  
  #########################################################################################
  #
  #  Volker Blum, FHI 2009 : Test run input file control.in for simple H2O
  #
  #########################################################################################
  #
  #  Physical model
  #
    xc                 pbe
    vdw_correction_hirshfeld
    spin               none
    relativistic       none
    charge             0.
  #
  #  SCF convergence
  #
    occupation_type    gaussian 0.01
    mixer              pulay
      n_max_pulay        10
      charge_mix_param   0.2
    sc_accuracy_rho    1E-5
    sc_accuracy_eev    1E-3
    sc_accuracy_etot   1E-6
    sc_accuracy_forces 1E-4
    sc_iter_limit      100
  #
  #  Relaxation
  #
  #  relax_geometry   bfgs 1.e-3
  #
  ################################################################################
  #
  #  FHI-aims code project
  #  VB, Fritz-Haber Institut, 2009
  #
  #  Suggested "light" defaults for H atom (to be pasted into control.in file)
  #  Be sure to double-check any results obtained with these settings for post-processing,
  #  e.g., with the "tight" defaults and larger basis sets.
  #
  ################################################################################
    species        H
  #     global species definitions
      nucleus             1
      mass                1.00794
  #
      l_hartree           4
  #
      cut_pot             3.5  1.5  1.0
      basis_dep_cutoff    1e-4
  #
      radial_base         24 5.0
      radial_multiplier   1
      angular_grids       specified
        division   0.2421   50
        division   0.3822  110
        division   0.4799  194
        division   0.5341  302
  #      division   0.5626  434
  #      division   0.5922  590
  #      division   0.6542  770
  #      division   0.6868 1202
  #      outer_grid  770
        outer_grid  302
  ################################################################################
  #
  #  Definition of "minimal" basis
  #
  ################################################################################
  #     valence basis states
      valence      1  s   1.
  #     ion occupancy
      ion_occ      1  s   0.5
  ################################################################################
  #
  #  Suggested additional basis functions. For production calculations,
  #  uncomment them one after another (the most important basis functions are
  #  listed first).
  #
  #  Basis constructed for dimers: 0.5 A, 0.7 A, 1.0 A, 1.5 A, 2.5 A
  #
  ################################################################################
  #  "First tier" - improvements: -1014.90 meV to -62.69 meV
       hydro 2 s 2.1
       hydro 2 p 3.5
  #  "Second tier" - improvements: -12.89 meV to -1.83 meV
  #     hydro 1 s 0.85
  #     hydro 2 p 3.7
  #     hydro 2 s 1.2
  #     hydro 3 d 7
  #  "Third tier" - improvements: -0.25 meV to -0.12 meV
  #     hydro 4 f 11.2
  #     hydro 3 p 4.8
  #     hydro 4 d 9
  #     hydro 3 s 3.2
  ################################################################################
  #
  #  FHI-aims code project
  #  VB, Fritz-Haber Institut, 2009
  #
  #  Suggested "light" defaults for C atom (to be pasted into control.in file)
  #  Be sure to double-check any results obtained with these settings for post-processing,
  #  e.g., with the "tight" defaults and larger basis sets.
  #
  ################################################################################
    species        C
  #     global species definitions
      nucleus             6
      mass                12.0107
  #
      l_hartree           4
  #
      cut_pot             3.5  1.5  1.0
      basis_dep_cutoff    1e-4
  #
      radial_base         34 5.0
      radial_multiplier   1
      angular_grids specified
        division   0.3326   50
        division   0.5710  110
        division   0.7727  194
        division   0.8772  302
  #      division   0.9334  434
  #      division   0.9625  590
  #      division   0.9924  770
  #      division   1.0230  974
  #      division   1.4589 1202
  #     outer_grid  974
       outer_grid 302
  ################################################################################
  #
  #  Definition of "minimal" basis
  #
  ################################################################################
  #     valence basis states
      valence      2  s   2.
      valence      2  p   2.
  #     ion occupancy
      ion_occ      2  s   1.
      ion_occ      2  p   1.
  ################################################################################
  #
  #  Suggested additional basis functions. For production calculations,
  #  uncomment them one after another (the most important basis functions are
  #  listed first).
  #
  #  Constructed for dimers: 1.0 A, 1.25 A, 1.5 A, 2.0 A, 3.0 A
  #
  ################################################################################
  #  "First tier" - improvements: -1214.57 meV to -155.61 meV
       hydro 2 p 1.7
       hydro 3 d 6
       hydro 2 s 4.9
  #  "Second tier" - improvements: -67.75 meV to -5.23 meV
  #     hydro 4 f 9.8
  #     hydro 3 p 5.2
  #     hydro 3 s 4.3
  #     hydro 5 g 14.4
  #     hydro 3 d 6.2
  #  "Third tier" - improvements: -2.43 meV to -0.60 meV
  #     hydro 2 p 5.6
  #     hydro 2 s 1.4
  #     hydro 3 d 4.9
  #     hydro 4 f 11.2
  #  "Fourth tier" - improvements: -0.39 meV to -0.18 meV
  #     hydro 2 p 2.1
  #     hydro 5 g 16.4
  #     hydro 4 d 13.2
  #     hydro 3 s 13.6
  #     hydro 4 f 17.6
  #  Further basis functions - improvements: -0.08 meV and below
  #     hydro 3 s 2
  #     hydro 3 p 6
  #     hydro 4 d 20
  ################################################################################
  #
  #  FHI-aims code project
  #  VB, Fritz-Haber Institut, 2009
  #
  #  Suggested "light" defaults for N atom (to be pasted into control.in file)
  #  Be sure to double-check any results obtained with these settings for post-processing,
  #  e.g., with the "tight" defaults and larger basis sets.
  #
  ################################################################################
    species        N
  #     global species definitions
      nucleus             7
      mass                14.0067
  #
      l_hartree           4
  #
      cut_pot             3.5  1.5  1.0
      basis_dep_cutoff    1e-4
  #
      radial_base         35 5.0
      radial_multiplier   1
      angular_grids       specified
        division   0.2599   50
        division   0.4601  110
        division   0.5885  194
        division   0.6503  302
  #      division   0.6939  434
  #      division   0.7396  590
  #      division   0.7632  770
  #      division   0.8122  974
  #      division   1.1604 1202
  #      outer_grid  974
        outer_grid  302
  ################################################################################
  #
  #  Definition of "minimal" basis
  #
  ################################################################################
  #     valence basis states
      valence      2  s   2.
      valence      2  p   3.
  #     ion occupancy
      ion_occ      2  s   1.
      ion_occ      2  p   2.
  ################################################################################
  #
  #  Suggested additional basis functions. For production calculations,
  #  uncomment them one after another (the most important basis functions are
  #  listed first).
  #
  #  Constructed for dimers: 1.0 A, 1.1 A, 1.5 A, 2.0 A, 3.0 A
  #
  ################################################################################
  #  "First tier" - improvements: -1193.42 meV to -220.60 meV
       hydro 2 p 1.8
       hydro 3 d 6.8
       hydro 3 s 5.8
  #  "Second tier" - improvements: -80.21 meV to -6.86 meV
  #     hydro 4 f 10.8
  #     hydro 3 p 5.8
  #     hydro 1 s 0.8
  #     hydro 5 g 16
  #     hydro 3 d 4.9
  #  "Third tier" - improvements: -4.29 meV to -0.53 meV
  #     hydro 3 s 16
  #     ionic 2 p auto
  #     hydro 3 d 6.6
  #     hydro 4 f 11.6
  #  "Fourth tier" - improvements: -0.75 meV to -0.25 meV
  #     hydro 2 p 4.5
  #     hydro 2 s 2.4
  #     hydro 5 g 14.4
  #     hydro 4 d 14.4
  #     hydro 4 f 16.8
  # Further basis functions - -0.21 meV and below
  #     hydro 3 p 14.8
  #     hydro 3 s 4.4
  #     hydro 3 d 19.6
  #     hydro 5 g 12.8
  ################################################################################
  #
  #  FHI-aims code project
  #  VB, Fritz-Haber Institut, 2009
  #
  #  Suggested "light" defaults for O atom (to be pasted into control.in file)
  #  Be sure to double-check any results obtained with these settings for post-processing,
  #  e.g., with the "tight" defaults and larger basis sets.
  #
  ################################################################################
    species        O
  #     global species definitions
      nucleus             8
      mass                15.9994
  #
      l_hartree           4
  #
      cut_pot             3.5  1.5  1.0
      basis_dep_cutoff    1e-4
  #
      radial_base         36 5.0
      radial_multiplier   1
       angular_grids specified
        division   0.2659   50
        division   0.4451  110
        division   0.6052  194
        division   0.7543  302
  #      division   0.8014  434
  #      division   0.8507  590
  #      division   0.8762  770
  #      division   0.9023  974
  #      division   1.2339 1202
  #      outer_grid 974
        outer_grid 302
  ################################################################################
  #
  #  Definition of "minimal" basis
  #
  ################################################################################
  #     valence basis states
      valence      2  s   2.
      valence      2  p   4.
  #     ion occupancy
      ion_occ      2  s   1.
      ion_occ      2  p   3.
  ################################################################################
  #
  #  Suggested additional basis functions. For production calculations,
  #  uncomment them one after another (the most important basis functions are
  #  listed first).
  #
  #  Constructed for dimers: 1.0 A, 1.208 A, 1.5 A, 2.0 A, 3.0 A
  #
  ################################################################################
  #  "First tier" - improvements: -699.05 meV to -159.38 meV
       hydro 2 p 1.8
       hydro 3 d 7.6
       hydro 3 s 6.4
  #  "Second tier" - improvements: -49.91 meV to -5.39 meV
  #     hydro 4 f 11.6
  #     hydro 3 p 6.2
  #     hydro 3 d 5.6
  #     hydro 5 g 17.6
  #     hydro 1 s 0.75
  #  "Third tier" - improvements: -2.83 meV to -0.50 meV
  #     ionic 2 p auto
  #     hydro 4 f 10.8
  #     hydro 4 d 4.7
  #     hydro 2 s 6.8
  #  "Fourth tier" - improvements: -0.40 meV to -0.12 meV
  #     hydro 3 p 5
  #     hydro 3 s 3.3
  #     hydro 5 g 15.6
  #     hydro 4 f 17.6
  #     hydro 4 d 14
  # Further basis functions - -0.08 meV and below
  #     hydro 3 s 2.1
  #     hydro 4 d 11.6
  #     hydro 3 p 16
  #     hydro 2 s 17.2
  
  -----------------------------------------------------------------------
  Completed first pass over input file control.in .
  -----------------------------------------------------------------------
  
  
  -----------------------------------------------------------------------
  Parsing geometry.in (first pass over file, find array dimensions only).
  The contents of geometry.in will be repeated verbatim below
  unless switched off by setting 'verbatim_writeout .false.' .
  in the first line of geometry.in .
  -----------------------------------------------------------------------
  
  atom  0.00000 0.00000 0.00000 C
  atom  1.09300 0.00000 0.00000 H
  atom  -0.47961 0.00000 -1.41207 N
  atom  -1.30392 -0.59838 -1.47753 H
  atom  -0.71546 0.95406 -1.67716 H
  atom  -0.49584 1.26211 0.72868 C
  atom  -1.58789 1.28919 0.74431 H
  atom  -0.13407 1.27425 1.75947 H
  atom  -0.13407 2.16087 0.22380 H
  atom  -0.39425 -1.28861 0.74398 C
  atom  -0.10189 -1.56493 1.88303 O
  atom  -1.10210 -2.13717 0.06896 O
  atom  -1.83082 -1.54522 -0.18310 H
  
  -----------------------------------------------------------------------
  Completed first pass over input file geometry.in .
  -----------------------------------------------------------------------
  

  Basic array size parameters:
  | Number of species                 :        4
  | Number of atoms                   :       13
  | Max. basis fn. angular momentum   :        2
  | Max. atomic/ionic basis occupied n:        2
  | Max. number of basis fn. types    :        2
  | Max. radial fns per species/type  :        3
  | Max. logarithmic grid size        :     1301
  | Max. radial integration grid size :       36
  | Max. angular integration grid size:      302
  | Max. angular grid division number :        8
  | Radial grid for Hartree potential :     1301
  | Number of spin channels           :        1

------------------------------------------------------------
          Reading file control.in.
------------------------------------------------------------
  XC: Using PBE gradient-corrected functionals.
  Spin treatment: No spin polarisation.
  Non-relativistic treatment of kinetic energy.
  Charge =   0.000000E+00: Neutral system requested explicitly.
  Occupation type: Gaussian broadening, width =   0.100000E-01 eV.
  Using pulay charge density mixing.
  Pulay mixing - number of memorized iterations:   10
  Charge density mixing - mixing parameter:     0.2000
  Convergence accuracy of self-consistent charge density:  0.1000E-04
  Convergence accuracy of sum of eigenvalues:  0.1000E-02
  Convergence accuracy of total energy:  0.1000E-05
  Convergence accuracy of forces:  0.1000E-03
  Maximum number of s.-c. iterations  :   100
 
  Reading configuration options for species H                   .
  | Found nuclear charge :   1.0000
  | Found atomic mass :    1.00794000000000      amu
  | Found l_max for Hartree potential  :   4
  | Found cutoff potl. onset [A], width [A], scale factor :    3.50000    1.50000    1.00000
  | Threshold for basis-dependent cutoff potential is   0.100000E-03
  | Found data for basic radial integration grid :    24 points, outermost radius =    5.000 A
  | Found multiplier for basic radial grid :   1
  | Found angular grid specification: user-specified.
  | Specified grid contains     5 separate shells.
  | Check grid settings after all constraints further below.
  | Found free-atom valence shell :  1 s   1.000
  | No ionic wave fns used. Skipping ion_occ.
  | Found hydrogenic basis function :  2 s   2.100
  | Found hydrogenic basis function :  2 p   3.500
  Species H                   : Missing cutoff potential type.
  Defaulting to exp(1/x)/(1-x)^2 type cutoff potential.
  Species H : No 'logarithmic' tag. Using default grid for free atom:
  | Default logarithmic grid data [bohr] : 0.1000E-03 0.1000E+03 0.1012E+01
  Species H : On-site basis accuracy parameter (for Gram-Schmidt orthonormalisation) not specified.
  Using default value basis_acc =  0.1000000E-03.
  Species H                   : Using default innermost maximum threshold i_radial=  2 for radial functions.
  Species H                   : Default cutoff onset for free atom density etc. : 0.35000000E+01 AA.
  Species H                   : Basic radial grid will be enhanced according to radial_multiplier =   1, to contain    24 grid points.
 
  Reading configuration options for species C                   .
  | Found nuclear charge :   6.0000
  | Found atomic mass :    12.0107000000000      amu
  | Found l_max for Hartree potential  :   4
  | Found cutoff potl. onset [A], width [A], scale factor :    3.50000    1.50000    1.00000
  | Threshold for basis-dependent cutoff potential is   0.100000E-03
  | Found data for basic radial integration grid :    34 points, outermost radius =    5.000 A
  | Found multiplier for basic radial grid :   1
  | Found angular grid specification: user-specified.
  | Specified grid contains     5 separate shells.
  | Check grid settings after all constraints further below.
  | Found free-atom valence shell :  2 s   2.000
  | Found free-atom valence shell :  2 p   2.000
  | No ionic wave fns used. Skipping ion_occ.
  | No ionic wave fns used. Skipping ion_occ.
  | Found hydrogenic basis function :  2 p   1.700
  | Found hydrogenic basis function :  3 d   6.000
  | Found hydrogenic basis function :  2 s   4.900
  Species C                   : Missing cutoff potential type.
  Defaulting to exp(1/x)/(1-x)^2 type cutoff potential.
  Species C : No 'logarithmic' tag. Using default grid for free atom:
  | Default logarithmic grid data [bohr] : 0.1000E-03 0.1000E+03 0.1012E+01
  Species C : On-site basis accuracy parameter (for Gram-Schmidt orthonormalisation) not specified.
  Using default value basis_acc =  0.1000000E-03.
  Species C                   : Using default innermost maximum threshold i_radial=  2 for radial functions.
  Species C                   : Default cutoff onset for free atom density etc. : 0.35000000E+01 AA.
  Species C                   : Basic radial grid will be enhanced according to radial_multiplier =   1, to contain    34 grid points.
 
  Reading configuration options for species N                   .
  | Found nuclear charge :   7.0000
  | Found atomic mass :    14.0067000000000      amu
  | Found l_max for Hartree potential  :   4
  | Found cutoff potl. onset [A], width [A], scale factor :    3.50000    1.50000    1.00000
  | Threshold for basis-dependent cutoff potential is   0.100000E-03
  | Found data for basic radial integration grid :    35 points, outermost radius =    5.000 A
  | Found multiplier for basic radial grid :   1
  | Found angular grid specification: user-specified.
  | Specified grid contains     5 separate shells.
  | Check grid settings after all constraints further below.
  | Found free-atom valence shell :  2 s   2.000
  | Found free-atom valence shell :  2 p   3.000
  | No ionic wave fns used. Skipping ion_occ.
  | No ionic wave fns used. Skipping ion_occ.
  | Found hydrogenic basis function :  2 p   1.800
  | Found hydrogenic basis function :  3 d   6.800
  | Found hydrogenic basis function :  3 s   5.800
  Species N                   : Missing cutoff potential type.
  Defaulting to exp(1/x)/(1-x)^2 type cutoff potential.
  Species N : No 'logarithmic' tag. Using default grid for free atom:
  | Default logarithmic grid data [bohr] : 0.1000E-03 0.1000E+03 0.1012E+01
  Species N : On-site basis accuracy parameter (for Gram-Schmidt orthonormalisation) not specified.
  Using default value basis_acc =  0.1000000E-03.
  Species N                   : Using default innermost maximum threshold i_radial=  2 for radial functions.
  Species N                   : Default cutoff onset for free atom density etc. : 0.35000000E+01 AA.
  Species N                   : Basic radial grid will be enhanced according to radial_multiplier =   1, to contain    35 grid points.
 
  Reading configuration options for species O                   .
  | Found nuclear charge :   8.0000
  | Found atomic mass :    15.9994000000000      amu
  | Found l_max for Hartree potential  :   4
  | Found cutoff potl. onset [A], width [A], scale factor :    3.50000    1.50000    1.00000
  | Threshold for basis-dependent cutoff potential is   0.100000E-03
  | Found data for basic radial integration grid :    36 points, outermost radius =    5.000 A
  | Found multiplier for basic radial grid :   1
  | Found angular grid specification: user-specified.
  | Specified grid contains     5 separate shells.
  | Check grid settings after all constraints further below.
  | Found free-atom valence shell :  2 s   2.000
  | Found free-atom valence shell :  2 p   4.000
  | No ionic wave fns used. Skipping ion_occ.
  | No ionic wave fns used. Skipping ion_occ.
  | Found hydrogenic basis function :  2 p   1.800
  | Found hydrogenic basis function :  3 d   7.600
  | Found hydrogenic basis function :  3 s   6.400
  Species O                   : Missing cutoff potential type.
  Defaulting to exp(1/x)/(1-x)^2 type cutoff potential.
  Species O : No 'logarithmic' tag. Using default grid for free atom:
  | Default logarithmic grid data [bohr] : 0.1000E-03 0.1000E+03 0.1012E+01
  Species O : On-site basis accuracy parameter (for Gram-Schmidt orthonormalisation) not specified.
  Using default value basis_acc =  0.1000000E-03.
  Species O                   : Using default innermost maximum threshold i_radial=  2 for radial functions.
  Species O                   : Default cutoff onset for free atom density etc. : 0.35000000E+01 AA.
  Species O                   : Basic radial grid will be enhanced according to radial_multiplier =   1, to contain    36 grid points.
 
  Finished reading input file 'control.in'. Consistency checks are next.
 
  MPI_IN_PLACE appears to work with this MPI implementation.
  | Keeping use_mpi_in_place .true. (see manual).
  Target number of points in a grid batch is not set. Defaulting to  100
  Method for grid partitioning is not set. Defaulting to parallel hash+maxmin partitioning.
  Batch size limit is not set. Defaulting to    200
  By default, will store active basis functions for each batch.
  If in need of memory, prune_basis_once .false. can be used to disable this option.
  communication_type for Hartree potential was not specified.
  Defaulting to calc_hartree .
  Pulay mixer: Number of initial linear mixing iterations not set.
  Defaulting to    0 iterations.
  Work space size for distributed Hartree potential not set.
  Defaulting to   0.200000E+03 MB.
  Algorithm-dependent basis array size parameters:
  | n_max_pulay                         :       10
  Presetting      1001 iterations before the initial mixing cycle
  is restarted anyway using the sc_init_iter criterion / keyword.
  Presetting a factor      1.000 between actual scf density residual
  and density convergence criterion sc_accuracy_rho below which sc_init_iter
  takes no effect.
  Geometry relaxation not requested: no relaxation will be performed.
  Handling of forces: Unphysical translation and rotation will be removed from forces.
  No accuracy limit for integral partition fn. given. Defaulting to  0.1000E-14.
  No threshold value for u(r) in integrations given. Defaulting to  0.1000E-05.
  No accuracy for occupation numbers given. Defaulting to  0.1000E-12.
  No threshold value for occupation numbers given. Defaulting to  0.0000E+00.
  No accuracy for fermi level given. Defaulting to  0.1000E-19.
  Maximum # of iterations to find E_F not set. Defaulting to  200.
  Preferred method for the eigenvalue solver ('KS_method') not specified in 'control.in'.
  Defaulting to serial version, 'lapack_fast'.
  Will not use alltoall communication since running on < 1024 CPUs.
  Threshold for basis singularities not set.
  Default threshold for basis singularities:  0.1000E-04
  partition_type (choice of integration weights) for integrals was not specified.
  | Using a version of the partition function of Stratmann and coworkers ('stratmann_smoother').
  | At each grid point, the set of atoms used to build the partition table is smoothly restricted to
  | only those atoms whose free-atom density would be non-zero at that grid point.
  Partitioning for Hartree potential was not defined. Using partition_type for integrals.
  | Adjusted default value of keyword multip_moments_threshold to:       0.10000000E-11
  | This value may affect high angular momentum components of the Hartree potential in periodic systems.
  No q(lm)/r^(l+1) cutoff set for long-range Hartree potential.
  | Using default value of  0.100000E-09 .
  | Verify using the multipole_threshold keyword.
  Defaulting to new monopole extrapolation.
  Density update method: automatic selection selected.
------------------------------------------------------------


------------------------------------------------------------
          Reading geometry description geometry.in.
------------------------------------------------------------
  Input structure read successfully.
  The structure contains       13 atoms,  and a total of         48.000 electrons.

  Input geometry:
  | No unit cell requested.
  | Atomic structure:
  |       Atom                x [A]            y [A]            z [A]
  |    1: Species C             0.00000000        0.00000000        0.00000000
  |    2: Species H             1.09300000        0.00000000        0.00000000
  |    3: Species N            -0.47961000        0.00000000       -1.41207000
  |    4: Species H            -1.30392000       -0.59838000       -1.47753000
  |    5: Species H            -0.71546000        0.95406000       -1.67716000
  |    6: Species C            -0.49584000        1.26211000        0.72868000
  |    7: Species H            -1.58789000        1.28919000        0.74431000
  |    8: Species H            -0.13407000        1.27425000        1.75947000
  |    9: Species H            -0.13407000        2.16087000        0.22380000
  |   10: Species C            -0.39425000       -1.28861000        0.74398000
  |   11: Species O            -0.10189000       -1.56493000        1.88303000
  |   12: Species O            -1.10210000       -2.13717000        0.06896000
  |   13: Species H            -1.83082000       -1.54522000       -0.18310000
  |

  | The smallest distance between any two atoms is         0.97209664 AA.
  |
  | The first atom of this pair is atom number                     12 .
  | The second atom of this pair is atom number                    13 .

  Number of empty states per atom not set in control.in - providing a guess from actual geometry.
  | Total number of empty states used during s.c.f. cycle:       29
  If you use a very high smearing, use empty_states (per atom!) in control.in to increase this value.

  Structure-dependent array size parameters: 
  | Maximum number of distinct radial functions  :       21
  | Maximum number of basis functions            :      119
  | Number of Kohn-Sham states (occupied + empty):       53
------------------------------------------------------------

------------------------------------------------------------
          Preparing all fixed parts of the calculation.
------------------------------------------------------------
  Determining machine precision:
    2.225073858507201E-308
  Setting up grids for atomic and cluster calculations.

  Creating wave function, potential, and density for free atoms.

  Species: H

  List of occupied orbitals and eigenvalues:
    n    l              occ      energy [Ha]    energy [eV]
    1    0           1.0000        -0.237589        -6.4651


  Species: C

  List of occupied orbitals and eigenvalues:
    n    l              occ      energy [Ha]    energy [eV]
    1    0           2.0000       -10.038835      -273.1706
    2    0           2.0000        -0.502696       -13.6791
    2    1           2.0000        -0.191971        -5.2238


  Species: N

  List of occupied orbitals and eigenvalues:
    n    l              occ      energy [Ha]    energy [eV]
    1    0           2.0000       -14.128000      -384.4424
    2    0           2.0000        -0.681077       -18.5330
    2    1           3.0000        -0.259788        -7.0692


  Species: O

  List of occupied orbitals and eigenvalues:
    n    l              occ      energy [Ha]    energy [eV]
    1    0           2.0000       -18.898188      -514.2459
    2    0           2.0000        -0.878505       -23.9053
    2    1           4.0000        -0.331779        -9.0282

  Creating fixed part of basis set: Ionic, confined, hydrogenic.
 
  H                    hydrogenic:
 
  List of hydrogenic basis orbitals: 
    n    l      effective z      eigenvalue [eV]  inner max. [A]     outer max. [A]     outer radius [A]   
    2    0         2.100000       -14.9728           0.193243           1.317208           4.583499
    2    1         3.500000       -41.6669           0.602369           0.602369           3.723403
 
 
  C                    hydrogenic:
 
  List of hydrogenic basis orbitals: 
    n    l      effective z      eigenvalue [eV]  inner max. [A]     outer max. [A]     outer radius [A]   
    2    1         1.700000        -9.7616           1.230570           1.230570           4.607917
    3    2         6.000000       -54.4224           0.792453           0.792453           3.883070
    2    0         4.900000       -81.6679           0.082559           0.562749           3.078220
 
 
  N                    hydrogenic:
 
  List of hydrogenic basis orbitals: 
    n    l      effective z      eigenvalue [eV]  inner max. [A]     outer max. [A]     outer radius [A]   
    2    1         1.800000       -10.9749           1.177451           1.177451           4.573712
    3    2         6.800000       -69.9026           0.704619           0.704619           3.538137
    3    0         5.800000       -50.8545           0.067388           1.191934           4.250239
 
 
  O                    hydrogenic:
 
  List of hydrogenic basis orbitals: 
    n    l      effective z      eigenvalue [eV]  inner max. [A]     outer max. [A]     outer radius [A]   
    2    1         1.800000       -10.9749           1.164242           1.164242           4.578029
    3    2         7.600000       -87.3180           0.624125           0.624125           3.251020
    3    0         6.400000       -61.9207           0.061167           1.081902           4.001998
 

  Adding cutoff potential to free-atom effective potential.
  Creating atomic-like basis functions for current effective potential.

  Species H                   :

  List of atomic basis orbitals and eigenvalues:
    n    l      energy [Ha]    energy [eV]    outer radius [A]
    1    0        -0.237589        -6.4651       4.527807


  Species C                   :

  List of atomic basis orbitals and eigenvalues:
    n    l      energy [Ha]    energy [eV]    outer radius [A]
    1    0       -10.038835      -273.1706       1.934409
    2    0        -0.502696       -13.6791       4.496620
    2    1        -0.191971        -5.2238       4.551928


  Species N                   :

  List of atomic basis orbitals and eigenvalues:
    n    l      energy [Ha]    energy [eV]    outer radius [A]
    1    0       -14.128000      -384.4424       1.637919
    2    0        -0.681077       -18.5330       4.463241
    2    1        -0.259788        -7.0692       4.518138


  Species O                   :

  List of atomic basis orbitals and eigenvalues:
    n    l      energy [Ha]    energy [eV]    outer radius [A]
    1    0       -18.898188      -514.2459       1.415765
    2    0        -0.878505       -23.9053       4.413171
    2    1        -0.331779        -9.0282       4.522403

  Assembling full basis from fixed parts.
  | Species H :   atomic orbital   1 s accepted.
  | Species H :    hydro orbital   2 s accepted.
  | Species H :    hydro orbital   2 p accepted.
  | Species C :   atomic orbital   1 s accepted.
  | Species C :    hydro orbital   2 s accepted.
  | Species C :   atomic orbital   2 s accepted.
  | Species C :   atomic orbital   2 p accepted.
  | Species C :    hydro orbital   2 p accepted.
  | Species C :    hydro orbital   3 d accepted.
  | Species N :   atomic orbital   1 s accepted.
  | Species N :    hydro orbital   3 s accepted.
  | Species N :   atomic orbital   2 s accepted.
  | Species N :   atomic orbital   2 p accepted.
  | Species N :    hydro orbital   2 p accepted.
  | Species N :    hydro orbital   3 d accepted.
  | Species O :   atomic orbital   1 s accepted.
  | Species O :    hydro orbital   3 s accepted.
  | Species O :   atomic orbital   2 s accepted.
  | Species O :   atomic orbital   2 p accepted.
  | Species O :    hydro orbital   2 p accepted.
  | Species O :    hydro orbital   3 d accepted.
 
  Basis size parameters after reduction:
  | Total number of radial functions:       21
  | Total number of basis functions :      119
 
  Per-task memory consumption for arrays in subroutine allocate_ext:
  |           5.250512MB.
  Testing on-site integration grid accuracy.
  |  Species  Function  <phi|h_atom|phi> (log., in eV)  <phi|h_atom|phi> (rad., in eV)
           1        1                 -6.4663192853                 -6.4651273558
           1        2                 13.7111246313                 13.7170609718
           1        3                 25.2673269279                 25.2674696378
           2        4               -273.1705927641               -273.1705631568
           2        5                -10.7109323383                -10.7107120029
           2        6                 17.4381822266                 17.4352413244
           2        7                 -5.2255326521                 -5.2270484734
           2        8                  8.6835629259                  8.6603288385
           2        9                 27.4952418996                 27.4953360207
           3       10               -384.4424306495               -384.4423701208
           3       11                 12.5842251816                 12.5842222903
           3       12                -15.7264628251                -15.7264433455
           3       13                 -7.0696854293                 -7.0701769954
           3       14                  8.8090390882                  8.7901077751
           3       15                 35.9586762123                 35.9588528632
           4       16               -514.2458688638               -514.2457643834
           4       17                 15.1795651126                 15.1795290741
           4       18                -21.5359799773                -21.5360846186
           4       19                 -9.0283069236                 -9.0284644067
           4       20                  8.3027758564                  8.2834874195
           4       21                 45.8339351984                 45.8338762259

  Preparing densities etc. for the partition functions (integrals / Hartree potential).

  Preparations completed.
  max(cpu_time)          :      0.148 s.
  Wall clock time (cpu1) :      0.149 s.
------------------------------------------------------------

------------------------------------------------------------
          Begin self-consistency loop: Initialization.

          Date     :  20200710, Time     :  151339.398
------------------------------------------------------------

  Initializing index lists of integration centers etc. from given atomic structure:
  | Number of centers in hartree potential         :        13
  | Number of centers in hartree multipole         :        13
  | Number of centers in electron density summation:        13
  | Number of centers in basis integrals           :        13
  | Number of centers in integrals                 :        13
  | Number of centers in hamiltonian               :        13
  Partitioning the integration grid into batches with parallel hashing+maxmin method.
  | Number of batches:      957
  | Maximal batch size:     139
  | Minimal batch size:      66
  | Average batch size:      72.775
  | Standard deviation of batch sizes:      17.307

  Integration load balanced across     1 MPI tasks.
  Work distribution over tasks is as follows:
  Task     0 has      69646 integration points.
  Initializing partition tables, free-atom densities, potentials, etc. across the integration grid (initialize_grid_storage).
  | initialize_grid_storage: Actual outermost partition radius vs. multipole_radius_free
  | (-- VB: in principle, multipole_radius_free should be larger, hence this output)
  | Species        1: Confinement radius =              4.999999999999999 AA, multipole_radius_free =              5.054417573612229 AA.
  | Species        1: outer_partition_radius set to              5.054417573612229 AA .
  | Species        2: Confinement radius =              4.999999999999999 AA, multipole_radius_free =              5.019602836301480 AA.
  | Species        2: outer_partition_radius set to              5.019602836301480 AA .
  | Species        3: Confinement radius =              4.999999999999999 AA, multipole_radius_free =              5.043624274424571 AA.
  | Species        3: outer_partition_radius set to              5.043624274424571 AA .
  | Species        4: Confinement radius =              4.999999999999999 AA, multipole_radius_free =              5.048384829883283 AA.
  | Species        4: outer_partition_radius set to              5.048384829883283 AA .
  | Original list of interatomic distances with          13 x         13 entries is created.
  | Net number of integration points:    69646
  | of which are non-zero points    :    59361
  Renormalizing the initial density to the exact electron count on the 3D integration grid.
  | Initial density: Formal number of electrons (from input files) :      48.0000000000
  | Integrated number of electrons on 3D grid     :      48.0001724104
  | Charge integration error                      :       0.0001724104
  | Normalization factor for density and gradient :       0.9999964081
  Obtaining max. number of non-zero basis functions in each batch (get_n_compute_maxes).
  | Maximal number of non-zero basis functions:      119 in task     0
  Selecting the method for density update.
  Loop over occupied states selected for charge density update.
  Allocating        0.050 MB for KS_eigenvector
  Integrating Hamiltonian matrix: batch-based integration.
  Time summed over all CPUs for integration: real work        0.499 s, elapsed        0.499 s
  Integrating overlap matrix.
  Time summed over all CPUs for integration: real work        0.212 s, elapsed        0.212 s

  Updating Kohn-Sham eigenvalues and eigenvectors using ELSI and the ELPA eigensolver.
  Overlap matrix is nonsingular
  | Lowest eigenvalue of overlap  :  0.44E-02
  | Highest eigenvalue of overlap :  0.64E+01
  Finished singularity check of overlap matrix
  | Time :     0.002 s
  Finished Cholesky decomposition
  | Time :     0.000 s
  Finished transformation to standard eigenproblem
  | Time :     0.000 s
  Starting LAPACK eigensolver
  Finished solving standard eigenproblem
  | Time :     0.002 s
  Finished back-transformation of eigenvectors
  | Time :     0.000 s

  Obtaining occupation numbers and chemical potential using ELSI.
  | Chemical potential (Fermi level):    -9.56564592eV
  Writing Kohn-Sham eigenvalues.

  State    Occupation    Eigenvalue [Ha]    Eigenvalue [eV]
      1       2.00000         -19.008166         -517.23851
      2       2.00000         -18.977163         -516.39487
      3       2.00000         -14.246118         -387.65659
      4       2.00000         -10.166882         -276.65492
      5       2.00000         -10.141548         -275.96557
      6       2.00000         -10.132090         -275.70821
      7       2.00000          -1.183095          -32.19365
      8       2.00000          -1.100406          -29.94357
      9       2.00000          -0.992523          -27.00792
     10       2.00000          -0.858981          -23.37406
     11       2.00000          -0.756853          -20.59503
     12       2.00000          -0.680154          -18.50792
     13       2.00000          -0.646028          -17.57932
     14       2.00000          -0.595953          -16.21671
     15       2.00000          -0.584951          -15.91732
     16       2.00000          -0.558290          -15.19183
     17       2.00000          -0.548722          -14.93149
     18       2.00000          -0.544058          -14.80457
     19       2.00000          -0.526987          -14.34004
     20       2.00000          -0.493238          -13.42170
     21       2.00000          -0.466198          -12.68588
     22       2.00000          -0.428600          -11.66281
     23       2.00000          -0.402841          -10.96186
     24       2.00000          -0.388169          -10.56262
     25       0.00000          -0.157384           -4.28264
     26       0.00000          -0.078615           -2.13923
     27       0.00000          -0.030978           -0.84296
     28       0.00000          -0.027111           -0.73774
     29       0.00000           0.003146            0.08562
     30       0.00000           0.010373            0.28228
     31       0.00000           0.021828            0.59398
     32       0.00000           0.036392            0.99029
     33       0.00000           0.059183            1.61045
     34       0.00000           0.066592            1.81207
     35       0.00000           0.098134            2.67036
     36       0.00000           0.133396            3.62989
     37       0.00000           0.153937            4.18885
     38       0.00000           0.206894            5.62988
     39       0.00000           0.220894            6.01082
     40       0.00000           0.231803            6.30767
     41       0.00000           0.255608            6.95546
     42       0.00000           0.265652            7.22877
     43       0.00000           0.296073            8.05655
     44       0.00000           0.298536            8.12358
     45       0.00000           0.318173            8.65792
     46       0.00000           0.347105            9.44520
     47       0.00000           0.369001           10.04104
     48       0.00000           0.380359           10.35009
     49       0.00000           0.454076           12.35602
     50       0.00000           0.469884           12.78621
     51       0.00000           0.509194           13.85587
     52       0.00000           0.542534           14.76310
     53       0.00000           0.566008           15.40187

  Highest occupied state (VBM) at    -10.56262117 eV
  | Occupation number:      2.00000000

  Lowest unoccupied state (CBM) at    -4.28264225 eV
  | Occupation number:      0.00000000

  Overall HOMO-LUMO gap:      6.27997892 eV.
  Calculating total energy contributions from superposition of free atom densities.

  Total energy components:
  | Sum of eigenvalues            :        -188.85602556 Ha       -5139.03392673 eV
  | XC energy correction          :         -41.80232974 Ha       -1137.49926762 eV
  | XC potential correction       :          53.73895355 Ha        1462.31132758 eV
  | Free-atom electrostatic energy:        -146.83080227 Ha       -3995.46941714 eV
  | Hartree energy correction     :           0.00000000 Ha           0.00000000 eV
  | vdW energy correction         :           0.00000000 Ha           0.00000000 eV
  | Entropy correction            :           0.00000000 Ha           0.00000000 eV
  | ---------------------------
  | Total energy                  :        -323.75020403 Ha       -8809.69128391 eV
  | Total energy, T -> 0          :        -323.75020403 Ha       -8809.69128391 eV  <-- do not rely on this value for anything but (periodic) metals
  | Electronic free energy        :        -323.75020403 Ha       -8809.69128391 eV

  Derived energy quantities:
  | Kinetic energy                :         320.53225510 Ha        8722.12643825 eV
  | Electrostatic energy          :        -602.48012939 Ha      -16394.31845454 eV
  | Energy correction for multipole
  | error in Hartree potential    :           0.00000000 Ha           0.00000000 eV
  | Sum of eigenvalues per atom                           :        -395.31030206 eV
  | Total energy (T->0) per atom                          :        -677.66856030 eV  <-- do not rely on this value for anything but (periodic) metals
  | Electronic free energy per atom                       :        -677.66856030 eV
  Initialize hartree_potential_storage
  Max. number of atoms included in rho_multipole:           13

  End scf initialization - timings             :  max(cpu_time)    wall_clock(cpu1)
  | Time for scf. initialization               :        1.156 s           1.157 s
  | Boundary condition initialization          :        0.000 s           0.000 s
  | Integration                                :        0.712 s           0.712 s
  | Solution of K.-S. eqns.                    :        0.004 s           0.005 s
  | Grid partitioning                          :        0.111 s           0.111 s
  | Preloading free-atom quantities on grid    :        0.002 s           0.003 s
  | Free-atom superposition energy             :        0.084 s           0.084 s
  | Total energy evaluation                    :        0.000 s           0.000 s

  Partial memory accounting:
  | Current value for overall tracked memory usage on task 0  :           0.165 MB
  | Peak value for overall tracked memory usage on task 0     :           0.678 MB after allocating wave
  | Largest tracked array allocation on task 0 so far         :           0.132 MB  when allocating H_times_psi
  Note:  These values currently only include a subset of arrays which are explicitly tracked.
  The "true" memory usage will be greater.
------------------------------------------------------------

------------------------------------------------------------
          Begin self-consistency iteration #    1

  Date     :  20200710, Time     :  151340.555
------------------------------------------------------------
  Evaluating new KS density.
  Integration grid: deviation in total charge (<rho> - N_e) =  -7.105427E-15
  Pulay mixing of updated and previous charge densities.

  Evaluating partitioned Hartree potential by multipole expansion.
  | Analytical far-field extrapolation by fixed multipoles:
  | Hartree multipole sum: apparent total charge =   0.649512E-04
  Summing up the Hartree potential.
  Time summed over all CPUs for potential: real work        0.282 s, elapsed        0.282 s
  | RMS charge density error from multipole expansion :   0.595724E-02

  Integrating Hamiltonian matrix: batch-based integration.
  Time summed over all CPUs for integration: real work        0.495 s, elapsed        0.495 s

  Updating Kohn-Sham eigenvalues and eigenvectors using ELSI and the ELPA eigensolver.
  Finished Cholesky decomposition
  | Time :     0.000 s
  Finished transformation to standard eigenproblem
  | Time :     0.000 s
  Starting LAPACK eigensolver
  Finished solving standard eigenproblem
  | Time :     0.001 s
  Finished back-transformation of eigenvectors
  | Time :     0.000 s

  Obtaining occupation numbers and chemical potential using ELSI.
  | Chemical potential (Fermi level):    -8.52150622eV
  Writing Kohn-Sham eigenvalues.

  State    Occupation    Eigenvalue [Ha]    Eigenvalue [eV]
      1       2.00000         -18.905240         -514.43776
      2       2.00000         -18.836256         -512.56062
      3       2.00000         -14.101925         -383.73291
      4       2.00000         -10.118260         -275.33186
      5       2.00000         -10.065981         -273.90928
      6       2.00000         -10.035397         -273.07705
      7       2.00000          -1.135799          -30.90668
      8       2.00000          -1.037633          -28.23544
      9       2.00000          -0.927169          -25.22955
     10       2.00000          -0.796445          -21.67237
     11       2.00000          -0.707063          -19.24016
     12       2.00000          -0.638615          -17.37759
     13       2.00000          -0.595297          -16.19887
     14       2.00000          -0.537883          -14.63655
     15       2.00000          -0.530442          -14.43406
     16       2.00000          -0.497931          -13.54939
     17       2.00000          -0.491295          -13.36882
     18       2.00000          -0.485508          -13.21135
     19       2.00000          -0.467155          -12.71193
     20       2.00000          -0.439391          -11.95645
     21       2.00000          -0.408101          -11.10500
     22       2.00000          -0.371966          -10.12171
     23       2.00000          -0.330680           -8.99827
     24       2.00000          -0.317836           -8.64875
     25       0.00000          -0.121847           -3.31563
     26       0.00000          -0.061671           -1.67816
     27       0.00000          -0.001386           -0.03770
     28       0.00000           0.012775            0.34762
     29       0.00000           0.030391            0.82698
     30       0.00000           0.045146            1.22849
     31       0.00000           0.059653            1.62325
     32       0.00000           0.074208            2.01929
     33       0.00000           0.096183            2.61727
     34       0.00000           0.097329            2.64846
     35       0.00000           0.133712            3.63850
     36       0.00000           0.160335            4.36295
     37       0.00000           0.177090            4.81887
     38       0.00000           0.234725            6.38719
     39       0.00000           0.250926            6.82803
     40       0.00000           0.265098            7.21369
     41       0.00000           0.286822            7.80481
     42       0.00000           0.297915            8.10668
     43       0.00000           0.329445            8.96465
     44       0.00000           0.337438            9.18215
     45       0.00000           0.356405            9.69827
     46       0.00000           0.379254           10.32003
     47       0.00000           0.409507           11.14325
     48       0.00000           0.420451           11.44104
     49       0.00000           0.484124           13.17368
     50       0.00000           0.506048           13.77026
     51       0.00000           0.542696           14.76752
     52       0.00000           0.573377           15.60239
     53       0.00000           0.601205           16.35962

  Highest occupied state (VBM) at     -8.64874823 eV
  | Occupation number:      2.00000000

  Lowest unoccupied state (CBM) at    -3.31563161 eV
  | Occupation number:      0.00000000

  Overall HOMO-LUMO gap:      5.33311663 eV.

  Total energy components:
  | Sum of eigenvalues            :        -185.55854130 Ha       -5049.30481449 eV
  | XC energy correction          :         -42.12700108 Ha       -1146.33402420 eV
  | XC potential correction       :          54.16109839 Ha        1473.79847313 eV
  | Free-atom electrostatic energy:        -146.83080227 Ha       -3995.46941714 eV
  | Hartree energy correction     :          -3.21291785 Ha         -87.42794301 eV
  | vdW energy correction         :           0.00000000 Ha           0.00000000 eV
  | Entropy correction            :          -0.00000000 Ha          -0.00000000 eV
  | ---------------------------
  | Total energy                  :        -323.56816412 Ha       -8804.73772571 eV
  | Total energy, T -> 0          :        -323.56816412 Ha       -8804.73772571 eV  <-- do not rely on this value for anything but (periodic) metals
  | Electronic free energy        :        -323.56816412 Ha       -8804.73772571 eV

  Derived energy quantities:
  | Kinetic energy                :         322.30753775 Ha        8770.43433688 eV
  | Electrostatic energy          :        -603.74870078 Ha      -16428.83803839 eV
  | Energy correction for multipole
  | error in Hartree potential    :           0.01198225 Ha           0.32605355 eV
  | Sum of eigenvalues per atom                           :        -388.40806265 eV
  | Total energy (T->0) per atom                          :        -677.28751736 eV  <-- do not rely on this value for anything but (periodic) metals
  | Electronic free energy per atom                       :        -677.28751736 eV

  Self-consistency convergence accuracy:
  | Change of charge density      :  0.5843E+00
  | Change of sum of eigenvalues  :  0.8973E+02 eV
  | Change of total energy        :  0.4954E+01 eV

  End self-consistency iteration #     1       :  max(cpu_time)    wall_clock(cpu1)
  | Time for this iteration                    :        1.190 s           1.191 s
  | Charge density update                      :        0.396 s           0.396 s
  | Density mixing                             :        0.005 s           0.006 s
  | Hartree multipole update                   :        0.009 s           0.008 s
  | Hartree multipole summation                :        0.283 s           0.283 s
  | Integration                                :        0.495 s           0.495 s
  | Solution of K.-S. eqns.                    :        0.002 s           0.003 s
  | Total energy evaluation                    :        0.000 s           0.000 s

  Partial memory accounting:
  | Current value for overall tracked memory usage on task 0  :           0.165 MB
  | Peak value for overall tracked memory usage on task 0     :           0.695 MB after allocating gradient_basis_wave
  | Largest tracked array allocation on task 0 so far         :           0.397 MB  when allocating gradient_basis_wave
  Note:  These values currently only include a subset of arrays which are explicitly tracked.
  The "true" memory usage will be greater.
------------------------------------------------------------

------------------------------------------------------------
          Begin self-consistency iteration #    2

  Date     :  20200710, Time     :  151341.747
------------------------------------------------------------
  Evaluating new KS density.
  Integration grid: deviation in total charge (<rho> - N_e) =  -5.684342E-14
  Pulay mixing of updated and previous charge densities.

  Evaluating partitioned Hartree potential by multipole expansion.
  | Analytical far-field extrapolation by fixed multipoles:
  | Hartree multipole sum: apparent total charge =  -0.691388E-04
  Summing up the Hartree potential.
  Time summed over all CPUs for potential: real work        0.282 s, elapsed        0.282 s
  | RMS charge density error from multipole expansion :   0.140723E-01

  Integrating Hamiltonian matrix: batch-based integration.
  Time summed over all CPUs for integration: real work        0.498 s, elapsed        0.498 s

  Updating Kohn-Sham eigenvalues and eigenvectors using ELSI and the ELPA eigensolver.
  Finished Cholesky decomposition
  | Time :     0.000 s
  Finished transformation to standard eigenproblem
  | Time :     0.000 s
  Starting LAPACK eigensolver
  Finished solving standard eigenproblem
  | Time :     0.002 s
  Finished back-transformation of eigenvectors
  | Time :     0.000 s

  Obtaining occupation numbers and chemical potential using ELSI.
  | Chemical potential (Fermi level):    -3.21806618eV
  Highest occupied state (VBM) at     -6.73628261 eV
  | Occupation number:      2.00000000

  Lowest unoccupied state (CBM) at    -2.09277536 eV
  | Occupation number:      0.00000000

  Overall HOMO-LUMO gap:      4.64350725 eV.

  Checking to see if s.c.f. parameters should be adjusted.

  Total energy components:
  | Sum of eigenvalues            :        -182.12854918 Ha       -4955.96998007 eV
  | XC energy correction          :         -42.47759888 Ha       -1155.87427564 eV
  | XC potential correction       :          54.61530652 Ha        1486.15810541 eV
  | Free-atom electrostatic energy:        -146.83080227 Ha       -3995.46941714 eV
  | Hartree energy correction     :          -6.66869179 Ha        -181.46433653 eV
  | vdW energy correction         :           0.00000000 Ha           0.00000000 eV
  | Entropy correction            :           0.00000000 Ha           0.00000000 eV
  | ---------------------------
  | Total energy                  :        -323.49033560 Ha       -8802.61990397 eV
  | Total energy, T -> 0          :        -323.49033560 Ha       -8802.61990397 eV  <-- do not rely on this value for anything but (periodic) metals
  | Electronic free energy        :        -323.49033560 Ha       -8802.61990397 eV

  Derived energy quantities:
  | Kinetic energy                :         323.59743858 Ha        8805.53432451 eV
  | Electrostatic energy          :        -604.61017530 Ha      -16452.27995284 eV
  | Energy correction for multipole
  | error in Hartree potential    :           0.02619257 Ha           0.71273617 eV
  | Sum of eigenvalues per atom                           :        -381.22846001 eV
  | Total energy (T->0) per atom                          :        -677.12460800 eV  <-- do not rely on this value for anything but (periodic) metals
  | Electronic free energy per atom                       :        -677.12460800 eV

  Self-consistency convergence accuracy:
  | Change of charge density      :  0.3654E+00
  | Change of sum of eigenvalues  :  0.9333E+02 eV
  | Change of total energy        :  0.2118E+01 eV

  End self-consistency iteration #     2       :  max(cpu_time)    wall_clock(cpu1)
  | Time for this iteration                    :        1.187 s           1.188 s
  | Charge density update                      :        0.389 s           0.389 s
  | Density mixing                             :        0.007 s           0.007 s
  | Hartree multipole update                   :        0.009 s           0.009 s
  | Hartree multipole summation                :        0.283 s           0.282 s
  | Integration                                :        0.498 s           0.498 s
  | Solution of K.-S. eqns.                    :        0.002 s           0.003 s
  | Total energy evaluation                    :        0.000 s           0.000 s

  Partial memory accounting:
  | Current value for overall tracked memory usage on task 0  :           0.166 MB
  | Peak value for overall tracked memory usage on task 0     :           0.695 MB after allocating gradient_basis_wave
  | Largest tracked array allocation on task 0 so far         :           0.397 MB  when allocating gradient_basis_wave
  Note:  These values currently only include a subset of arrays which are explicitly tracked.
  The "true" memory usage will be greater.
------------------------------------------------------------

------------------------------------------------------------
          Begin self-consistency iteration #    3

  Date     :  20200710, Time     :  151342.935
------------------------------------------------------------
  Evaluating new KS density.
  Integration grid: deviation in total charge (<rho> - N_e) =   7.105427E-15
  Pulay mixing of updated and previous charge densities.

  Evaluating partitioned Hartree potential by multipole expansion.
  | Analytical far-field extrapolation by fixed multipoles:
  | Hartree multipole sum: apparent total charge =  -0.161312E-03
  Summing up the Hartree potential.
  Time summed over all CPUs for potential: real work        0.281 s, elapsed        0.281 s
  | RMS charge density error from multipole expansion :   0.221661E-01

  Integrating Hamiltonian matrix: batch-based integration.
  Time summed over all CPUs for integration: real work        0.496 s, elapsed        0.496 s

  Updating Kohn-Sham eigenvalues and eigenvectors using ELSI and the ELPA eigensolver.
  Finished Cholesky decomposition
  | Time :     0.000 s
  Finished transformation to standard eigenproblem
  | Time :     0.000 s
  Starting LAPACK eigensolver
  Finished solving standard eigenproblem
  | Time :     0.001 s
  Finished back-transformation of eigenvectors
  | Time :     0.000 s

  Obtaining occupation numbers and chemical potential using ELSI.
  | Chemical potential (Fermi level):    -2.67207996eV
  Highest occupied state (VBM) at     -6.08348802 eV
  | Occupation number:      2.00000000

  Lowest unoccupied state (CBM) at    -1.41611983 eV
  | Occupation number:      0.00000000

  Overall HOMO-LUMO gap:      4.66736819 eV.

  Total energy components:
  | Sum of eigenvalues            :        -180.84265431 Ha       -4920.97900048 eV
  | XC energy correction          :         -42.62976135 Ha       -1160.01482724 eV
  | XC potential correction       :          54.80910757 Ha        1491.43170017 eV
  | Free-atom electrostatic energy:        -146.83080227 Ha       -3995.46941714 eV
  | Hartree energy correction     :          -7.98343630 Ha        -217.24035474 eV
  | vdW energy correction         :           0.00000000 Ha           0.00000000 eV
  | Entropy correction            :           0.00000000 Ha           0.00000000 eV
  | ---------------------------
  | Total energy                  :        -323.47754667 Ha       -8802.27189942 eV
  | Total energy, T -> 0          :        -323.47754667 Ha       -8802.27189942 eV  <-- do not rely on this value for anything but (periodic) metals
  | Electronic free energy        :        -323.47754667 Ha       -8802.27189942 eV

  Derived energy quantities:
  | Kinetic energy                :         323.22524040 Ha        8795.40629671 eV
  | Electrostatic energy          :        -604.07302572 Ha      -16437.66336889 eV
  | Energy correction for multipole
  | error in Hartree potential    :           0.03702488 Ha           1.00749836 eV
  | Sum of eigenvalues per atom                           :        -378.53684619 eV
  | Total energy (T->0) per atom                          :        -677.09783842 eV  <-- do not rely on this value for anything but (periodic) metals
  | Electronic free energy per atom                       :        -677.09783842 eV

  Self-consistency convergence accuracy:
  | Change of charge density      :  0.2062E+00
  | Change of sum of eigenvalues  :  0.3499E+02 eV
  | Change of total energy        :  0.3480E+00 eV

  End self-consistency iteration #     3       :  max(cpu_time)    wall_clock(cpu1)
  | Time for this iteration                    :        1.186 s           1.186 s
  | Charge density update                      :        0.389 s           0.389 s
  | Density mixing                             :        0.008 s           0.008 s
  | Hartree multipole update                   :        0.009 s           0.009 s
  | Hartree multipole summation                :        0.282 s           0.282 s
  | Integration                                :        0.496 s           0.496 s
  | Solution of K.-S. eqns.                    :        0.002 s           0.002 s
  | Total energy evaluation                    :        0.000 s           0.000 s

  Partial memory accounting:
  | Current value for overall tracked memory usage on task 0  :           0.166 MB
  | Peak value for overall tracked memory usage on task 0     :           0.695 MB after allocating gradient_basis_wave
  | Largest tracked array allocation on task 0 so far         :           0.397 MB  when allocating gradient_basis_wave
  Note:  These values currently only include a subset of arrays which are explicitly tracked.
  The "true" memory usage will be greater.
------------------------------------------------------------

------------------------------------------------------------
          Begin self-consistency iteration #    4

  Date     :  20200710, Time     :  151344.123
------------------------------------------------------------
  Evaluating new KS density.
  Integration grid: deviation in total charge (<rho> - N_e) =  -2.842171E-14
  Pulay mixing of updated and previous charge densities.

  Evaluating partitioned Hartree potential by multipole expansion.
  | Analytical far-field extrapolation by fixed multipoles:
  | Hartree multipole sum: apparent total charge =  -0.191999E-03
  Summing up the Hartree potential.
  Time summed over all CPUs for potential: real work        0.282 s, elapsed        0.282 s
  | RMS charge density error from multipole expansion :   0.257336E-01

  Integrating Hamiltonian matrix: batch-based integration.
  Time summed over all CPUs for integration: real work        0.495 s, elapsed        0.495 s

  Updating Kohn-Sham eigenvalues and eigenvectors using ELSI and the ELPA eigensolver.
  Finished Cholesky decomposition
  | Time :     0.000 s
  Finished transformation to standard eigenproblem
  | Time :     0.000 s
  Starting LAPACK eigensolver
  Finished solving standard eigenproblem
  | Time :     0.002 s
  Finished back-transformation of eigenvectors
  | Time :     0.000 s

  Obtaining occupation numbers and chemical potential using ELSI.
  | Chemical potential (Fermi level):    -2.58639870eV
  Highest occupied state (VBM) at     -5.94206853 eV
  | Occupation number:      2.00000000

  Lowest unoccupied state (CBM) at    -1.32386175 eV
  | Occupation number:      0.00000000

  Overall HOMO-LUMO gap:      4.61820678 eV.

  Total energy components:
  | Sum of eigenvalues            :        -180.71872287 Ha       -4917.60665435 eV
  | XC energy correction          :         -42.66867036 Ha       -1161.07359540 eV
  | XC potential correction       :          54.85788234 Ha        1492.75892933 eV
  | Free-atom electrostatic energy:        -146.83080227 Ha       -3995.46941714 eV
  | Hartree energy correction     :          -8.11618408 Ha        -220.85260578 eV
  | vdW energy correction         :           0.00000000 Ha           0.00000000 eV
  | Entropy correction            :           0.00000000 Ha           0.00000000 eV
  | ---------------------------
  | Total energy                  :        -323.47649725 Ha       -8802.24334333 eV
  | Total energy, T -> 0          :        -323.47649725 Ha       -8802.24334333 eV  <-- do not rely on this value for anything but (periodic) metals
  | Electronic free energy        :        -323.47649725 Ha       -8802.24334333 eV

  Derived energy quantities:
  | Kinetic energy                :         322.83864760 Ha        8784.88657143 eV
  | Electrostatic energy          :        -603.64647449 Ha      -16426.05631936 eV
  | Energy correction for multipole
  | error in Hartree potential    :           0.04132191 Ha           1.12442639 eV
  | Sum of eigenvalues per atom                           :        -378.27743495 eV
  | Total energy (T->0) per atom                          :        -677.09564179 eV  <-- do not rely on this value for anything but (periodic) metals
  | Electronic free energy per atom                       :        -677.09564179 eV

  Self-consistency convergence accuracy:
  | Change of charge density      :  0.6830E-01
  | Change of sum of eigenvalues  :  0.3372E+01 eV
  | Change of total energy        :  0.2856E-01 eV

  End self-consistency iteration #     4       :  max(cpu_time)    wall_clock(cpu1)
  | Time for this iteration                    :        1.186 s           1.187 s
  | Charge density update                      :        0.389 s           0.388 s
  | Density mixing                             :        0.009 s           0.010 s
  | Hartree multipole update                   :        0.009 s           0.009 s
  | Hartree multipole summation                :        0.282 s           0.282 s
  | Integration                                :        0.495 s           0.495 s
  | Solution of K.-S. eqns.                    :        0.002 s           0.002 s
  | Total energy evaluation                    :        0.000 s           0.000 s

  Partial memory accounting:
  | Current value for overall tracked memory usage on task 0  :           0.166 MB
  | Peak value for overall tracked memory usage on task 0     :           0.696 MB after allocating gradient_basis_wave
  | Largest tracked array allocation on task 0 so far         :           0.397 MB  when allocating gradient_basis_wave
  Note:  These values currently only include a subset of arrays which are explicitly tracked.
  The "true" memory usage will be greater.
------------------------------------------------------------

------------------------------------------------------------
          Begin self-consistency iteration #    5

  Date     :  20200710, Time     :  151345.310
------------------------------------------------------------
  Evaluating new KS density.
  Integration grid: deviation in total charge (<rho> - N_e) =   3.552714E-14
  Pulay mixing of updated and previous charge densities.

  Evaluating partitioned Hartree potential by multipole expansion.
  | Analytical far-field extrapolation by fixed multipoles:
  | Hartree multipole sum: apparent total charge =  -0.186035E-03
  Summing up the Hartree potential.
  Time summed over all CPUs for potential: real work        0.282 s, elapsed        0.282 s
  | RMS charge density error from multipole expansion :   0.254944E-01

  Integrating Hamiltonian matrix: batch-based integration.
  Time summed over all CPUs for integration: real work        0.498 s, elapsed        0.498 s

  Updating Kohn-Sham eigenvalues and eigenvectors using ELSI and the ELPA eigensolver.
  Finished Cholesky decomposition
  | Time :     0.000 s
  Finished transformation to standard eigenproblem
  | Time :     0.000 s
  Starting LAPACK eigensolver
  Finished solving standard eigenproblem
  | Time :     0.002 s
  Finished back-transformation of eigenvectors
  | Time :     0.000 s

  Obtaining occupation numbers and chemical potential using ELSI.
  | Chemical potential (Fermi level):    -2.63776643eV
  Highest occupied state (VBM) at     -6.01832997 eV
  | Occupation number:      2.00000000

  Lowest unoccupied state (CBM) at    -1.41142933 eV
  | Occupation number:      0.00000000

  Overall HOMO-LUMO gap:      4.60690064 eV.

  Total energy components:
  | Sum of eigenvalues            :        -180.90212932 Ha       -4922.59739789 eV
  | XC energy correction          :         -42.64572237 Ha       -1160.44914879 eV
  | XC potential correction       :          54.82811378 Ha        1491.94888542 eV
  | Free-atom electrostatic energy:        -146.83080227 Ha       -3995.46941714 eV
  | Hartree energy correction     :          -7.92566631 Ha        -215.66835334 eV
  | vdW energy correction         :           0.00000000 Ha           0.00000000 eV
  | Entropy correction            :           0.00000000 Ha           0.00000000 eV
  | ---------------------------
  | Total energy                  :        -323.47620650 Ha       -8802.23543174 eV
  | Total energy, T -> 0          :        -323.47620650 Ha       -8802.23543174 eV  <-- do not rely on this value for anything but (periodic) metals
  | Electronic free energy        :        -323.47620650 Ha       -8802.23543174 eV

  Derived energy quantities:
  | Kinetic energy                :         322.73210460 Ha        8781.98738874 eV
  | Electrostatic energy          :        -603.56258873 Ha      -16423.77367169 eV
  | Energy correction for multipole
  | error in Hartree potential    :           0.04070457 Ha           1.10762782 eV
  | Sum of eigenvalues per atom                           :        -378.66133830 eV
  | Total energy (T->0) per atom                          :        -677.09503321 eV  <-- do not rely on this value for anything but (periodic) metals
  | Electronic free energy per atom                       :        -677.09503321 eV

  Self-consistency convergence accuracy:
  | Change of charge density      :  0.2127E-01
  | Change of sum of eigenvalues  : -0.4991E+01 eV
  | Change of total energy        :  0.7912E-02 eV

  End self-consistency iteration #     5       :  max(cpu_time)    wall_clock(cpu1)
  | Time for this iteration                    :        1.192 s           1.193 s
  | Charge density update                      :        0.389 s           0.390 s
  | Density mixing                             :        0.011 s           0.011 s
  | Hartree multipole update                   :        0.009 s           0.009 s
  | Hartree multipole summation                :        0.282 s           0.282 s
  | Integration                                :        0.498 s           0.499 s
  | Solution of K.-S. eqns.                    :        0.002 s           0.002 s
  | Total energy evaluation                    :        0.000 s           0.000 s

  Partial memory accounting:
  | Current value for overall tracked memory usage on task 0  :           0.166 MB
  | Peak value for overall tracked memory usage on task 0     :           0.696 MB after allocating gradient_basis_wave
  | Largest tracked array allocation on task 0 so far         :           0.397 MB  when allocating gradient_basis_wave
  Note:  These values currently only include a subset of arrays which are explicitly tracked.
  The "true" memory usage will be greater.
------------------------------------------------------------

------------------------------------------------------------
          Begin self-consistency iteration #    6

  Date     :  20200710, Time     :  151346.504
------------------------------------------------------------
  Evaluating new KS density.
  Integration grid: deviation in total charge (<rho> - N_e) =   2.131628E-14
  Pulay mixing of updated and previous charge densities.

  Evaluating partitioned Hartree potential by multipole expansion.
  | Analytical far-field extrapolation by fixed multipoles:
  | Hartree multipole sum: apparent total charge =  -0.188818E-03
  Summing up the Hartree potential.
  Time summed over all CPUs for potential: real work        0.283 s, elapsed        0.283 s
  | RMS charge density error from multipole expansion :   0.259074E-01

  Integrating Hamiltonian matrix: batch-based integration.
  Time summed over all CPUs for integration: real work        0.495 s, elapsed        0.495 s

  Updating Kohn-Sham eigenvalues and eigenvectors using ELSI and the ELPA eigensolver.
  Finished Cholesky decomposition
  | Time :     0.000 s
  Finished transformation to standard eigenproblem
  | Time :     0.000 s
  Starting LAPACK eigensolver
  Finished solving standard eigenproblem
  | Time :     0.001 s
  Finished back-transformation of eigenvectors
  | Time :     0.000 s

  Obtaining occupation numbers and chemical potential using ELSI.
  | Chemical potential (Fermi level):    -2.63526007eV
  Highest occupied state (VBM) at     -5.99027005 eV
  | Occupation number:      2.00000000

  Lowest unoccupied state (CBM) at    -1.43035379 eV
  | Occupation number:      0.00000000

  Overall HOMO-LUMO gap:      4.55991626 eV.

  Total energy components:
  | Sum of eigenvalues            :        -180.91217994 Ha       -4922.87088898 eV
  | XC energy correction          :         -42.64450894 Ha       -1160.41612948 eV
  | XC potential correction       :          54.82649507 Ha        1491.90483825 eV
  | Free-atom electrostatic energy:        -146.83080227 Ha       -3995.46941714 eV
  | Hartree energy correction     :          -7.91516309 Ha        -215.38254611 eV
  | vdW energy correction         :           0.00000000 Ha           0.00000000 eV
  | Entropy correction            :           0.00000000 Ha           0.00000000 eV
  | ---------------------------
  | Total energy                  :        -323.47615916 Ha       -8802.23414345 eV
  | Total energy, T -> 0          :        -323.47615916 Ha       -8802.23414345 eV  <-- do not rely on this value for anything but (periodic) metals
  | Electronic free energy        :        -323.47615916 Ha       -8802.23414345 eV

  Derived energy quantities:
  | Kinetic energy                :         322.65643905 Ha        8779.92842443 eV
  | Electrostatic energy          :        -603.48808927 Ha      -16421.74643840 eV
  | Energy correction for multipole
  | error in Hartree potential    :           0.04104862 Ha           1.11698978 eV
  | Sum of eigenvalues per atom                           :        -378.68237608 eV
  | Total energy (T->0) per atom                          :        -677.09493411 eV  <-- do not rely on this value for anything but (periodic) metals
  | Electronic free energy per atom                       :        -677.09493411 eV

  Self-consistency convergence accuracy:
  | Change of charge density      :  0.1066E-01
  | Change of sum of eigenvalues  : -0.2735E+00 eV
  | Change of total energy        :  0.1288E-02 eV

  End self-consistency iteration #     6       :  max(cpu_time)    wall_clock(cpu1)
  | Time for this iteration                    :        1.192 s           1.199 s
  | Charge density update                      :        0.390 s           0.396 s
  | Density mixing                             :        0.012 s           0.013 s
  | Hartree multipole update                   :        0.009 s           0.008 s
  | Hartree multipole summation                :        0.283 s           0.284 s
  | Integration                                :        0.495 s           0.495 s
  | Solution of K.-S. eqns.                    :        0.002 s           0.002 s
  | Total energy evaluation                    :        0.000 s           0.001 s

  Partial memory accounting:
  | Current value for overall tracked memory usage on task 0  :           0.166 MB
  | Peak value for overall tracked memory usage on task 0     :           0.696 MB after allocating gradient_basis_wave
  | Largest tracked array allocation on task 0 so far         :           0.397 MB  when allocating gradient_basis_wave
  Note:  These values currently only include a subset of arrays which are explicitly tracked.
  The "true" memory usage will be greater.
------------------------------------------------------------

------------------------------------------------------------
          Begin self-consistency iteration #    7

  Date     :  20200710, Time     :  151347.703
------------------------------------------------------------
  Evaluating new KS density.
  Integration grid: deviation in total charge (<rho> - N_e) =   2.842171E-14
  Pulay mixing of updated and previous charge densities.

  Evaluating partitioned Hartree potential by multipole expansion.
  | Analytical far-field extrapolation by fixed multipoles:
  | Hartree multipole sum: apparent total charge =  -0.189371E-03
  Summing up the Hartree potential.
  Time summed over all CPUs for potential: real work        0.281 s, elapsed        0.281 s
  | RMS charge density error from multipole expansion :   0.260276E-01

  Integrating Hamiltonian matrix: batch-based integration.
  Time summed over all CPUs for integration: real work        0.495 s, elapsed        0.495 s

  Updating Kohn-Sham eigenvalues and eigenvectors using ELSI and the ELPA eigensolver.
  Finished Cholesky decomposition
  | Time :     0.000 s
  Finished transformation to standard eigenproblem
  | Time :     0.000 s
  Starting LAPACK eigensolver
  Finished solving standard eigenproblem
  | Time :     0.002 s
  Finished back-transformation of eigenvectors
  | Time :     0.000 s

[...]
  |   Hirshfeld dipole moment :      0.05667795
  |   Hirshfeld second moments:      0.00758715      -0.03049302      -0.01982489
  |                                 -0.03049302      -0.01921660       0.00967402
  |                                 -0.01982489       0.00967402      -0.01267170
  ----------------------------------------------------------------------
  | Atom    12: O
  |   Hirshfeld charge        :     -0.14432823
  |   Free atom volume        :     23.61338643
  |   Hirshfeld volume        :     20.92735652
  |   Hirshfeld dipole vector :      0.01015409       0.04143378      -0.00228064
  |   Hirshfeld dipole moment :      0.04272078
  |   Hirshfeld second moments:      0.09964617      -0.01761117       0.01726712
  |                                 -0.01761117       0.03309572       0.00669147
  |                                  0.01726712       0.00669147       0.04369790
  ----------------------------------------------------------------------
  | Atom    13: H
  |   Hirshfeld charge        :      0.16865652
  |   Free atom volume        :      9.95071624
  |   Hirshfeld volume        :      6.36650499
  |   Hirshfeld dipole vector :     -0.10072328       0.04952194      -0.02184027
  |   Hirshfeld dipole moment :      0.11434421
  |   Hirshfeld second moments:      0.12061141      -0.00136424       0.00243716
  |                                 -0.00136424       0.09456060       0.01675057
  |                                  0.00243716       0.01675057       0.11102211
  ----------------------------------------------------------------------


  Total energy components:
  | Sum of eigenvalues            :        -180.91266593 Ha       -4922.88411362 eV
  | XC energy correction          :         -42.64130233 Ha       -1160.32887317 eV
  | XC potential correction       :          54.82241864 Ha        1491.79391291 eV
  | Free-atom electrostatic energy:        -146.83080227 Ha       -3995.46941714 eV
  | Hartree energy correction     :          -7.91378294 Ha        -215.34499033 eV
  | vdW energy correction         :          -0.00329288 Ha          -0.08960380 eV
  | Entropy correction            :           0.00000000 Ha           0.00000000 eV
  | ---------------------------
  | Total energy                  :        -323.47942771 Ha       -8802.32308515 eV
  | Total energy, T -> 0          :        -323.47942771 Ha       -8802.32308515 eV  <-- do not rely on this value for anything but (periodic) metals
  | Electronic free energy        :        -323.47942771 Ha       -8802.32308515 eV

  Derived energy quantities:
  | Kinetic energy                :         322.61707246 Ha        8778.85720501 eV
  | Electrostatic energy          :        -603.45190496 Ha      -16420.76181319 eV
  | Energy correction for multipole
  | error in Hartree potential    :           0.04110477 Ha           1.11851765 eV
  | Sum of eigenvalues per atom                           :        -378.68339336 eV
  | Total energy (T->0) per atom                          :        -677.10177578 eV  <-- do not rely on this value for anything but (periodic) metals
  | Electronic free energy per atom                       :        -677.10177578 eV

  atomic forces [eV/Ang]:
  -----------------------
  atom #    1
   Hellmann-Feynman              :  0.296291E+00  0.384179E+00  0.145593E+01
   Ionic forces                  :  0.000000E+00  0.000000E+00  0.000000E+00
   Multipole                     : -0.137588E+00  0.336375E+00 -0.265972E+00
   Pulay + GGA                   : -0.765462E+00 -0.193738E+00 -0.153906E+01
   Van der Waals                 :  0.346252E-02  0.172981E-02 -0.134712E-02
   ----------------------------------------------------------------
   Total forces(   1)            : -0.603296E+00  0.528546E+00 -0.350451E+00
  atom #    2
   Hellmann-Feynman              :  0.340830E+00 -0.260110E-01  0.637778E-01
   Ionic forces                  :  0.000000E+00  0.000000E+00  0.000000E+00
   Multipole                     :  0.174905E+00  0.110522E-01 -0.340313E-01
   Pulay + GGA                   : -0.164667E+00 -0.249405E-03 -0.140027E-01
   Van der Waals                 :  0.491173E-02 -0.633768E-02 -0.593829E-02
   ----------------------------------------------------------------
   Total forces(   2)            :  0.355980E+00 -0.215459E-01  0.980546E-02
  atom #    3
   Hellmann-Feynman              :  0.888857E+01 -0.486991E+01 -0.565674E+01
   Ionic forces                  :  0.000000E+00  0.000000E+00  0.000000E+00
   Multipole                     : -0.382533E+00  0.184757E+00 -0.110990E+01
   Pulay + GGA                   : -0.802673E+01  0.429964E+01  0.726769E+01
   Van der Waals                 :  0.485801E-02 -0.395470E-02 -0.937201E-02
   ----------------------------------------------------------------
   Total forces(   3)            :  0.484162E+00 -0.389468E+00  0.491679E+00
  atom #    4
   Hellmann-Feynman              : -0.186935E+00  0.245668E+00 -0.328276E+00
   Ionic forces                  :  0.000000E+00  0.000000E+00  0.000000E+00
   Multipole                     : -0.732572E-01 -0.257063E-01 -0.708304E-01
   Pulay + GGA                   :  0.282918E+00  0.853077E-01 -0.140526E+00
   Van der Waals                 : -0.283098E-03  0.960006E-03 -0.129307E-02
   ----------------------------------------------------------------
   Total forces(   4)            :  0.224425E-01  0.306230E+00 -0.540926E+00
  atom #    5
   Hellmann-Feynman              : -0.256907E+00  0.166160E+00 -0.374300E-01
   Ionic forces                  :  0.000000E+00  0.000000E+00  0.000000E+00
   Multipole                     : -0.620781E-01  0.559198E-01 -0.773456E-01
   Pulay + GGA                   :  0.111494E+00 -0.208864E+00  0.635244E-02
   Van der Waals                 : -0.298810E-02 -0.831060E-02 -0.536945E-02
   ----------------------------------------------------------------
   Total forces(   5)            : -0.210479E+00  0.490499E-02 -0.113793E+00
  atom #    6
   Hellmann-Feynman              :  0.241914E+00 -0.867344E+00  0.503875E+00
   Ionic forces                  :  0.000000E+00  0.000000E+00  0.000000E+00
   Multipole                     : -0.127641E+00  0.583269E+00  0.233638E+00
   Pulay + GGA                   :  0.140619E+00 -0.152689E+00 -0.424785E+00
   Van der Waals                 : -0.266450E-02  0.827007E-02  0.273676E-02
   ----------------------------------------------------------------
   Total forces(   6)            :  0.252228E+00 -0.428494E+00  0.315465E+00
  atom #    7
   Hellmann-Feynman              : -0.245977E+00 -0.491300E-01 -0.274179E-01
   Ionic forces                  :  0.000000E+00  0.000000E+00  0.000000E+00
   Multipole                     : -0.115829E+00  0.509818E-01  0.273106E-01
   Pulay + GGA                   :  0.104446E+00  0.257595E-01  0.144062E-01
   Van der Waals                 : -0.406820E-02 -0.232654E-03  0.706537E-02
   ----------------------------------------------------------------
   Total forces(   7)            : -0.261429E+00  0.273785E-01  0.213643E-01
  atom #    8
   Hellmann-Feynman              :  0.856014E-01  0.413207E-01  0.207418E+00
   Ionic forces                  :  0.000000E+00  0.000000E+00  0.000000E+00
   Multipole                     :  0.139596E-01  0.646833E-01  0.122089E+00
   Pulay + GGA                   : -0.445532E-01 -0.432758E-01 -0.113128E+00
   Van der Waals                 : -0.325467E-02  0.110712E-01  0.302452E-03
   ----------------------------------------------------------------
   Total forces(   8)            :  0.517531E-01  0.737995E-01  0.216681E+00
  atom #    9
   Hellmann-Feynman              :  0.107367E+00  0.663168E-01 -0.190182E+00
   Ionic forces                  :  0.000000E+00  0.000000E+00  0.000000E+00
   Multipole                     :  0.174115E-01  0.133256E+00 -0.847281E-02
   Pulay + GGA                   : -0.286600E-01 -0.713364E-01  0.851765E-01
   Van der Waals                 : -0.173599E-02  0.555563E-02  0.754708E-02
   ----------------------------------------------------------------
   Total forces(   9)            :  0.943824E-01  0.133792E+00 -0.105932E+00
  atom #   10
   Hellmann-Feynman              :  0.283502E+01  0.492534E+01  0.219390E+01
   Ionic forces                  :  0.000000E+00  0.000000E+00  0.000000E+00
   Multipole                     :  0.248335E-01 -0.546468E-01  0.282047E+00
   Pulay + GGA                   : -0.873899E+00 -0.323026E+01 -0.462665E+00
   Van der Waals                 :  0.328108E-02 -0.106482E-01 -0.151497E-02
   ----------------------------------------------------------------
   Total forces(  10)            :  0.198923E+01  0.162978E+01  0.201177E+01
  atom #   11
   Hellmann-Feynman              :  0.380825E+01 -0.234271E+01  0.140337E+02
   Ionic forces                  :  0.000000E+00  0.000000E+00  0.000000E+00
   Multipole                     :  0.196872E-01 -0.498893E+00  0.746337E+00
   Pulay + GGA                   : -0.278084E+01  0.338371E+01 -0.140400E+02
   Van der Waals                 : -0.147191E-03 -0.120294E-01  0.565175E-02
   ----------------------------------------------------------------
   Total forces(  11)            :  0.104696E+01  0.530081E+00  0.745647E+00
  atom #   12
   Hellmann-Feynman              : -0.472450E+00 -0.149707E+02 -0.346533E+01
   Ionic forces                  :  0.000000E+00  0.000000E+00  0.000000E+00
   Multipole                     : -0.810262E+00 -0.156435E+01 -0.436759E-01
   Pulay + GGA                   : -0.113528E+01  0.146805E+02  0.176481E+01
   Van der Waals                 :  0.554363E-03  0.682842E-02  0.400565E-02
   ----------------------------------------------------------------
   Total forces(  12)            : -0.241743E+01 -0.184774E+01 -0.174019E+01
  atom #   13
   Hellmann-Feynman              : -0.998383E+00 -0.279798E+00 -0.116317E+01
   Ionic forces                  :  0.000000E+00  0.000000E+00  0.000000E+00
   Multipole                     : -0.986452E-01  0.418836E-01  0.253138E-01
   Pulay + GGA                   :  0.289280E+00 -0.314984E+00  0.174583E+00
   Van der Waals                 : -0.192596E-02  0.709817E-02 -0.247415E-02
   ----------------------------------------------------------------
   Total forces(  13)            : -0.809675E+00 -0.545801E+00 -0.965750E+00

  Timings for VdW correction (Tkatchenko-Scheffler 2009 or later):
  | CPU time:        0.090 s, Wall clock time:        0.091 s.
  Removing unitary transformations (pure translations, rotations) from forces on atoms.
  Atomic forces before filtering:
  | Net force on center of mass :  -0.517258E-02  0.146273E-02 -0.462207E-02 eV/A
  | Net torque on center of mass:  -0.203997E-03  0.319535E-03 -0.112097E-01 eV
  Atomic forces after filtering:
  | Net force on center of mass :   0.178406E-15  0.000000E+00 -0.178406E-15 eV/A
  | Net torque on center of mass:   0.151054E-14 -0.377634E-15  0.151054E-14 eV

  Energy and forces in a compact form:
  | Total energy uncorrected      :         -0.880232308515270E+04 eV
  | Total energy corrected        :         -0.880232308515270E+04 eV  <-- do not rely on this value for anything but (periodic) metals
  | Electronic free energy        :         -0.880232308515270E+04 eV
  Total atomic forces (unitary forces cleaned) [eV/Ang]:
  |   1         -0.602902941311012E+00          0.528651395762332E+00         -0.350090513425517E+00
  |   2          0.356372597630749E+00         -0.210160387498369E-01          0.101746788440364E-01
  |   3          0.484566587763083E+00         -0.389503942946728E+00          0.492035487079430E+00
  |   4          0.230796196915081E-01          0.305875748034651E+00         -0.540595176980662E+00
  |   5         -0.210443345535101E+00          0.478564866643949E-02         -0.113407739965911E+00
  |   6          0.252125574636072E+00         -0.428604108906545E+00          0.315861197499739E+00
  |   7         -0.261542357421755E+00          0.268441030845123E-01          0.217527035766440E-01
  |   8          0.516372776739857E-01          0.737974285802302E-01          0.217081066538012E+00
  |   9          0.939346836352922E-01          0.133838081909379E+00         -0.105503960569889E+00
  |  10          0.199012214720876E+01          0.162970802038848E+01          0.201208883858966E+01
  |  11          0.104794122359625E+01          0.530087331225173E+00          0.745957543753139E+00
  |  12         -0.241621079593633E+01         -0.184806343652765E+01         -0.173990106913443E+01
  |  13         -0.808680271631512E+00         -0.546400230520435E+00         -0.965453055804249E+00

  ------------------------------------ 
  Start decomposition of the XC Energy 
  ------------------------------------ 
  X and C from original XC functional choice 
  Hartree-Fock Energy :          0.000000000 Ha              0.000000000 eV
  X Energy            :        -41.039465481 Ha          -1116.740674865 eV
  C Energy            :         -1.601836845 Ha            -43.588198306 eV
  Total XC Energy     :        -42.641302326 Ha          -1160.328873171 eV
  ------------------------------------ 
  LDA X and C from self-consistent density 
  X Energy LDA        :        -37.259795733 Ha          -1013.890628082 eV
  C Energy LDA        :         -3.138954489 Ha            -85.415297539 eV
  ------------------------------------ 
  End decomposition of the XC Energy 
  ------------------------------------ 

------------------------------------------------------------

------------------------------------------------------------------------------
  Final output of selected total energy values:

  The following output summarizes some interesting total energy values
  at the end of a run (AFTER all relaxation, molecular dynamics, etc.).

  | Total energy of the DFT / Hartree-Fock s.c.f. calculation      :          -8802.323085153 eV
  | Final zero-broadening corrected energy (caution - metals only) :          -8802.323085153 eV
  | For reference only, the value of 1 Hartree used in FHI-aims is :             27.211384500 eV

  Before relying on these values, please be sure to understand exactly which
  total energy value is referred to by a given number. Different objects may
  all carry the same name 'total energy'. Definitions:

  Total energy of the DFT / Hartree-Fock s.c.f. calculation:
  | Note that this energy does not include ANY quantities calculated after the
  | s.c.f. cycle, in particular not ANY RPA, MP2, etc. many-body perturbation terms.

  Final zero-broadening corrected energy:
  | For metallic systems only, a broadening of the occupation numbers at the Fermi
  | level can be extrapolated back to zero broadening by an electron-gas inspired
  | formula. For all systems that are not real metals, this value can be
  | meaningless and should be avoided.

------------------------------------------------------------------------------
  Methods described in the following list of references were used in this FHI-aims run.
  If you publish the results, please make sure to cite these reference if they apply.
  FHI-aims is an academic code, and for our developers (often, Ph.D. students
  and postdocs), scientific credit in the community is essential.
  Thank you for helping us!

  For any use of FHI-aims, please cite:

    Volker Blum, Ralf Gehrke, Felix Hanke, Paula Havu, Ville Havu,
    Xinguo Ren, Karsten Reuter, and Matthias Scheffler
    'Ab initio molecular simulations with numeric atom-centered orbitals'
    Computer Physics Communications 180, 2175-2196 (2009)
    http://dx.doi.org/10.1016/j.cpc.2009.06.022


  The scalable eigensolver library ELPA was used in your run.
  ELPA is essential especially for large systems on hundreds or thousands of CPUs.
  For ELPA, please cite:

    Andreas Marek, Volker Blum, Rainer Johanni, Ville Havu, Bruno Lang,
    Thomas Auckenthaler, Alexander Heinecke, Hans-Joachim Bungartz, and Hermann Lederer,
    'The ELPA Library - Scalable Parallel Eigenvalue Solutions
    for Electronic Structure Theory and Computational Science'
    The Journal of Physics: Condensed Matter 26, 213201 (2014).
    http://dx.doi.org/10.1088/0953-8984/26/21/213201


  The ELSI infrastructure was used in your run to solve the Kohn-Sham electronic structure.
  Please check out http://elsi-interchange.org to learn more.
  If scalability is important for your project, please acknowledge ELSI by citing:

    V. W-z. Yu, F. Corsetti, A. Garcia, W. P. Huhn, M. Jacquelin, W. Jia,
    B. Lange, L. Lin, J. Lu, W. Mi, A. Seifitokaldani, A. Vazquez-Mayagoitia,
    C. Yang, H. Yang, and V. Blum
    'ELSI: A unified software interface for Kohn-Sham electronic structure solvers'
    Computer Physics Communications 222, 267-285 (2018).
    http://dx.doi.org/10.1016/j.cpc.2017.09.007


  For the real-space grid partitioning and parallelization used in this calculation, please cite:

    Ville Havu, Volker Blum, Paula Havu, and Matthias Scheffler,
    'Efficient O(N) integration for all-electron electronic structure calculation'
    'using numerically tabulated basis functions'
    Journal of Computational Physics 228, 8367-8379 (2009).
    http://dx.doi.org/10.1016/j.jcp.2009.08.008

  Of course, there are many other important community references, e.g., those cited in the
  above references. Our list is limited to references that describe implementations in the
  FHI-aims code. The reason is purely practical (length of this list) - please credit others as well.

------------------------------------------------------------
          Leaving FHI-aims.
          Date     :  20200710, Time     :  151401.985

          Computational steps:
          | Number of self-consistency cycles          :           16
          | Number of SCF (re)initializations          :            1

          Detailed time accounting                     :  max(cpu_time)    wall_clock(cpu1)
          | Total time                                 :       22.707 s          22.749 s
          | Preparation time                           :        0.148 s           0.149 s
          | Boundary condition initalization           :        0.000 s           0.000 s
          | Grid partitioning                          :        0.111 s           0.111 s
          | Preloading free-atom quantities on grid    :        0.002 s           0.003 s
          | Free-atom superposition energy             :        0.084 s           0.084 s
          | Total time for integrations                :        8.650 s           8.659 s
          | Total time for solution of K.-S. equations :        0.036 s           0.042 s
          | Total time for density & force components  :        7.174 s           7.187 s
          | Total time for mixing                      :        0.213 s           0.217 s
          | Total time for Hartree multipole update    :        0.139 s           0.141 s
          | Total time for Hartree multipole sum       :        5.748 s           5.748 s
          | Total time for total energy evaluation     :        0.003 s           0.005 s
          | Total time for vdW correction              :        0.090 s           0.091 s

          Partial memory accounting:
          | Residual value for overall tracked memory usage across tasks :           0.000 MB (should be 0.000 MB)
          | Peak values for overall tracked memory usage (after allocating hessian_basis_wave):
          |   Minimum:        1.622 MB (on task 1)
          |   Maximum:        1.622 MB (on task 1)
          |   Average:        1.622 MB
          | Largest tracked array allocation (hessian_basis_wave):
          |   Minimum:        0.794 MB (on task 1)
          |   Maximum:        0.794 MB (on task 1)
          |   Average:        0.794 MB
          Note:  These values currently only include a subset of arrays which are explicitly tracked.
          The "true" memory usage will be greater.

          Have a nice day.
------------------------------------------------------------
