  MPI-parallelism will be employed.
------------------------------------------------------------
          Invoking FHI-aims ...
          Version 171221_1
          Compiled on 2019/09/09 at 14:39:39 on host puhti-login2.bullx.

          When using FHI-aims, please cite the following reference:

          Volker Blum, Ralf Gehrke, Felix Hanke, Paula Havu,
          Ville Havu, Xinguo Ren, Karsten Reuter, and Matthias Scheffler,
          'Ab Initio Molecular Simulations with Numeric Atom-Centered Orbitals',
          Computer Physics Communications 180, 2175-2196 (2009)

          For any questions about FHI-aims, please visit the aimsclub website
          with its forums and wiki. Contributions to both the forums and the
          wiki are warmly encouraged - they are for you, and everyone is welcome there.

------------------------------------------------------------



  Date     :  20200616, Time     :  081752.830
  Time zero on CPU 1             :   0.293460000000000E-01  s.
  Internal wall clock time zero  :           361527472.830  s.

  FHI-aims created a unique identifier for this run for later identification
  aims_uuid : 600ADB3A-6129-40A1-AC9E-5AB920130BE3

  Using       20 parallel tasks.
  Task        0 on host r05c49.bullx reporting.
  Task        1 on host r05c49.bullx reporting.
  Task        2 on host r05c49.bullx reporting.
  Task        3 on host r05c49.bullx reporting.
  Task        4 on host r05c49.bullx reporting.
  Task        5 on host r05c49.bullx reporting.
  Task        6 on host r05c49.bullx reporting.
  Task        7 on host r05c49.bullx reporting.
  Task        8 on host r05c49.bullx reporting.
  Task        9 on host r05c49.bullx reporting.
  Task       10 on host r05c49.bullx reporting.
  Task       11 on host r05c49.bullx reporting.
  Task       12 on host r05c49.bullx reporting.
  Task       13 on host r05c49.bullx reporting.
  Task       14 on host r05c49.bullx reporting.
  Task       15 on host r05c49.bullx reporting.
  Task       16 on host r05c49.bullx reporting.
  Task       17 on host r05c49.bullx reporting.
  Task       18 on host r05c49.bullx reporting.
  Task       19 on host r05c49.bullx reporting.

  Performing system and environment tests:
  | Environment variable OMP_NUM_THREADS correctly set to 1.
  | Stacksize not measured: no C compiler
  | Checking for scalapack...
  | Testing pdtran()...
  | All pdtran() tests passed.

  Obtaining array dimensions for all initial allocations:
  
  -----------------------------------------------------------------------
  Parsing control.in (first pass over file, find array dimensions only).
  The contents of control.in will be repeated verbatim below
  unless switched off by setting 'verbatim_writeout .false.' .
  in the first line of control.in .
  -----------------------------------------------------------------------
  
  #########################################################################################
  #
  #  Volker Blum, FHI 2009 : Test run input file control.in for simple H2O
  #
  #########################################################################################
  #
  #  Physical model
  #
    xc                 pbe
    vdw_correction_hirshfeld
    spin               none
    relativistic       none
    charge             0.
  #
  #  SCF convergence
  #
    occupation_type    gaussian 0.01
    mixer              pulay
      n_max_pulay        10
      charge_mix_param   0.2
    sc_accuracy_rho    1E-5
    sc_accuracy_eev    1E-3
    sc_accuracy_etot   1E-6
    sc_accuracy_forces 1E-4
    sc_iter_limit      100
  #
  #  Relaxation
  #
  #  relax_geometry   bfgs 1.e-3
  #
  ################################################################################
  #
  #  FHI-aims code project
  #  VB, Fritz-Haber Institut, 2009
  #
  #  Suggested "light" defaults for H atom (to be pasted into control.in file)
  #  Be sure to double-check any results obtained with these settings for post-processing,
  #  e.g., with the "tight" defaults and larger basis sets.
  #
  ################################################################################
    species        H
  #     global species definitions
      nucleus             1
      mass                1.00794
  #
      l_hartree           4
  #
      cut_pot             3.5  1.5  1.0
      basis_dep_cutoff    1e-4
  #
      radial_base         24 5.0
      radial_multiplier   1
      angular_grids       specified
        division   0.2421   50
        division   0.3822  110
        division   0.4799  194
        division   0.5341  302
  #      division   0.5626  434
  #      division   0.5922  590
  #      division   0.6542  770
  #      division   0.6868 1202
  #      outer_grid  770
        outer_grid  302
  ################################################################################
  #
  #  Definition of "minimal" basis
  #
  ################################################################################
  #     valence basis states
      valence      1  s   1.
  #     ion occupancy
      ion_occ      1  s   0.5
  ################################################################################
  #
  #  Suggested additional basis functions. For production calculations,
  #  uncomment them one after another (the most important basis functions are
  #  listed first).
  #
  #  Basis constructed for dimers: 0.5 A, 0.7 A, 1.0 A, 1.5 A, 2.5 A
  #
  ################################################################################
  #  "First tier" - improvements: -1014.90 meV to -62.69 meV
       hydro 2 s 2.1
       hydro 2 p 3.5
  #  "Second tier" - improvements: -12.89 meV to -1.83 meV
  #     hydro 1 s 0.85
  #     hydro 2 p 3.7
  #     hydro 2 s 1.2
  #     hydro 3 d 7
  #  "Third tier" - improvements: -0.25 meV to -0.12 meV
  #     hydro 4 f 11.2
  #     hydro 3 p 4.8
  #     hydro 4 d 9
  #     hydro 3 s 3.2
  ################################################################################
  #
  #  FHI-aims code project
  #  VB, Fritz-Haber Institut, 2009
  #
  #  Suggested "light" defaults for C atom (to be pasted into control.in file)
  #  Be sure to double-check any results obtained with these settings for post-processing,
  #  e.g., with the "tight" defaults and larger basis sets.
  #
  ################################################################################
    species        C
  #     global species definitions
      nucleus             6
      mass                12.0107
  #
      l_hartree           4
  #
      cut_pot             3.5  1.5  1.0
      basis_dep_cutoff    1e-4
  #
      radial_base         34 5.0
      radial_multiplier   1
      angular_grids specified
        division   0.3326   50
        division   0.5710  110
        division   0.7727  194
        division   0.8772  302
  #      division   0.9334  434
  #      division   0.9625  590
  #      division   0.9924  770
  #      division   1.0230  974
  #      division   1.4589 1202
  #     outer_grid  974
       outer_grid 302
  ################################################################################
  #
  #  Definition of "minimal" basis
  #
  ################################################################################
  #     valence basis states
      valence      2  s   2.
      valence      2  p   2.
  #     ion occupancy
      ion_occ      2  s   1.
      ion_occ      2  p   1.
  ################################################################################
  #
  #  Suggested additional basis functions. For production calculations,
  #  uncomment them one after another (the most important basis functions are
  #  listed first).
  #
  #  Constructed for dimers: 1.0 A, 1.25 A, 1.5 A, 2.0 A, 3.0 A
  #
  ################################################################################
  #  "First tier" - improvements: -1214.57 meV to -155.61 meV
       hydro 2 p 1.7
       hydro 3 d 6
       hydro 2 s 4.9
  #  "Second tier" - improvements: -67.75 meV to -5.23 meV
  #     hydro 4 f 9.8
  #     hydro 3 p 5.2
  #     hydro 3 s 4.3
  #     hydro 5 g 14.4
  #     hydro 3 d 6.2
  #  "Third tier" - improvements: -2.43 meV to -0.60 meV
  #     hydro 2 p 5.6
  #     hydro 2 s 1.4
  #     hydro 3 d 4.9
  #     hydro 4 f 11.2
  #  "Fourth tier" - improvements: -0.39 meV to -0.18 meV
  #     hydro 2 p 2.1
  #     hydro 5 g 16.4
  #     hydro 4 d 13.2
  #     hydro 3 s 13.6
  #     hydro 4 f 17.6
  #  Further basis functions - improvements: -0.08 meV and below
  #     hydro 3 s 2
  #     hydro 3 p 6
  #     hydro 4 d 20
  ################################################################################
  #
  #  FHI-aims code project
  #  VB, Fritz-Haber Institut, 2009
  #
  #  Suggested "light" defaults for N atom (to be pasted into control.in file)
  #  Be sure to double-check any results obtained with these settings for post-processing,
  #  e.g., with the "tight" defaults and larger basis sets.
  #
  ################################################################################
    species        N
  #     global species definitions
      nucleus             7
      mass                14.0067
  #
      l_hartree           4
  #
      cut_pot             3.5  1.5  1.0
      basis_dep_cutoff    1e-4
  #
      radial_base         35 5.0
      radial_multiplier   1
      angular_grids       specified
        division   0.2599   50
        division   0.4601  110
        division   0.5885  194
        division   0.6503  302
  #      division   0.6939  434
  #      division   0.7396  590
  #      division   0.7632  770
  #      division   0.8122  974
  #      division   1.1604 1202
  #      outer_grid  974
        outer_grid  302
  ################################################################################
  #
  #  Definition of "minimal" basis
  #
  ################################################################################
  #     valence basis states
      valence      2  s   2.
      valence      2  p   3.
  #     ion occupancy
      ion_occ      2  s   1.
      ion_occ      2  p   2.
  ################################################################################
  #
  #  Suggested additional basis functions. For production calculations,
  #  uncomment them one after another (the most important basis functions are
  #  listed first).
  #
  #  Constructed for dimers: 1.0 A, 1.1 A, 1.5 A, 2.0 A, 3.0 A
  #
  ################################################################################
  #  "First tier" - improvements: -1193.42 meV to -220.60 meV
       hydro 2 p 1.8
       hydro 3 d 6.8
       hydro 3 s 5.8
  #  "Second tier" - improvements: -80.21 meV to -6.86 meV
  #     hydro 4 f 10.8
  #     hydro 3 p 5.8
  #     hydro 1 s 0.8
  #     hydro 5 g 16
  #     hydro 3 d 4.9
  #  "Third tier" - improvements: -4.29 meV to -0.53 meV
  #     hydro 3 s 16
  #     ionic 2 p auto
  #     hydro 3 d 6.6
  #     hydro 4 f 11.6
  #  "Fourth tier" - improvements: -0.75 meV to -0.25 meV
  #     hydro 2 p 4.5
  #     hydro 2 s 2.4
  #     hydro 5 g 14.4
  #     hydro 4 d 14.4
  #     hydro 4 f 16.8
  # Further basis functions - -0.21 meV and below
  #     hydro 3 p 14.8
  #     hydro 3 s 4.4
  #     hydro 3 d 19.6
  #     hydro 5 g 12.8
  ################################################################################
  #
  #  FHI-aims code project
  #  VB, Fritz-Haber Institut, 2009
  #
  #  Suggested "light" defaults for O atom (to be pasted into control.in file)
  #  Be sure to double-check any results obtained with these settings for post-processing,
  #  e.g., with the "tight" defaults and larger basis sets.
  #
  ################################################################################
    species        O
  #     global species definitions
      nucleus             8
      mass                15.9994
  #
      l_hartree           4
  #
      cut_pot             3.5  1.5  1.0
      basis_dep_cutoff    1e-4
  #
      radial_base         36 5.0
      radial_multiplier   1
       angular_grids specified
        division   0.2659   50
        division   0.4451  110
        division   0.6052  194
        division   0.7543  302
  #      division   0.8014  434
  #      division   0.8507  590
  #      division   0.8762  770
  #      division   0.9023  974
  #      division   1.2339 1202
  #      outer_grid 974
        outer_grid 302
  ################################################################################
  #
  #  Definition of "minimal" basis
  #
  ################################################################################
  #     valence basis states
      valence      2  s   2.
      valence      2  p   4.
  #     ion occupancy
      ion_occ      2  s   1.
      ion_occ      2  p   3.
  ################################################################################
  #
  #  Suggested additional basis functions. For production calculations,
  #  uncomment them one after another (the most important basis functions are
  #  listed first).
  #
  #  Constructed for dimers: 1.0 A, 1.208 A, 1.5 A, 2.0 A, 3.0 A
  #
  ################################################################################
  #  "First tier" - improvements: -699.05 meV to -159.38 meV
       hydro 2 p 1.8
       hydro 3 d 7.6
       hydro 3 s 6.4
  #  "Second tier" - improvements: -49.91 meV to -5.39 meV
  #     hydro 4 f 11.6
  #     hydro 3 p 6.2
  #     hydro 3 d 5.6
  #     hydro 5 g 17.6
  #     hydro 1 s 0.75
  #  "Third tier" - improvements: -2.83 meV to -0.50 meV
  #     ionic 2 p auto
  #     hydro 4 f 10.8
  #     hydro 4 d 4.7
  #     hydro 2 s 6.8
  #  "Fourth tier" - improvements: -0.40 meV to -0.12 meV
  #     hydro 3 p 5
  #     hydro 3 s 3.3
  #     hydro 5 g 15.6
  #     hydro 4 f 17.6
  #     hydro 4 d 14
  # Further basis functions - -0.08 meV and below
  #     hydro 3 s 2.1
  #     hydro 4 d 11.6
  #     hydro 3 p 16
  #     hydro 2 s 17.2
  
  -----------------------------------------------------------------------
  Completed first pass over input file control.in .
  -----------------------------------------------------------------------
  
  
  -----------------------------------------------------------------------
  Parsing geometry.in (first pass over file, find array dimensions only).
  The contents of geometry.in will be repeated verbatim below
  unless switched off by setting 'verbatim_writeout .false.' .
  in the first line of geometry.in .
  -----------------------------------------------------------------------
  
  atom  0.00000 0.00000 0.00000 C
  atom  1.09300 0.00000 0.00000 H
  atom  -0.47961 0.00000 -1.41207 N
  atom  0.00348 -0.74085 -1.92158 H
  atom  -1.48369 -0.16712 -1.41623 H
  atom  -0.49584 1.26211 0.72868 C
  atom  -0.03924 2.15584 0.29703 H
  atom  -1.58125 1.35100 0.64177 H
  atom  -0.23554 1.21746 1.78878 H
  atom  -0.39425 -1.28861 0.74398 C
  atom  -1.51493 -1.72526 0.85654 O
  atom  0.57842 -1.94650 1.28976 O
  atom  1.31591 -1.39806 0.97304 H
  
  -----------------------------------------------------------------------
  Completed first pass over input file geometry.in .
  -----------------------------------------------------------------------
  

  Basic array size parameters:
  | Number of species                 :        4
  | Number of atoms                   :       13
  | Max. basis fn. angular momentum   :        2
  | Max. atomic/ionic basis occupied n:        2
  | Max. number of basis fn. types    :        2
  | Max. radial fns per species/type  :        3
  | Max. logarithmic grid size        :     1301
  | Max. radial integration grid size :       36
  | Max. angular integration grid size:      302
  | Max. angular grid division number :        8
  | Radial grid for Hartree potential :     1301
  | Number of spin channels           :        1

------------------------------------------------------------
          Reading file control.in.
------------------------------------------------------------
  XC: Using PBE gradient-corrected functionals.
  Spin treatment: No spin polarisation.
  Non-relativistic treatment of kinetic energy.
  Charge =   0.000000E+00: Neutral system requested explicitly.
  Occupation type: Gaussian broadening, width =   0.100000E-01 eV.
  Using pulay charge density mixing.
  Pulay mixing - number of memorized iterations:   10
  Charge density mixing - mixing parameter:     0.2000
  Convergence accuracy of self-consistent charge density:  0.1000E-04
  Convergence accuracy of sum of eigenvalues:  0.1000E-02
  Convergence accuracy of total energy:  0.1000E-05
  Convergence accuracy of forces:  0.1000E-03
  Maximum number of s.-c. iterations  :   100
 
  Reading configuration options for species H                   .
  | Found nuclear charge :   1.0000
  | Found atomic mass :    1.00794000000000      amu
  | Found l_max for Hartree potential  :   4
  | Found cutoff potl. onset [A], width [A], scale factor :    3.50000    1.50000    1.00000
  | Threshold for basis-dependent cutoff potential is   0.100000E-03
  | Found data for basic radial integration grid :    24 points, outermost radius =    5.000 A
  | Found multiplier for basic radial grid :   1
  | Found angular grid specification: user-specified.
  | Specified grid contains     5 separate shells.
  | Check grid settings after all constraints further below.
  | Found free-atom valence shell :  1 s   1.000
  | No ionic wave fns used. Skipping ion_occ.
  | Found hydrogenic basis function :  2 s   2.100
  | Found hydrogenic basis function :  2 p   3.500
  Species H                   : Missing cutoff potential type.
  Defaulting to exp(1/x)/(1-x)^2 type cutoff potential.
  Species H : No 'logarithmic' tag. Using default grid for free atom:
  | Default logarithmic grid data [bohr] : 0.1000E-03 0.1000E+03 0.1012E+01
  Species H : On-site basis accuracy parameter (for Gram-Schmidt orthonormalisation) not specified.
  Using default value basis_acc =  0.1000000E-03.
  Species H                   : Using default innermost maximum threshold i_radial=  2 for radial functions.
  Species H                   : Default cutoff onset for free atom density etc. : 0.35000000E+01 AA.
  Species H                   : Basic radial grid will be enhanced according to radial_multiplier =   1, to contain    24 grid points.
 
  Reading configuration options for species C                   .
  | Found nuclear charge :   6.0000
  | Found atomic mass :    12.0107000000000      amu
  | Found l_max for Hartree potential  :   4
  | Found cutoff potl. onset [A], width [A], scale factor :    3.50000    1.50000    1.00000
  | Threshold for basis-dependent cutoff potential is   0.100000E-03
  | Found data for basic radial integration grid :    34 points, outermost radius =    5.000 A
  | Found multiplier for basic radial grid :   1
  | Found angular grid specification: user-specified.
  | Specified grid contains     5 separate shells.
  | Check grid settings after all constraints further below.
  | Found free-atom valence shell :  2 s   2.000
  | Found free-atom valence shell :  2 p   2.000
  | No ionic wave fns used. Skipping ion_occ.
  | No ionic wave fns used. Skipping ion_occ.
  | Found hydrogenic basis function :  2 p   1.700
  | Found hydrogenic basis function :  3 d   6.000
  | Found hydrogenic basis function :  2 s   4.900
  Species C                   : Missing cutoff potential type.
  Defaulting to exp(1/x)/(1-x)^2 type cutoff potential.
  Species C : No 'logarithmic' tag. Using default grid for free atom:
  | Default logarithmic grid data [bohr] : 0.1000E-03 0.1000E+03 0.1012E+01
  Species C : On-site basis accuracy parameter (for Gram-Schmidt orthonormalisation) not specified.
  Using default value basis_acc =  0.1000000E-03.
  Species C                   : Using default innermost maximum threshold i_radial=  2 for radial functions.
  Species C                   : Default cutoff onset for free atom density etc. : 0.35000000E+01 AA.
  Species C                   : Basic radial grid will be enhanced according to radial_multiplier =   1, to contain    34 grid points.
 
  Reading configuration options for species N                   .
  | Found nuclear charge :   7.0000
  | Found atomic mass :    14.0067000000000      amu
  | Found l_max for Hartree potential  :   4
  | Found cutoff potl. onset [A], width [A], scale factor :    3.50000    1.50000    1.00000
  | Threshold for basis-dependent cutoff potential is   0.100000E-03
  | Found data for basic radial integration grid :    35 points, outermost radius =    5.000 A
  | Found multiplier for basic radial grid :   1
  | Found angular grid specification: user-specified.
  | Specified grid contains     5 separate shells.
  | Check grid settings after all constraints further below.
  | Found free-atom valence shell :  2 s   2.000
  | Found free-atom valence shell :  2 p   3.000
  | No ionic wave fns used. Skipping ion_occ.
  | No ionic wave fns used. Skipping ion_occ.
  | Found hydrogenic basis function :  2 p   1.800
  | Found hydrogenic basis function :  3 d   6.800
  | Found hydrogenic basis function :  3 s   5.800
  Species N                   : Missing cutoff potential type.
  Defaulting to exp(1/x)/(1-x)^2 type cutoff potential.
  Species N : No 'logarithmic' tag. Using default grid for free atom:
  | Default logarithmic grid data [bohr] : 0.1000E-03 0.1000E+03 0.1012E+01
  Species N : On-site basis accuracy parameter (for Gram-Schmidt orthonormalisation) not specified.
  Using default value basis_acc =  0.1000000E-03.
  Species N                   : Using default innermost maximum threshold i_radial=  2 for radial functions.
  Species N                   : Default cutoff onset for free atom density etc. : 0.35000000E+01 AA.
  Species N                   : Basic radial grid will be enhanced according to radial_multiplier =   1, to contain    35 grid points.
 
  Reading configuration options for species O                   .
  | Found nuclear charge :   8.0000
  | Found atomic mass :    15.9994000000000      amu
  | Found l_max for Hartree potential  :   4
  | Found cutoff potl. onset [A], width [A], scale factor :    3.50000    1.50000    1.00000
  | Threshold for basis-dependent cutoff potential is   0.100000E-03
  | Found data for basic radial integration grid :    36 points, outermost radius =    5.000 A
  | Found multiplier for basic radial grid :   1
  | Found angular grid specification: user-specified.
  | Specified grid contains     5 separate shells.
  | Check grid settings after all constraints further below.
  | Found free-atom valence shell :  2 s   2.000
  | Found free-atom valence shell :  2 p   4.000
  | No ionic wave fns used. Skipping ion_occ.
  | No ionic wave fns used. Skipping ion_occ.
  | Found hydrogenic basis function :  2 p   1.800
  | Found hydrogenic basis function :  3 d   7.600
  | Found hydrogenic basis function :  3 s   6.400
  Species O                   : Missing cutoff potential type.
  Defaulting to exp(1/x)/(1-x)^2 type cutoff potential.
  Species O : No 'logarithmic' tag. Using default grid for free atom:
  | Default logarithmic grid data [bohr] : 0.1000E-03 0.1000E+03 0.1012E+01
  Species O : On-site basis accuracy parameter (for Gram-Schmidt orthonormalisation) not specified.
  Using default value basis_acc =  0.1000000E-03.
  Species O                   : Using default innermost maximum threshold i_radial=  2 for radial functions.
  Species O                   : Default cutoff onset for free atom density etc. : 0.35000000E+01 AA.
  Species O                   : Basic radial grid will be enhanced according to radial_multiplier =   1, to contain    36 grid points.
 
  Finished reading input file 'control.in'. Consistency checks are next.
 
  MPI_IN_PLACE appears to work with this MPI implementation.
  | Keeping use_mpi_in_place .true. (see manual).
  Target number of points in a grid batch is not set. Defaulting to  100
  Method for grid partitioning is not set. Defaulting to parallel hash+maxmin partitioning.
  Batch size limit is not set. Defaulting to    200
  By default, will store active basis functions for each batch.
  If in need of memory, prune_basis_once .false. can be used to disable this option.
  communication_type for Hartree potential was not specified.
  Defaulting to calc_hartree .
  Pulay mixer: Number of initial linear mixing iterations not set.
  Defaulting to    0 iterations.
  Work space size for distributed Hartree potential not set.
  Defaulting to   0.200000E+03 MB.
  Algorithm-dependent basis array size parameters:
  | n_max_pulay                         :       10
  Presetting      1001 iterations before the initial mixing cycle
  is restarted anyway using the sc_init_iter criterion / keyword.
  Presetting a factor      1.000 between actual scf density residual
  and density convergence criterion sc_accuracy_rho below which sc_init_iter
  takes no effect.
  Geometry relaxation not requested: no relaxation will be performed.
  Handling of forces: Unphysical translation and rotation will be removed from forces.
  No accuracy limit for integral partition fn. given. Defaulting to  0.1000E-14.
  No threshold value for u(r) in integrations given. Defaulting to  0.1000E-05.
  No accuracy for occupation numbers given. Defaulting to  0.1000E-12.
  No threshold value for occupation numbers given. Defaulting to  0.0000E+00.
  No accuracy for fermi level given. Defaulting to  0.1000E-19.
  Maximum # of iterations to find E_F not set. Defaulting to  200.
  Preferred method for the eigenvalue solver ('KS_method') not specified in 'control.in'.
  Calling BLACS routine to test compilation state
  Since ScaLAPACK support is enabled, defaulting to 'elsi'.
  Will not use alltoall communication since running on < 1024 CPUs.
  Threshold for basis singularities not set.
  Default threshold for basis singularities:  0.1000E-04
  partition_type (choice of integration weights) for integrals was not specified.
  | Using a version of the partition function of Stratmann and coworkers ('stratmann_smoother').
  | At each grid point, the set of atoms used to build the partition table is smoothly restricted to
  | only those atoms whose free-atom density would be non-zero at that grid point.
  Partitioning for Hartree potential was not defined. Using partition_type for integrals.
  | Adjusted default value of keyword multip_moments_threshold to:       0.10000000E-11
  | This value may affect high angular momentum components of the Hartree potential in periodic systems.
  No q(lm)/r^(l+1) cutoff set for long-range Hartree potential.
  | Using default value of  0.100000E-09 .
  | Verify using the multipole_threshold keyword.
  Defaulting to new monopole extrapolation.
  Density update method: automatic selection selected.
------------------------------------------------------------


------------------------------------------------------------
          Reading geometry description geometry.in.
------------------------------------------------------------
  Input structure read successfully.
  The structure contains       13 atoms,  and a total of         48.000 electrons.

  Input geometry:
  | No unit cell requested.
  | Atomic structure:
  |       Atom                x [A]            y [A]            z [A]
  |    1: Species C             0.00000000        0.00000000        0.00000000
  |    2: Species H             1.09300000        0.00000000        0.00000000
  |    3: Species N            -0.47961000        0.00000000       -1.41207000
  |    4: Species H             0.00348000       -0.74085000       -1.92158000
  |    5: Species H            -1.48369000       -0.16712000       -1.41623000
  |    6: Species C            -0.49584000        1.26211000        0.72868000
  |    7: Species H            -0.03924000        2.15584000        0.29703000
  |    8: Species H            -1.58125000        1.35100000        0.64177000
  |    9: Species H            -0.23554000        1.21746000        1.78878000
  |   10: Species C            -0.39425000       -1.28861000        0.74398000
  |   11: Species O            -1.51493000       -1.72526000        0.85654000
  |   12: Species O             0.57842000       -1.94650000        1.28976000
  |   13: Species H             1.31591000       -1.39806000        0.97304000
  |

  | The smallest distance between any two atoms is         0.97210570 AA.
  |
  | The first atom of this pair is atom number                     12 .
  | The second atom of this pair is atom number                    13 .

  Number of empty states per atom not set in control.in - providing a guess from actual geometry.
  | Total number of empty states used during s.c.f. cycle:       29
  If you use a very high smearing, use empty_states (per atom!) in control.in to increase this value.

  Structure-dependent array size parameters: 
  | Maximum number of distinct radial functions  :       21
  | Maximum number of basis functions            :      119
  | Number of Kohn-Sham states (occupied + empty):       53
------------------------------------------------------------

------------------------------------------------------------
          Preparing all fixed parts of the calculation.
------------------------------------------------------------
  Determining machine precision:
    2.225073858507201E-308
  Setting up grids for atomic and cluster calculations.

  Creating wave function, potential, and density for free atoms.

  Species: H

  List of occupied orbitals and eigenvalues:
    n    l              occ      energy [Ha]    energy [eV]
    1    0           1.0000        -0.237589        -6.4651


  Species: C

  List of occupied orbitals and eigenvalues:
    n    l              occ      energy [Ha]    energy [eV]
    1    0           2.0000       -10.038835      -273.1706
    2    0           2.0000        -0.502696       -13.6791
    2    1           2.0000        -0.191971        -5.2238


  Species: N

  List of occupied orbitals and eigenvalues:
    n    l              occ      energy [Ha]    energy [eV]
    1    0           2.0000       -14.128000      -384.4424
    2    0           2.0000        -0.681077       -18.5330
    2    1           3.0000        -0.259788        -7.0692


  Species: O

  List of occupied orbitals and eigenvalues:
    n    l              occ      energy [Ha]    energy [eV]
    1    0           2.0000       -18.898188      -514.2459
    2    0           2.0000        -0.878505       -23.9053
    2    1           4.0000        -0.331779        -9.0282

  Creating fixed part of basis set: Ionic, confined, hydrogenic.
 
  H                    hydrogenic:
 
  List of hydrogenic basis orbitals: 
    n    l      effective z      eigenvalue [eV]  inner max. [A]     outer max. [A]     outer radius [A]   
    2    0         2.100000       -14.9728           0.193243           1.317208           4.583499
    2    1         3.500000       -41.6669           0.602369           0.602369           3.723403
 
 
  C                    hydrogenic:
 
  List of hydrogenic basis orbitals: 
    n    l      effective z      eigenvalue [eV]  inner max. [A]     outer max. [A]     outer radius [A]   
    2    1         1.700000        -9.7616           1.230570           1.230570           4.607917
    3    2         6.000000       -54.4224           0.792453           0.792453           3.883070
    2    0         4.900000       -81.6679           0.082559           0.562749           3.078220
 
 
  N                    hydrogenic:
 
  List of hydrogenic basis orbitals: 
    n    l      effective z      eigenvalue [eV]  inner max. [A]     outer max. [A]     outer radius [A]   
    2    1         1.800000       -10.9749           1.177451           1.177451           4.573712
    3    2         6.800000       -69.9026           0.704619           0.704619           3.538137
    3    0         5.800000       -50.8545           0.067388           1.191934           4.250239
 
 
  O                    hydrogenic:
 
  List of hydrogenic basis orbitals: 
    n    l      effective z      eigenvalue [eV]  inner max. [A]     outer max. [A]     outer radius [A]   
    2    1         1.800000       -10.9749           1.164242           1.164242           4.578029
    3    2         7.600000       -87.3180           0.624125           0.624125           3.251020
    3    0         6.400000       -61.9207           0.061167           1.081902           4.001998
 

  Adding cutoff potential to free-atom effective potential.
  Creating atomic-like basis functions for current effective potential.

  Species H                   :

  List of atomic basis orbitals and eigenvalues:
    n    l      energy [Ha]    energy [eV]    outer radius [A]
    1    0        -0.237589        -6.4651       4.527807


  Species C                   :

  List of atomic basis orbitals and eigenvalues:
    n    l      energy [Ha]    energy [eV]    outer radius [A]
    1    0       -10.038835      -273.1706       1.934409
    2    0        -0.502696       -13.6791       4.496620
    2    1        -0.191971        -5.2238       4.551928


  Species N                   :

  List of atomic basis orbitals and eigenvalues:
    n    l      energy [Ha]    energy [eV]    outer radius [A]
    1    0       -14.128000      -384.4424       1.637919
    2    0        -0.681077       -18.5330       4.463241
    2    1        -0.259788        -7.0692       4.518138


  Species O                   :

  List of atomic basis orbitals and eigenvalues:
    n    l      energy [Ha]    energy [eV]    outer radius [A]
    1    0       -18.898188      -514.2459       1.415765
    2    0        -0.878505       -23.9053       4.413171
    2    1        -0.331779        -9.0282       4.522403

  Assembling full basis from fixed parts.
  | Species H :   atomic orbital   1 s accepted.
  | Species H :    hydro orbital   2 s accepted.
  | Species H :    hydro orbital   2 p accepted.
  | Species C :   atomic orbital   1 s accepted.
  | Species C :    hydro orbital   2 s accepted.
  | Species C :   atomic orbital   2 s accepted.
  | Species C :   atomic orbital   2 p accepted.
  | Species C :    hydro orbital   2 p accepted.
  | Species C :    hydro orbital   3 d accepted.
  | Species N :   atomic orbital   1 s accepted.
  | Species N :    hydro orbital   3 s accepted.
  | Species N :   atomic orbital   2 s accepted.
  | Species N :   atomic orbital   2 p accepted.
  | Species N :    hydro orbital   2 p accepted.
  | Species N :    hydro orbital   3 d accepted.
  | Species O :   atomic orbital   1 s accepted.
  | Species O :    hydro orbital   3 s accepted.
  | Species O :   atomic orbital   2 s accepted.
  | Species O :   atomic orbital   2 p accepted.
  | Species O :    hydro orbital   2 p accepted.
  | Species O :    hydro orbital   3 d accepted.
 
  Basis size parameters after reduction:
  | Total number of radial functions:       21
  | Total number of basis functions :      119
 
  Per-task memory consumption for arrays in subroutine allocate_ext:
  |           5.250512MB.
  Testing on-site integration grid accuracy.
  |  Species  Function  <phi|h_atom|phi> (log., in eV)  <phi|h_atom|phi> (rad., in eV)
           1        1                 -6.4663192853                 -6.4651273558
           1        2                 13.7111246313                 13.7170609718
           1        3                 25.2673269279                 25.2674696378
           2        4               -273.1705927641               -273.1705631568
           2        5                -10.7109323383                -10.7107120029
           2        6                 17.4381822266                 17.4352413244
           2        7                 -5.2255326521                 -5.2270484734
           2        8                  8.6835629259                  8.6603288385
           2        9                 27.4952418996                 27.4953360207
           3       10               -384.4424306495               -384.4423701208
           3       11                 12.5842251816                 12.5842222903
           3       12                -15.7264628251                -15.7264433455
           3       13                 -7.0696854293                 -7.0701769954
           3       14                  8.8090390882                  8.7901077751
           3       15                 35.9586762123                 35.9588528632
           4       16               -514.2458688638               -514.2457643834
           4       17                 15.1795651126                 15.1795290741
           4       18                -21.5359799773                -21.5360846186
           4       19                 -9.0283069236                 -9.0284644067
           4       20                  8.3027758564                  8.2834874195
           4       21                 45.8339351984                 45.8338762259

  Preparing densities etc. for the partition functions (integrals / Hartree potential).

  Preparations completed.
  max(cpu_time)          :      0.167 s.
  Wall clock time (cpu1) :      0.167 s.
------------------------------------------------------------

------------------------------------------------------------
          Begin self-consistency loop: Initialization.

          Date     :  20200616, Time     :  081753.032
------------------------------------------------------------

  Initializing index lists of integration centers etc. from given atomic structure:
  | Number of centers in hartree potential         :        13
  | Number of centers in hartree multipole         :        13
  | Number of centers in electron density summation:        13
  | Number of centers in basis integrals           :        13
  | Number of centers in integrals                 :        13
  | Number of centers in hamiltonian               :        13
  * Using 20 tasks for Scalapack Eigenvalue solver.
  Detailed listing of tasks and assigned k-points:
  (for non-periodic systems, the "k-point" denotes an internal label only)
   Task     0 k-point     1 on r05c49.bullx
   Task     1 k-point     1 on r05c49.bullx
   Task     2 k-point     1 on r05c49.bullx
   Task     3 k-point     1 on r05c49.bullx
   Task     4 k-point     1 on r05c49.bullx
   Task     5 k-point     1 on r05c49.bullx
   Task     6 k-point     1 on r05c49.bullx
   Task     7 k-point     1 on r05c49.bullx
   Task     8 k-point     1 on r05c49.bullx
   Task     9 k-point     1 on r05c49.bullx
   Task    10 k-point     1 on r05c49.bullx
   Task    11 k-point     1 on r05c49.bullx
   Task    12 k-point     1 on r05c49.bullx
   Task    13 k-point     1 on r05c49.bullx
   Task    14 k-point     1 on r05c49.bullx
   Task    15 k-point     1 on r05c49.bullx
   Task    16 k-point     1 on r05c49.bullx
   Task    17 k-point     1 on r05c49.bullx
   Task    18 k-point     1 on r05c49.bullx
   Task    19 k-point     1 on r05c49.bullx
  Tasks:    20 split into      5 X      4 BLACS grid
  Calculating block size based on n_basis =          119  max_nprow =            5  max_npcol =            4
  ScaLAPACK block size set to:           16
  Allocating        0.008 MB for ovlp
  Allocating        0.008 MB for ham
  Allocating        0.008 MB for eigenvec
  Required Scalapack workspace - INTEGER:            1  REAL:             1
  Partitioning the integration grid into batches with parallel hashing+maxmin method.
  | Number of batches:      851
  | Maximal batch size:     172
  | Minimal batch size:      49
  | Average batch size:      81.840
  | Standard deviation of batch sizes:      22.364

  Integration load balanced across    20 MPI tasks.
  Work distribution over tasks is as follows:
  Task     0 has       3416 integration points.
  Task     1 has       3465 integration points.
  Task     2 has       3423 integration points.
  Task     3 has       3477 integration points.
  Task     4 has       3506 integration points.
  Task     5 has       3510 integration points.
  Task     6 has       3515 integration points.
  Task     7 has       3451 integration points.
  Task     8 has       3449 integration points.
  Task     9 has       3471 integration points.
  Task    10 has       3416 integration points.
  Task    11 has       3522 integration points.
  Task    12 has       3527 integration points.
  Task    13 has       3577 integration points.
  Task    14 has       3482 integration points.
  Task    15 has       3498 integration points.
  Task    16 has       3444 integration points.
  Task    17 has       3516 integration points.
  Task    18 has       3478 integration points.
  Task    19 has       3503 integration points.
  Initializing partition tables, free-atom densities, potentials, etc. across the integration grid (initialize_grid_storage).
  | initialize_grid_storage: Actual outermost partition radius vs. multipole_radius_free
  | (-- VB: in principle, multipole_radius_free should be larger, hence this output)
  | Species        1: Confinement radius =              4.999999999999999 AA, multipole_radius_free =              5.054417573612229 AA.
  | Species        1: outer_partition_radius set to              5.054417573612229 AA .
  | Species        2: Confinement radius =              4.999999999999999 AA, multipole_radius_free =              5.019602836301480 AA.
  | Species        2: outer_partition_radius set to              5.019602836301480 AA .
  | Species        3: Confinement radius =              4.999999999999999 AA, multipole_radius_free =              5.043624274424571 AA.
  | Species        3: outer_partition_radius set to              5.043624274424571 AA .
  | Species        4: Confinement radius =              4.999999999999999 AA, multipole_radius_free =              5.048384829883283 AA.
  | Species        4: outer_partition_radius set to              5.048384829883283 AA .
  | Original list of interatomic distances with          13 x         13 entries is created.
  | Net number of integration points:    69646
  | of which are non-zero points    :    59492
  Renormalizing the initial density to the exact electron count on the 3D integration grid.
  | Initial density: Formal number of electrons (from input files) :      48.0000000000
  | Integrated number of electrons on 3D grid     :      47.9998095152
  | Charge integration error                      :      -0.0001904848
  | Normalization factor for density and gradient :       1.0000039684
  Obtaining max. number of non-zero basis functions in each batch (get_n_compute_maxes).
  | Maximal number of non-zero basis functions:      117 in task     0
  | Maximal number of non-zero basis functions:      119 in task     1
  | Maximal number of non-zero basis functions:      118 in task     2
  | Maximal number of non-zero basis functions:      118 in task     3
  | Maximal number of non-zero basis functions:      118 in task     4
  | Maximal number of non-zero basis functions:      118 in task     5
  | Maximal number of non-zero basis functions:      118 in task     6
  | Maximal number of non-zero basis functions:      118 in task     7
  | Maximal number of non-zero basis functions:      117 in task     8
  | Maximal number of non-zero basis functions:      118 in task     9
  | Maximal number of non-zero basis functions:      118 in task    10
  | Maximal number of non-zero basis functions:      118 in task    11
  | Maximal number of non-zero basis functions:      118 in task    12
  | Maximal number of non-zero basis functions:      118 in task    13
  | Maximal number of non-zero basis functions:      118 in task    14
  | Maximal number of non-zero basis functions:      118 in task    15
  | Maximal number of non-zero basis functions:      118 in task    16
  | Maximal number of non-zero basis functions:      118 in task    17
  | Maximal number of non-zero basis functions:      118 in task    18
  | Maximal number of non-zero basis functions:      118 in task    19
  Selecting the method for density update.
  Loop over occupied states selected for charge density update.
  Allocating        0.050 MB for KS_eigenvector
  Integrating Hamiltonian matrix: batch-based integration.
  Time summed over all CPUs for integration: real work        0.528 s, elapsed        0.559 s
  Integrating overlap matrix.
  Time summed over all CPUs for integration: real work        0.219 s, elapsed        0.230 s
  Deallocating overlap matrix.

  Updating Kohn-Sham eigenvalues and eigenvectors using ELSI and the ELPA eigensolver.
  ELPA settings:
  | ELPA solver          1
  | Time full => band           :     0.001 s
  | Time band => tridiagonal    :     0.001 s
  | Time solve tridiagonal      :     0.001 s
  Overlap matrix is nonsingular
  | Lowest eigenvalue of overlap  :  0.41E-02
  | Highest eigenvalue of overlap :  0.63E+01
  Finished singularity check of overlap matrix
  | Time :     0.003 s
  Finished Cholesky decomposition
  | Time :     0.002 s
  Finished transformation to standard eigenproblem
  | Time :     0.001 s
  Starting ELPA eigensolver
  | Time full => tridiagonal    :     0.002 s
  | Time solve tridiagonal      :     0.000 s
  | Time ev tridiagonal => full :     0.000 s
  Finished solving standard eigenproblem
  | Time :     0.003 s
  Finished back-transformation of eigenvectors
  | Time :     0.000 s

  Obtaining occupation numbers and chemical potential using ELSI.
  | Chemical potential (Fermi level):   -10.19389384eV
  Writing Kohn-Sham eigenvalues.

  State    Occupation    Eigenvalue [Ha]    Eigenvalue [eV]
      1       2.00000         -19.007642         -517.22425
      2       2.00000         -18.977099         -516.39314
      3       2.00000         -14.245739         -387.64628
      4       2.00000         -10.166645         -276.64850
      5       2.00000         -10.142043         -275.97904
      6       2.00000         -10.132068         -275.70760
      7       2.00000          -1.181410          -32.14780
      8       2.00000          -1.101337          -29.96890
      9       2.00000          -0.990699          -26.95830
     10       2.00000          -0.861736          -23.44904
     11       2.00000          -0.752485          -20.47617
     12       2.00000          -0.681226          -18.53709
     13       2.00000          -0.632900          -17.22208
     14       2.00000          -0.620321          -16.87979
     15       2.00000          -0.577469          -15.71373
     16       2.00000          -0.562041          -15.29392
     17       2.00000          -0.548535          -14.92639
     18       2.00000          -0.526288          -14.32103
     19       2.00000          -0.509616          -13.86735
     20       2.00000          -0.496055          -13.49833
     21       2.00000          -0.486431          -13.23646
     22       2.00000          -0.428965          -11.67272
     23       2.00000          -0.415593          -11.30886
     24       2.00000          -0.381619          -10.38439
     25       0.00000          -0.155315           -4.22633
     26       0.00000          -0.064892           -1.76580
     27       0.00000          -0.038411           -1.04522
     28       0.00000          -0.016111           -0.43839
     29       0.00000           0.003438            0.09355
     30       0.00000           0.010180            0.27702
     31       0.00000           0.020452            0.55653
     32       0.00000           0.031283            0.85126
     33       0.00000           0.060701            1.65177
     34       0.00000           0.067521            1.83733
     35       0.00000           0.081658            2.22202
     36       0.00000           0.130750            3.55790
     37       0.00000           0.198581            5.40368
     38       0.00000           0.204490            5.56444
     39       0.00000           0.214024            5.82388
     40       0.00000           0.217904            5.92948
     41       0.00000           0.237981            6.47579
     42       0.00000           0.252097            6.85991
     43       0.00000           0.281882            7.67041
     44       0.00000           0.303439            8.25699
     45       0.00000           0.327036            8.89911
     46       0.00000           0.335260            9.12288
     47       0.00000           0.372427           10.13426
     48       0.00000           0.408455           11.11463
     49       0.00000           0.433674           11.80086
     50       0.00000           0.464221           12.63211
     51       0.00000           0.501569           13.64839
     52       0.00000           0.505126           13.74519
     53       0.00000           0.541759           14.74203

  Highest occupied state (VBM) at    -10.38439026 eV
  | Occupation number:      2.00000000

  Lowest unoccupied state (CBM) at    -4.22632901 eV
  | Occupation number:      0.00000000

  Overall HOMO-LUMO gap:      6.15806125 eV.
  Calculating total energy contributions from superposition of free atom densities.

  Total energy components:
  | Sum of eigenvalues            :        -188.85192498 Ha       -5138.92234408 eV
  | XC energy correction          :         -41.79259828 Ha       -1137.23446104 eV
  | XC potential correction       :          53.72510462 Ha        1461.93447909 eV
  | Free-atom electrostatic energy:        -146.84718610 Ha       -3995.91524374 eV
  | Hartree energy correction     :           0.00000000 Ha           0.00000000 eV
  | vdW energy correction         :           0.00000000 Ha           0.00000000 eV
  | Entropy correction            :          -0.00000000 Ha          -0.00000000 eV
  | ---------------------------
  | Total energy                  :        -323.76660474 Ha       -8810.13756976 eV
  | Total energy, T -> 0          :        -323.76660474 Ha       -8810.13756976 eV  <-- do not rely on this value for anything but (periodic) metals
  | Electronic free energy        :        -323.76660474 Ha       -8810.13756976 eV

  Derived energy quantities:
  | Kinetic energy                :         320.49694452 Ha        8721.16558852 eV
  | Electrostatic energy          :        -602.47095098 Ha      -16394.06869725 eV
  | Energy correction for multipole
  | error in Hartree potential    :           0.00000000 Ha           0.00000000 eV
  | Sum of eigenvalues per atom                           :        -395.30171878 eV
  | Total energy (T->0) per atom                          :        -677.70288998 eV  <-- do not rely on this value for anything but (periodic) metals
  | Electronic free energy per atom                       :        -677.70288998 eV
  Initialize hartree_potential_storage
  Max. number of atoms included in rho_multipole:           13

  End scf initialization - timings             :  max(cpu_time)    wall_clock(cpu1)
  | Time for scf. initialization               :        0.096 s           0.096 s
  | Boundary condition initialization          :        0.000 s           0.000 s
  | Integration                                :        0.041 s           0.040 s
  | Solution of K.-S. eqns.                    :        0.010 s           0.010 s
  | Grid partitioning                          :        0.022 s           0.023 s
  | Preloading free-atom quantities on grid    :        0.003 s           0.002 s
  | Free-atom superposition energy             :        0.005 s           0.005 s
  | Total energy evaluation                    :        0.000 s           0.000 s

  Partial memory accounting:
  | Current value for overall tracked memory usage on task 0  :           0.133 MB
  | Peak value for overall tracked memory usage on task 0     :           0.785 MB after allocating wave
  | Largest tracked array allocation on task 0 so far         :           0.161 MB  when allocating H_times_psi
  Note:  These values currently only include a subset of arrays which are explicitly tracked.
  The "true" memory usage will be greater.
------------------------------------------------------------

------------------------------------------------------------
          Begin self-consistency iteration #    1

  Date     :  20200616, Time     :  081753.129
------------------------------------------------------------
  Evaluating new KS density.
  Integration grid: deviation in total charge (<rho> - N_e) =  -1.421085E-14
  Pulay mixing of updated and previous charge densities.

  Evaluating partitioned Hartree potential by multipole expansion.
  | Analytical far-field extrapolation by fixed multipoles:
  | Hartree multipole sum: apparent total charge =  -0.294681E-03
  Summing up the Hartree potential.
  Time summed over all CPUs for potential: real work        0.422 s, elapsed        0.435 s
  | RMS charge density error from multipole expansion :   0.595710E-02

  Integrating Hamiltonian matrix: batch-based integration.
  Time summed over all CPUs for integration: real work        0.517 s, elapsed        0.554 s

  Updating Kohn-Sham eigenvalues and eigenvectors using ELSI and the ELPA eigensolver.
  ELPA settings:
  | ELPA solver          1
  Finished transformation to standard eigenproblem
  | Time :     0.000 s
  Starting ELPA eigensolver
  | Time full => tridiagonal    :     0.002 s
  | Time solve tridiagonal      :     0.000 s
  | Time ev tridiagonal => full :     0.000 s
  Finished solving standard eigenproblem
  | Time :     0.003 s
  Finished back-transformation of eigenvectors
  | Time :     0.000 s

  Obtaining occupation numbers and chemical potential using ELSI.
  | Chemical potential (Fermi level):    -5.18784836eV
  Writing Kohn-Sham eigenvalues.

  State    Occupation    Eigenvalue [Ha]    Eigenvalue [eV]
      1       2.00000         -18.912958         -514.64777
      2       2.00000         -18.829459         -512.37564
      3       2.00000         -14.099050         -383.65466
      4       2.00000         -10.113977         -275.21533
      5       2.00000         -10.069158         -273.99573
      6       2.00000         -10.032894         -273.00893
      7       2.00000          -1.135776          -30.90605
      8       2.00000          -1.036554          -28.20608
      9       2.00000          -0.922878          -25.11280
     10       2.00000          -0.798603          -21.73111
     11       2.00000          -0.702297          -19.11048
     12       2.00000          -0.640775          -17.43638
     13       2.00000          -0.581769          -15.83075
     14       2.00000          -0.560973          -15.26486
     15       2.00000          -0.517210          -14.07401
     16       2.00000          -0.506279          -13.77655
     17       2.00000          -0.486162          -13.22914
     18       2.00000          -0.473050          -12.87235
     19       2.00000          -0.448204          -12.19625
     20       2.00000          -0.439976          -11.97235
     21       2.00000          -0.434320          -11.81845
     22       2.00000          -0.366911           -9.98415
     23       2.00000          -0.338769           -9.21838
     24       2.00000          -0.311563           -8.47806
     25       0.00000          -0.114902           -3.12665
     26       0.00000          -0.049332           -1.34239
     27       0.00000          -0.012408           -0.33764
     28       0.00000           0.019937            0.54253
     29       0.00000           0.036115            0.98273
     30       0.00000           0.045325            1.23335
     31       0.00000           0.062059            1.68871
     32       0.00000           0.069171            1.88223
     33       0.00000           0.089061            2.42346
     34       0.00000           0.105579            2.87296
     35       0.00000           0.122069            3.32166
     36       0.00000           0.159081            4.32881
     37       0.00000           0.222839            6.06377
     38       0.00000           0.235277            6.40222
     39       0.00000           0.241555            6.57306
     40       0.00000           0.250766            6.82369
     41       0.00000           0.267527            7.27978
     42       0.00000           0.289532            7.87858
     43       0.00000           0.313329            8.52610
     44       0.00000           0.340407            9.26293
     45       0.00000           0.362134            9.85417
     46       0.00000           0.378495           10.29938
     47       0.00000           0.409250           11.13627
     48       0.00000           0.445340           12.11832
     49       0.00000           0.467906           12.73237
     50       0.00000           0.502368           13.67012
     51       0.00000           0.536482           14.59843
     52       0.00000           0.540500           14.70774
     53       0.00000           0.570420           15.52190

  Highest occupied state (VBM) at     -8.47806061 eV
  | Occupation number:      2.00000000

  Lowest unoccupied state (CBM) at    -3.12665071 eV
  | Occupation number:      0.00000000

  Overall HOMO-LUMO gap:      5.35140990 eV.

  Total energy components:
  | Sum of eigenvalues            :        -185.51913341 Ha       -5048.23247137 eV
  | XC energy correction          :         -42.11790893 Ha       -1146.08661417 eV
  | XC potential correction       :          54.14817092 Ha        1473.44669895 eV
  | Free-atom electrostatic energy:        -146.84718610 Ha       -3995.91524374 eV
  | Hartree energy correction     :          -3.25055472 Ha         -88.45209433 eV
  | vdW energy correction         :           0.00000000 Ha           0.00000000 eV
  | Entropy correction            :           0.00000000 Ha           0.00000000 eV
  | ---------------------------
  | Total energy                  :        -323.58661224 Ha       -8805.23972466 eV
  | Total energy, T -> 0          :        -323.58661224 Ha       -8805.23972466 eV  <-- do not rely on this value for anything but (periodic) metals
  | Electronic free energy        :        -323.58661224 Ha       -8805.23972466 eV

  Derived energy quantities:
  | Kinetic energy                :         322.27115573 Ha        8769.44433172 eV
  | Electrostatic energy          :        -603.73985904 Ha      -16428.59744221 eV
  | Energy correction for multipole
  | error in Hartree potential    :           0.01222466 Ha           0.33264993 eV
  | Sum of eigenvalues per atom                           :        -388.32557472 eV
  | Total energy (T->0) per atom                          :        -677.32613267 eV  <-- do not rely on this value for anything but (periodic) metals
  | Electronic free energy per atom                       :        -677.32613267 eV

  Self-consistency convergence accuracy:
  | Change of charge density      :  0.5770E+00
  | Change of sum of eigenvalues  :  0.9069E+02 eV
  | Change of total energy        :  0.4898E+01 eV

  End self-consistency iteration #     1       :  max(cpu_time)    wall_clock(cpu1)
  | Time for this iteration                    :        0.080 s           0.080 s
  | Charge density update                      :        0.022 s           0.022 s
  | Density mixing                             :        0.000 s           0.001 s
  | Hartree multipole update                   :        0.001 s           0.001 s
  | Hartree multipole summation                :        0.022 s           0.022 s
  | Integration                                :        0.028 s           0.029 s
  | Solution of K.-S. eqns.                    :        0.004 s           0.004 s
  | Total energy evaluation                    :        0.000 s           0.001 s

  Partial memory accounting:
  | Current value for overall tracked memory usage on task 0  :           0.133 MB
  | Peak value for overall tracked memory usage on task 0     :           0.785 MB after allocating wave
  | Largest tracked array allocation on task 0 so far         :           0.483 MB  when allocating gradient_basis_wave
  Note:  These values currently only include a subset of arrays which are explicitly tracked.
  The "true" memory usage will be greater.
------------------------------------------------------------

------------------------------------------------------------
          Begin self-consistency iteration #    2

  Date     :  20200616, Time     :  081753.213
------------------------------------------------------------
  Evaluating new KS density.
  Integration grid: deviation in total charge (<rho> - N_e) =   0.000000E+00
  Pulay mixing of updated and previous charge densities.

  Evaluating partitioned Hartree potential by multipole expansion.
  | Analytical far-field extrapolation by fixed multipoles:
  | Hartree multipole sum: apparent total charge =  -0.424919E-03
  Summing up the Hartree potential.
  Time summed over all CPUs for potential: real work        0.420 s, elapsed        0.434 s
  | RMS charge density error from multipole expansion :   0.140244E-01

  Integrating Hamiltonian matrix: batch-based integration.
  Time summed over all CPUs for integration: real work        0.517 s, elapsed        0.553 s

  Updating Kohn-Sham eigenvalues and eigenvectors using ELSI and the ELPA eigensolver.
  ELPA settings:
  | ELPA solver          1
  Finished transformation to standard eigenproblem
  | Time :     0.000 s
  Starting ELPA eigensolver
  | Time full => tridiagonal    :     0.002 s
  | Time solve tridiagonal      :     0.000 s
  | Time ev tridiagonal => full :     0.000 s
  Finished solving standard eigenproblem
  | Time :     0.003 s
  Finished back-transformation of eigenvectors
  | Time :     0.000 s

  Obtaining occupation numbers and chemical potential using ELSI.
  | Chemical potential (Fermi level):    -4.15538938eV
  Highest occupied state (VBM) at     -6.61592102 eV
  | Occupation number:      2.00000000

  Lowest unoccupied state (CBM) at    -1.77524043 eV
  | Occupation number:      0.00000000

  Overall HOMO-LUMO gap:      4.84068059 eV.

  Checking to see if s.c.f. parameters should be adjusted.

  Total energy components:
  | Sum of eigenvalues            :        -182.07959669 Ha       -4954.63791507 eV
  | XC energy correction          :         -42.46663604 Ha       -1155.57596158 eV
  | XC potential correction       :          54.60010251 Ha        1485.74438314 eV
  | Free-atom electrostatic energy:        -146.84718610 Ha       -3995.91524374 eV
  | Hartree energy correction     :          -6.71774186 Ha        -182.79905672 eV
  | vdW energy correction         :           0.00000000 Ha           0.00000000 eV
  | Entropy correction            :           0.00000000 Ha           0.00000000 eV
  | ---------------------------
  | Total energy                  :        -323.51105817 Ha       -8803.18379397 eV
  | Total energy, T -> 0          :        -323.51105817 Ha       -8803.18379397 eV  <-- do not rely on this value for anything but (periodic) metals
  | Electronic free energy        :        -323.51105817 Ha       -8803.18379397 eV

  Derived energy quantities:
  | Kinetic energy                :         323.55119088 Ha        8804.27586042 eV
  | Electrostatic energy          :        -604.59561302 Ha      -16451.88369280 eV
  | Energy correction for multipole
  | error in Hartree potential    :           0.02673956 Ha           0.72762055 eV
  | Sum of eigenvalues per atom                           :        -381.12599347 eV
  | Total energy (T->0) per atom                          :        -677.16798415 eV  <-- do not rely on this value for anything but (periodic) metals
  | Electronic free energy per atom                       :        -677.16798415 eV

  Self-consistency convergence accuracy:
  | Change of charge density      :  0.3600E+00
  | Change of sum of eigenvalues  :  0.9359E+02 eV
  | Change of total energy        :  0.2056E+01 eV

  End self-consistency iteration #     2       :  max(cpu_time)    wall_clock(cpu1)
  | Time for this iteration                    :        0.079 s           0.078 s
  | Charge density update                      :        0.022 s           0.021 s
  | Density mixing                             :        0.001 s           0.001 s
  | Hartree multipole update                   :        0.001 s           0.002 s
  | Hartree multipole summation                :        0.022 s           0.022 s
  | Integration                                :        0.028 s           0.028 s
  | Solution of K.-S. eqns.                    :        0.004 s           0.004 s
  | Total energy evaluation                    :        0.000 s           0.000 s

  Partial memory accounting:
  | Current value for overall tracked memory usage on task 0  :           0.134 MB
  | Peak value for overall tracked memory usage on task 0     :           0.785 MB after allocating wave
  | Largest tracked array allocation on task 0 so far         :           0.483 MB  when allocating gradient_basis_wave
  Note:  These values currently only include a subset of arrays which are explicitly tracked.
  The "true" memory usage will be greater.
------------------------------------------------------------

------------------------------------------------------------
          Begin self-consistency iteration #    3

  Date     :  20200616, Time     :  081753.297
------------------------------------------------------------
  Evaluating new KS density.
  Integration grid: deviation in total charge (<rho> - N_e) =   2.842171E-14
  Pulay mixing of updated and previous charge densities.

  Evaluating partitioned Hartree potential by multipole expansion.
  | Analytical far-field extrapolation by fixed multipoles:
  | Hartree multipole sum: apparent total charge =  -0.519707E-03
  Summing up the Hartree potential.
  Time summed over all CPUs for potential: real work        0.422 s, elapsed        0.436 s
  | RMS charge density error from multipole expansion :   0.222763E-01

  Integrating Hamiltonian matrix: batch-based integration.
  Time summed over all CPUs for integration: real work        0.517 s, elapsed        0.552 s

  Updating Kohn-Sham eigenvalues and eigenvectors using ELSI and the ELPA eigensolver.
  ELPA settings:
  | ELPA solver          1
  Finished transformation to standard eigenproblem
  | Time :     0.000 s
  Starting ELPA eigensolver
  | Time full => tridiagonal    :     0.002 s
  | Time solve tridiagonal      :     0.000 s
  | Time ev tridiagonal => full :     0.000 s
  Finished solving standard eigenproblem
  | Time :     0.003 s
  Finished back-transformation of eigenvectors
  | Time :     0.000 s

  Obtaining occupation numbers and chemical potential using ELSI.
  | Chemical potential (Fermi level):    -3.53310634eV
  Highest occupied state (VBM) at     -5.94269046 eV
  | Occupation number:      2.00000000

  Lowest unoccupied state (CBM) at    -1.02225797 eV
  | Occupation number:      0.00000000

  Overall HOMO-LUMO gap:      4.92043250 eV.

  Total energy components:
  | Sum of eigenvalues            :        -180.71337574 Ha       -4917.46115147 eV
  | XC energy correction          :         -42.62457817 Ha       -1159.87378572 eV
  | XC potential correction       :          54.80156387 Ha        1491.22642576 eV
  | Free-atom electrostatic energy:        -146.84718610 Ha       -3995.91524374 eV
  | Hartree energy correction     :          -8.11474900 Ha        -220.81355516 eV
  | vdW energy correction         :           0.00000000 Ha           0.00000000 eV
  | Entropy correction            :           0.00000000 Ha           0.00000000 eV
  | ---------------------------
  | Total energy                  :        -323.49832513 Ha       -8802.83731033 eV
  | Total energy, T -> 0          :        -323.49832513 Ha       -8802.83731033 eV  <-- do not rely on this value for anything but (periodic) metals
  | Electronic free energy        :        -323.49832513 Ha       -8802.83731033 eV

  Derived energy quantities:
  | Kinetic energy                :         323.19470721 Ha        8794.57544629 eV
  | Electrostatic energy          :        -604.06845418 Ha      -16437.53897090 eV
  | Energy correction for multipole
  | error in Hartree potential    :           0.03829993 Ha           1.04219406 eV
  | Sum of eigenvalues per atom                           :        -378.26624242 eV
  | Total energy (T->0) per atom                          :        -677.14133156 eV  <-- do not rely on this value for anything but (periodic) metals
  | Electronic free energy per atom                       :        -677.14133156 eV

  Self-consistency convergence accuracy:
  | Change of charge density      :  0.2042E+00
  | Change of sum of eigenvalues  :  0.3718E+02 eV
  | Change of total energy        :  0.3465E+00 eV

  End self-consistency iteration #     3       :  max(cpu_time)    wall_clock(cpu1)
  | Time for this iteration                    :        0.078 s           0.077 s
  | Charge density update                      :        0.022 s           0.020 s
  | Density mixing                             :        0.001 s           0.001 s
  | Hartree multipole update                   :        0.001 s           0.001 s
  | Hartree multipole summation                :        0.022 s           0.022 s
  | Integration                                :        0.028 s           0.028 s
  | Solution of K.-S. eqns.                    :        0.004 s           0.004 s
  | Total energy evaluation                    :        0.000 s           0.001 s

  Partial memory accounting:
  | Current value for overall tracked memory usage on task 0  :           0.134 MB
  | Peak value for overall tracked memory usage on task 0     :           0.785 MB after allocating wave
  | Largest tracked array allocation on task 0 so far         :           0.483 MB  when allocating gradient_basis_wave
  Note:  These values currently only include a subset of arrays which are explicitly tracked.
  The "true" memory usage will be greater.
------------------------------------------------------------

------------------------------------------------------------
          Begin self-consistency iteration #    4

  Date     :  20200616, Time     :  081753.379
------------------------------------------------------------
  Evaluating new KS density.
  Integration grid: deviation in total charge (<rho> - N_e) =   7.105427E-15
  Pulay mixing of updated and previous charge densities.

  Evaluating partitioned Hartree potential by multipole expansion.
  | Analytical far-field extrapolation by fixed multipoles:
  | Hartree multipole sum: apparent total charge =  -0.550726E-03
  Summing up the Hartree potential.
  Time summed over all CPUs for potential: real work        0.412 s, elapsed        0.436 s
  | RMS charge density error from multipole expansion :   0.258653E-01

  Integrating Hamiltonian matrix: batch-based integration.
  Time summed over all CPUs for integration: real work        0.517 s, elapsed        0.550 s

  Updating Kohn-Sham eigenvalues and eigenvectors using ELSI and the ELPA eigensolver.
  ELPA settings:
  | ELPA solver          1
  Finished transformation to standard eigenproblem
  | Time :     0.000 s
  Starting ELPA eigensolver
  | Time full => tridiagonal    :     0.002 s
  | Time solve tridiagonal      :     0.000 s
  | Time ev tridiagonal => full :     0.000 s
  Finished solving standard eigenproblem
  | Time :     0.003 s
  Finished back-transformation of eigenvectors
  | Time :     0.000 s

  Obtaining occupation numbers and chemical potential using ELSI.
  | Chemical potential (Fermi level):    -3.41752103eV
  Highest occupied state (VBM) at     -5.75023188 eV
  | Occupation number:      2.00000000

  Lowest unoccupied state (CBM) at    -0.94302160 eV
  | Occupation number:      0.00000000

  Overall HOMO-LUMO gap:      4.80721028 eV.

  Total energy components:
  | Sum of eigenvalues            :        -180.60139416 Ha       -4914.41397778 eV
  | XC energy correction          :         -42.66159938 Ha       -1160.88118418 eV
  | XC potential correction       :          54.84796118 Ha        1492.48896061 eV
  | Free-atom electrostatic energy:        -146.84718610 Ha       -3995.91524374 eV
  | Hartree energy correction     :          -8.23508464 Ha        -224.08805447 eV
  | vdW energy correction         :           0.00000000 Ha           0.00000000 eV
  | Entropy correction            :           0.00000000 Ha           0.00000000 eV
  | ---------------------------
  | Total energy                  :        -323.49730311 Ha       -8802.80949956 eV
  | Total energy, T -> 0          :        -323.49730311 Ha       -8802.80949956 eV  <-- do not rely on this value for anything but (periodic) metals
  | Electronic free energy        :        -323.49730311 Ha       -8802.80949956 eV

  Derived energy quantities:
  | Kinetic energy                :         322.79383813 Ha        8783.66724362 eV
  | Electrostatic energy          :        -603.62954186 Ha      -16425.59555900 eV
  | Energy correction for multipole
  | error in Hartree potential    :           0.04280724 Ha           1.16484425 eV
  | Sum of eigenvalues per atom                           :        -378.03184444 eV
  | Total energy (T->0) per atom                          :        -677.13919227 eV  <-- do not rely on this value for anything but (periodic) metals
  | Electronic free energy per atom                       :        -677.13919227 eV

  Self-consistency convergence accuracy:
  | Change of charge density      :  0.6700E-01
  | Change of sum of eigenvalues  :  0.3047E+01 eV
  | Change of total energy        :  0.2781E-01 eV

  End self-consistency iteration #     4       :  max(cpu_time)    wall_clock(cpu1)
  | Time for this iteration                    :        0.079 s           0.078 s
  | Charge density update                      :        0.023 s           0.021 s
  | Density mixing                             :        0.001 s           0.001 s
  | Hartree multipole update                   :        0.001 s           0.001 s
  | Hartree multipole summation                :        0.022 s           0.022 s
  | Integration                                :        0.028 s           0.028 s
  | Solution of K.-S. eqns.                    :        0.004 s           0.004 s
  | Total energy evaluation                    :        0.000 s           0.001 s

  Partial memory accounting:
  | Current value for overall tracked memory usage on task 0  :           0.134 MB
  | Peak value for overall tracked memory usage on task 0     :           0.785 MB after allocating wave
  | Largest tracked array allocation on task 0 so far         :           0.483 MB  when allocating gradient_basis_wave
  Note:  These values currently only include a subset of arrays which are explicitly tracked.
  The "true" memory usage will be greater.
------------------------------------------------------------

------------------------------------------------------------
          Begin self-consistency iteration #    5

  Date     :  20200616, Time     :  081753.462
------------------------------------------------------------
  Evaluating new KS density.
  Integration grid: deviation in total charge (<rho> - N_e) =  -2.131628E-14
  Pulay mixing of updated and previous charge densities.

  Evaluating partitioned Hartree potential by multipole expansion.
  | Analytical far-field extrapolation by fixed multipoles:
  | Hartree multipole sum: apparent total charge =  -0.545103E-03
  Summing up the Hartree potential.
  Time summed over all CPUs for potential: real work        0.413 s, elapsed        0.431 s
  | RMS charge density error from multipole expansion :   0.255712E-01

  Integrating Hamiltonian matrix: batch-based integration.
  Time summed over all CPUs for integration: real work        0.518 s, elapsed        0.554 s

  Updating Kohn-Sham eigenvalues and eigenvectors using ELSI and the ELPA eigensolver.
  ELPA settings:
  | ELPA solver          1
  Finished transformation to standard eigenproblem
  | Time :     0.000 s
  Starting ELPA eigensolver
  | Time full => tridiagonal    :     0.002 s
  | Time solve tridiagonal      :     0.000 s
  | Time ev tridiagonal => full :     0.000 s
  Finished solving standard eigenproblem
  | Time :     0.003 s
  Finished back-transformation of eigenvectors
  | Time :     0.000 s

  Obtaining occupation numbers and chemical potential using ELSI.
  | Chemical potential (Fermi level):    -3.47582570eV
  Highest occupied state (VBM) at     -5.85101887 eV
  | Occupation number:      2.00000000

  Lowest unoccupied state (CBM) at    -1.02195717 eV
  | Occupation number:      0.00000000

  Overall HOMO-LUMO gap:      4.82906170 eV.

  Total energy components:
  | Sum of eigenvalues            :        -180.76869677 Ha       -4918.96651324 eV
  | XC energy correction          :         -42.64030627 Ha       -1160.30176905 eV
  | XC potential correction       :          54.82036033 Ha        1491.73790338 eV
  | Free-atom electrostatic energy:        -146.84718610 Ha       -3995.91524374 eV
  | Hartree energy correction     :          -8.06114823 Ha        -219.35500398 eV
  | vdW energy correction         :           0.00000000 Ha           0.00000000 eV
  | Entropy correction            :           0.00000000 Ha           0.00000000 eV
  | ---------------------------
  | Total energy                  :        -323.49697703 Ha       -8802.80062662 eV
  | Total energy, T -> 0          :        -323.49697703 Ha       -8802.80062662 eV  <-- do not rely on this value for anything but (periodic) metals
  | Electronic free energy        :        -323.49697703 Ha       -8802.80062662 eV

  Derived energy quantities:
  | Kinetic energy                :         322.70703352 Ha        8781.30516988 eV
  | Electrostatic energy          :        -603.56370428 Ha      -16423.80402745 eV
  | Energy correction for multipole
  | error in Hartree potential    :           0.04214914 Ha           1.14693657 eV
  | Sum of eigenvalues per atom                           :        -378.38203948 eV
  | Total energy (T->0) per atom                          :        -677.13850974 eV  <-- do not rely on this value for anything but (periodic) metals
  | Electronic free energy per atom                       :        -677.13850974 eV

  Self-consistency convergence accuracy:
  | Change of charge density      :  0.2309E-01
  | Change of sum of eigenvalues  : -0.4553E+01 eV
  | Change of total energy        :  0.8873E-02 eV

  End self-consistency iteration #     5       :  max(cpu_time)    wall_clock(cpu1)
  | Time for this iteration                    :        0.079 s           0.078 s
  | Charge density update                      :        0.023 s           0.021 s
  | Density mixing                             :        0.001 s           0.001 s
  | Hartree multipole update                   :        0.001 s           0.001 s
  | Hartree multipole summation                :        0.022 s           0.022 s
  | Integration                                :        0.028 s           0.028 s
  | Solution of K.-S. eqns.                    :        0.004 s           0.004 s
  | Total energy evaluation                    :        0.000 s           0.001 s

  Partial memory accounting:
  | Current value for overall tracked memory usage on task 0  :           0.134 MB
  | Peak value for overall tracked memory usage on task 0     :           0.785 MB after allocating wave
  | Largest tracked array allocation on task 0 so far         :           0.483 MB  when allocating gradient_basis_wave
  Note:  These values currently only include a subset of arrays which are explicitly tracked.
  The "true" memory usage will be greater.
------------------------------------------------------------

------------------------------------------------------------
          Begin self-consistency iteration #    6

  Date     :  20200616, Time     :  081753.544
------------------------------------------------------------
  Evaluating new KS density.
  Integration grid: deviation in total charge (<rho> - N_e) =   1.421085E-14
  Pulay mixing of updated and previous charge densities.

  Evaluating partitioned Hartree potential by multipole expansion.
  | Analytical far-field extrapolation by fixed multipoles:
[...]
  |   Hirshfeld dipole moment :      0.06264505
  |   Hirshfeld second moments:     -0.02876892      -0.00001505      -0.00494227
  |                                 -0.00001505      -0.02367176       0.02688773
  |                                 -0.00494227       0.02688773       0.00430001
  ----------------------------------------------------------------------
  | Atom    12: O
  |   Hirshfeld charge        :     -0.13771916
  |   Free atom volume        :     23.61338643
  |   Hirshfeld volume        :     20.97280068
  |   Hirshfeld dipole vector :     -0.00174314       0.03601897      -0.02257933
  |   Hirshfeld dipole moment :      0.04254681
  |   Hirshfeld second moments:      0.08821826       0.00751318      -0.00403714
  |                                  0.00751318       0.03557893       0.01429110
  |                                 -0.00403714       0.01429110       0.04775250
  ----------------------------------------------------------------------
  | Atom    13: H
  |   Hirshfeld charge        :      0.15761563
  |   Free atom volume        :      9.95071624
  |   Hirshfeld volume        :      6.27783798
  |   Hirshfeld dipole vector :      0.09769657       0.04042614      -0.02027328
  |   Hirshfeld dipole moment :      0.10765639
  |   Hirshfeld second moments:      0.12038315      -0.00221600       0.00137955
  |                                 -0.00221600       0.09333032       0.02007703
  |                                  0.00137955       0.02007703       0.11111670
  ----------------------------------------------------------------------


  Total energy components:
  | Sum of eigenvalues            :        -180.80126565 Ha       -4919.85275762 eV
  | XC energy correction          :         -42.63296322 Ha       -1160.10195452 eV
  | XC potential correction       :          54.81088075 Ha        1491.47995087 eV
  | Free-atom electrostatic energy:        -146.84718610 Ha       -3995.91524374 eV
  | Hartree energy correction     :          -8.02635218 Ha        -218.40815537 eV
  | vdW energy correction         :          -0.00349482 Ha          -0.09509902 eV
  | Entropy correction            :           0.00000000 Ha           0.00000000 eV
  | ---------------------------
  | Total energy                  :        -323.50038122 Ha       -8802.89325939 eV
  | Total energy, T -> 0          :        -323.50038122 Ha       -8802.89325939 eV  <-- do not rely on this value for anything but (periodic) metals
  | Electronic free energy        :        -323.50038122 Ha       -8802.89325939 eV

  Derived energy quantities:
  | Kinetic energy                :         322.57671584 Ha        8777.75904540 eV
  | Electrostatic energy          :        -603.44063902 Ha      -16420.45525126 eV
  | Energy correction for multipole
  | error in Hartree potential    :           0.04249723 Ha           1.15640847 eV
  | Sum of eigenvalues per atom                           :        -378.45021212 eV
  | Total energy (T->0) per atom                          :        -677.14563534 eV  <-- do not rely on this value for anything but (periodic) metals
  | Electronic free energy per atom                       :        -677.14563534 eV

  atomic forces [eV/Ang]:
  -----------------------
  atom #    1
   Hellmann-Feynman              :  0.414251E+00 -0.493307E+00  0.153036E+01
   Ionic forces                  :  0.000000E+00  0.000000E+00  0.000000E+00
   Multipole                     : -0.141725E+00  0.200030E+00 -0.222931E+00
   Pulay + GGA                   : -0.109036E+01  0.420617E+00 -0.188042E+01
   Van der Waals                 :  0.118341E-02  0.120277E-02 -0.187706E-02
   ----------------------------------------------------------------
   Total forces(   1)            : -0.816650E+00  0.128544E+00 -0.574868E+00
  atom #    2
   Hellmann-Feynman              :  0.421533E+00  0.132562E+00 -0.252877E+00
   Ionic forces                  :  0.000000E+00  0.000000E+00  0.000000E+00
   Multipole                     :  0.199176E+00  0.635111E-01 -0.306985E-01
   Pulay + GGA                   : -0.137726E+00  0.181493E+00 -0.958137E-01
   Van der Waals                 :  0.990861E-03 -0.401556E-02 -0.255602E-02
   ----------------------------------------------------------------
   Total forces(   2)            :  0.483973E+00  0.373550E+00 -0.381946E+00
  atom #    3
   Hellmann-Feynman              :  0.278240E+01  0.106711E+02 -0.393080E+01
   Ionic forces                  :  0.000000E+00  0.000000E+00  0.000000E+00
   Multipole                     : -0.142414E+00  0.166527E+00 -0.814717E+00
   Pulay + GGA                   : -0.175736E+01 -0.104341E+02  0.551683E+01
   Van der Waals                 :  0.832466E-02 -0.685238E-02 -0.961353E-02
   ----------------------------------------------------------------
   Total forces(   3)            :  0.890948E+00  0.396750E+00  0.761693E+00
  atom #    4
   Hellmann-Feynman              : -0.207636E+00 -0.259923E+00 -0.100390E+00
   Ionic forces                  :  0.000000E+00  0.000000E+00  0.000000E+00
   Multipole                     :  0.612116E-02 -0.797386E-01 -0.854854E-01
   Pulay + GGA                   : -0.789058E-01  0.208715E+00  0.580162E-01
   Van der Waals                 : -0.195577E-02  0.163279E-02  0.311563E-02
   ----------------------------------------------------------------
   Total forces(   4)            : -0.282377E+00 -0.129314E+00 -0.124744E+00
  atom #    5
   Hellmann-Feynman              : -0.319078E+00 -0.286422E+00  0.211248E-01
   Ionic forces                  :  0.000000E+00  0.000000E+00  0.000000E+00
   Multipole                     : -0.905576E-01 -0.481087E-01 -0.468995E-01
   Pulay + GGA                   :  0.232252E+00  0.789708E-01  0.139420E-02
   Van der Waals                 :  0.282160E-03  0.266588E-03 -0.141764E-01
   ----------------------------------------------------------------
   Total forces(   5)            : -0.177101E+00 -0.255294E+00 -0.385569E-01
  atom #    6
   Hellmann-Feynman              :  0.617958E-01 -0.339271E+00 -0.176241E-02
   Ionic forces                  :  0.000000E+00  0.000000E+00  0.000000E+00
   Multipole                     : -0.143016E+00  0.645458E+00  0.259901E+00
   Pulay + GGA                   :  0.262314E+00 -0.710459E+00 -0.333377E+00
   Van der Waals                 :  0.842556E-02  0.674446E-02  0.464691E-02
   ----------------------------------------------------------------
   Total forces(   6)            :  0.189519E+00 -0.397528E+00 -0.705916E-01
  atom #    7
   Hellmann-Feynman              :  0.960903E-01  0.255014E-01 -0.167706E+00
   Ionic forces                  :  0.000000E+00  0.000000E+00  0.000000E+00
   Multipole                     :  0.293968E-01  0.136105E+00 -0.465229E-03
   Pulay + GGA                   : -0.565413E-01 -0.990300E-01  0.956320E-02
   Van der Waals                 : -0.238209E-02  0.163542E-02  0.367920E-02
   ----------------------------------------------------------------
   Total forces(   7)            :  0.665637E-01  0.642117E-01 -0.154929E+00
  atom #    8
   Hellmann-Feynman              : -0.203320E+00 -0.108853E+00 -0.340077E-01
   Ionic forces                  :  0.000000E+00  0.000000E+00  0.000000E+00
   Multipole                     : -0.119655E+00  0.603966E-01  0.202019E-01
   Pulay + GGA                   :  0.123935E+00 -0.179082E-01  0.321526E-01
   Van der Waals                 : -0.284023E-02  0.885661E-02  0.796682E-02
   ----------------------------------------------------------------
   Total forces(   8)            : -0.201880E+00 -0.575077E-01  0.263136E-01
  atom #    9
   Hellmann-Feynman              :  0.455568E-01 -0.549080E-01  0.192921E+00
   Ionic forces                  :  0.000000E+00  0.000000E+00  0.000000E+00
   Multipole                     :  0.515258E-02  0.609953E-01  0.127848E+00
   Pulay + GGA                   : -0.521684E-01  0.247586E-01 -0.888311E-01
   Van der Waals                 : -0.196303E-02 -0.241582E-02  0.143223E-03
   ----------------------------------------------------------------
   Total forces(   9)            : -0.342203E-02  0.284301E-01  0.232081E+00
  atom #   10
   Hellmann-Feynman              : -0.370755E+01  0.394654E+01 -0.228583E+01
   Ionic forces                  :  0.000000E+00  0.000000E+00  0.000000E+00
   Multipole                     : -0.117935E+00 -0.795179E-01  0.226487E-01
   Pulay + GGA                   :  0.102585E+01 -0.293981E+01  0.163222E+01
   Van der Waals                 :  0.379468E-02 -0.151545E-01  0.975631E-02
   ----------------------------------------------------------------
   Total forces(  10)            : -0.279584E+01  0.912053E+00 -0.621212E+00
  atom #   11
   Hellmann-Feynman              : -0.141878E+02 -0.466128E+01  0.742051E+00
   Ionic forces                  :  0.000000E+00  0.000000E+00  0.000000E+00
   Multipole                     : -0.915692E+00 -0.690699E+00  0.192164E+00
   Pulay + GGA                   :  0.137933E+02  0.554562E+01 -0.127180E+01
   Van der Waals                 : -0.673834E-02 -0.104760E-01  0.952742E-02
   ----------------------------------------------------------------
   Total forces(  11)            : -0.131698E+01  0.183162E+00 -0.328058E+00
  atom #   12
   Hellmann-Feynman              :  0.229413E+01 -0.113722E+02  0.798706E+01
   Ionic forces                  :  0.000000E+00  0.000000E+00  0.000000E+00
   Multipole                     :  0.620803E+00 -0.147073E+01  0.993665E+00
   Pulay + GGA                   : -0.145440E+00  0.120577E+02 -0.822205E+01
   Van der Waals                 : -0.553710E-02  0.102380E-01 -0.614607E-02
   ----------------------------------------------------------------
   Total forces(  12)            :  0.276396E+01 -0.775023E+00  0.752527E+00
  atom #   13
   Hellmann-Feynman              :  0.147328E+01 -0.306293E+00  0.420432E+00
   Ionic forces                  :  0.000000E+00  0.000000E+00  0.000000E+00
   Multipole                     :  0.749558E-01  0.829661E-01 -0.415825E-01
   Pulay + GGA                   : -0.345999E+00 -0.257253E+00  0.142494E+00
   Van der Waals                 : -0.158477E-02  0.833768E-02 -0.446642E-02
   ----------------------------------------------------------------
   Total forces(  13)            :  0.120066E+01 -0.472242E+00  0.516877E+00

  Timings for VdW correction (Tkatchenko-Scheffler 2009 or later):
  | CPU time:        0.008 s, Wall clock time:        0.007 s.
  Removing unitary transformations (pure translations, rotations) from forces on atoms.
  Atomic forces before filtering:
  | Net force on center of mass :   0.136656E-02 -0.207272E-03 -0.541174E-02 eV/A
  | Net torque on center of mass:   0.287257E-02  0.750497E-02  0.737048E-02 eV
  Atomic forces after filtering:
  | Net force on center of mass :  -0.178406E-15 -0.178406E-15  0.000000E+00 eV/A
  | Net torque on center of mass:   0.103849E-14  0.179376E-14 -0.188817E-15 eV

  Energy and forces in a compact form:
  | Total energy uncorrected      :         -0.880289325939294E+04 eV
  | Total energy corrected        :         -0.880289325939294E+04 eV  <-- do not rely on this value for anything but (periodic) metals
  | Electronic free energy        :         -0.880289325939294E+04 eV
  Total atomic forces (unitary forces cleaned) [eV/Ang]:
  |   1         -0.816673809939181E+00          0.128484269804958E+00         -0.574386358385915E+00
  |   2          0.483949731413216E+00          0.373219426347030E+00         -0.381149091259746E+00
  |   3          0.891331989227190E+00          0.396710162385245E+00          0.762036205092270E+00
  |   4         -0.282029631512458E+00         -0.129508535080513E+00         -0.124209866282888E+00
  |   5         -0.176757802700007E+00         -0.255084058029627E+00         -0.384921065538739E-01
  |   6          0.189598168472481E+00         -0.397413519575378E+00         -0.703418238984672E-01
  |   7          0.669892928729943E-01          0.641825636557392E-01         -0.154609641304158E+00
  |   8         -0.201753677424158E+00         -0.571299825886731E-01          0.262440222150384E-01
  |   9         -0.365965568671357E-02          0.285541289012264E-01          0.232409184125478E+00
  |  10         -0.279639853933190E+01          0.912143638619206E+00         -0.620753895314726E+00
  |  11         -0.131768313766122E+01          0.183537823843271E+00         -0.327893519760627E+00
  |  12          0.276308235745714E+01         -0.775135551896631E+00          0.753311500001226E+00
  |  13          0.120000471481261E+01         -0.472560366385853E+00          0.517835391326389E+00

  ------------------------------------ 
  Start decomposition of the XC Energy 
  ------------------------------------ 
  X and C from original XC functional choice 
  Hartree-Fock Energy :          0.000000000 Ha              0.000000000 eV
  X Energy            :        -41.032891327 Ha          -1116.561783034 eV
  C Energy            :         -1.600071892 Ha            -43.540171486 eV
  Total XC Energy     :        -42.632963219 Ha          -1160.101954520 eV
  ------------------------------------ 
  LDA X and C from self-consistent density 
  X Energy LDA        :        -37.250602962 Ha          -1013.640480056 eV
  C Energy LDA        :         -3.138254354 Ha            -85.396245892 eV
  ------------------------------------ 
  End decomposition of the XC Energy 
  ------------------------------------ 

------------------------------------------------------------

------------------------------------------------------------------------------
  Final output of selected total energy values:

  The following output summarizes some interesting total energy values
  at the end of a run (AFTER all relaxation, molecular dynamics, etc.).

  | Total energy of the DFT / Hartree-Fock s.c.f. calculation      :          -8802.893259393 eV
  | Final zero-broadening corrected energy (caution - metals only) :          -8802.893259393 eV
  | For reference only, the value of 1 Hartree used in FHI-aims is :             27.211384500 eV

  Before relying on these values, please be sure to understand exactly which
  total energy value is referred to by a given number. Different objects may
  all carry the same name 'total energy'. Definitions:

  Total energy of the DFT / Hartree-Fock s.c.f. calculation:
  | Note that this energy does not include ANY quantities calculated after the
  | s.c.f. cycle, in particular not ANY RPA, MP2, etc. many-body perturbation terms.

  Final zero-broadening corrected energy:
  | For metallic systems only, a broadening of the occupation numbers at the Fermi
  | level can be extrapolated back to zero broadening by an electron-gas inspired
  | formula. For all systems that are not real metals, this value can be
  | meaningless and should be avoided.

------------------------------------------------------------------------------
  Methods described in the following list of references were used in this FHI-aims run.
  If you publish the results, please make sure to cite these reference if they apply.
  FHI-aims is an academic code, and for our developers (often, Ph.D. students
  and postdocs), scientific credit in the community is essential.
  Thank you for helping us!

  For any use of FHI-aims, please cite:

    Volker Blum, Ralf Gehrke, Felix Hanke, Paula Havu, Ville Havu,
    Xinguo Ren, Karsten Reuter, and Matthias Scheffler
    'Ab initio molecular simulations with numeric atom-centered orbitals'
    Computer Physics Communications 180, 2175-2196 (2009)
    http://dx.doi.org/10.1016/j.cpc.2009.06.022


  The scalable eigensolver library ELPA was used in your run.
  ELPA is essential especially for large systems on hundreds or thousands of CPUs.
  For ELPA, please cite:

    Andreas Marek, Volker Blum, Rainer Johanni, Ville Havu, Bruno Lang,
    Thomas Auckenthaler, Alexander Heinecke, Hans-Joachim Bungartz, and Hermann Lederer,
    'The ELPA Library - Scalable Parallel Eigenvalue Solutions
    for Electronic Structure Theory and Computational Science'
    The Journal of Physics: Condensed Matter 26, 213201 (2014).
    http://dx.doi.org/10.1088/0953-8984/26/21/213201


  The ELSI infrastructure was used in your run to solve the Kohn-Sham electronic structure.
  Please check out http://elsi-interchange.org to learn more.
  If scalability is important for your project, please acknowledge ELSI by citing:

    V. W-z. Yu, F. Corsetti, A. Garcia, W. P. Huhn, M. Jacquelin, W. Jia,
    B. Lange, L. Lin, J. Lu, W. Mi, A. Seifitokaldani, A. Vazquez-Mayagoitia,
    C. Yang, H. Yang, and V. Blum
    'ELSI: A unified software interface for Kohn-Sham electronic structure solvers'
    Computer Physics Communications 222, 267-285 (2018).
    http://dx.doi.org/10.1016/j.cpc.2017.09.007


  For the real-space grid partitioning and parallelization used in this calculation, please cite:

    Ville Havu, Volker Blum, Paula Havu, and Matthias Scheffler,
    'Efficient O(N) integration for all-electron electronic structure calculation'
    'using numerically tabulated basis functions'
    Journal of Computational Physics 228, 8367-8379 (2009).
    http://dx.doi.org/10.1016/j.jcp.2009.08.008

  Of course, there are many other important community references, e.g., those cited in the
  above references. Our list is limited to references that describe implementations in the
  FHI-aims code. The reason is purely practical (length of this list) - please credit others as well.

------------------------------------------------------------
          Leaving FHI-aims.
          Date     :  20200616, Time     :  081754.611

          Computational steps:
          | Number of self-consistency cycles          :           16
          | Number of SCF (re)initializations          :            1

          Detailed time accounting                     :  max(cpu_time)    wall_clock(cpu1)
          | Total time                                 :        1.720 s           1.781 s
          | Preparation time                           :        0.167 s           0.167 s
          | Boundary condition initalization           :        0.000 s           0.000 s
          | Grid partitioning                          :        0.022 s           0.023 s
          | Preloading free-atom quantities on grid    :        0.003 s           0.002 s
          | Free-atom superposition energy             :        0.005 s           0.005 s
          | Total time for integrations                :        0.490 s           0.490 s
          | Total time for solution of K.-S. equations :        0.073 s           0.074 s
          | Total time for density & force components  :        0.417 s           0.393 s
          | Total time for mixing                      :        0.017 s           0.021 s
          | Total time for Hartree multipole update    :        0.021 s           0.021 s
          | Total time for Hartree multipole sum       :        0.429 s           0.427 s
          | Total time for total energy evaluation     :        0.003 s           0.008 s
          | Total time for vdW correction              :        0.008 s           0.007 s

          Partial memory accounting:
          | Residual value for overall tracked memory usage across tasks :           0.000 MB (should be 0.000 MB)
          | Peak values for overall tracked memory usage (after allocating hessian_basis_wave):
          |   Minimum:        1.901 MB (on task  9)
          |   Maximum:        1.935 MB (on task  2)
          |   Average:        1.913 MB
          | Largest tracked array allocation (hessian_basis_wave):
          |   Minimum:        0.966 MB (on task  1)
          |   Maximum:        0.982 MB (on task  2)
          |   Average:        0.974 MB
          Note:  These values currently only include a subset of arrays which are explicitly tracked.
          The "true" memory usage will be greater.

          Have a nice day.
------------------------------------------------------------
