  MPI-parallelism will be employed.
------------------------------------------------------------
          Invoking FHI-aims ...
          Version 171221_1
          Compiled on 2019/09/09 at 14:39:39 on host puhti-login2.bullx.

          When using FHI-aims, please cite the following reference:

          Volker Blum, Ralf Gehrke, Felix Hanke, Paula Havu,
          Ville Havu, Xinguo Ren, Karsten Reuter, and Matthias Scheffler,
          'Ab Initio Molecular Simulations with Numeric Atom-Centered Orbitals',
          Computer Physics Communications 180, 2175-2196 (2009)

          For any questions about FHI-aims, please visit the aimsclub website
          with its forums and wiki. Contributions to both the forums and the
          wiki are warmly encouraged - they are for you, and everyone is welcome there.

------------------------------------------------------------



  Date     :  20200601, Time     :  010457.864
  Time zero on CPU 1             :   0.336890000000000E-01  s.
  Internal wall clock time zero  :           360205497.864  s.

  FHI-aims created a unique identifier for this run for later identification
  aims_uuid : 49F3EFFB-D18D-4426-AA86-532A24475CA1

  Using       20 parallel tasks.
  Task        0 on host r18c26.bullx reporting.
  Task        1 on host r18c26.bullx reporting.
  Task        2 on host r18c26.bullx reporting.
  Task        3 on host r18c26.bullx reporting.
  Task        4 on host r18c26.bullx reporting.
  Task        5 on host r18c26.bullx reporting.
  Task        6 on host r18c26.bullx reporting.
  Task        7 on host r18c26.bullx reporting.
  Task        8 on host r18c26.bullx reporting.
  Task        9 on host r18c26.bullx reporting.
  Task       10 on host r18c26.bullx reporting.
  Task       11 on host r18c26.bullx reporting.
  Task       12 on host r18c26.bullx reporting.
  Task       13 on host r18c26.bullx reporting.
  Task       14 on host r18c26.bullx reporting.
  Task       15 on host r18c26.bullx reporting.
  Task       16 on host r18c26.bullx reporting.
  Task       17 on host r18c26.bullx reporting.
  Task       18 on host r18c26.bullx reporting.
  Task       19 on host r18c26.bullx reporting.

  Performing system and environment tests:
  | Environment variable OMP_NUM_THREADS correctly set to 1.
  | Stacksize not measured: no C compiler
  | Checking for scalapack...
  | Testing pdtran()...
  | All pdtran() tests passed.

  Obtaining array dimensions for all initial allocations:
  
  -----------------------------------------------------------------------
  Parsing control.in (first pass over file, find array dimensions only).
  The contents of control.in will be repeated verbatim below
  unless switched off by setting 'verbatim_writeout .false.' .
  in the first line of control.in .
  -----------------------------------------------------------------------
  
  #########################################################################################
  #
  #  Volker Blum, FHI 2009 : Test run input file control.in for simple H2O
  #
  #########################################################################################
  #
  #  Physical model
  #
    xc                 pbe
    vdw_correction_hirshfeld
    spin               none
    relativistic       none
    charge             0.
  #
  #  SCF convergence
  #
    occupation_type    gaussian 0.01
    mixer              pulay
      n_max_pulay        10
      charge_mix_param   0.2
    sc_accuracy_rho    1E-5
    sc_accuracy_eev    1E-3
    sc_accuracy_etot   1E-6
    sc_accuracy_forces 1E-4
    sc_iter_limit      100
  #
  #  Relaxation
  #
  #  relax_geometry   bfgs 1.e-3
  #
  ################################################################################
  #
  #  FHI-aims code project
  #  VB, Fritz-Haber Institut, 2009
  #
  #  Suggested "light" defaults for H atom (to be pasted into control.in file)
  #  Be sure to double-check any results obtained with these settings for post-processing,
  #  e.g., with the "tight" defaults and larger basis sets.
  #
  ################################################################################
    species        H
  #     global species definitions
      nucleus             1
      mass                1.00794
  #
      l_hartree           4
  #
      cut_pot             3.5  1.5  1.0
      basis_dep_cutoff    1e-4
  #
      radial_base         24 5.0
      radial_multiplier   1
      angular_grids       specified
        division   0.2421   50
        division   0.3822  110
        division   0.4799  194
        division   0.5341  302
  #      division   0.5626  434
  #      division   0.5922  590
  #      division   0.6542  770
  #      division   0.6868 1202
  #      outer_grid  770
        outer_grid  302
  ################################################################################
  #
  #  Definition of "minimal" basis
  #
  ################################################################################
  #     valence basis states
      valence      1  s   1.
  #     ion occupancy
      ion_occ      1  s   0.5
  ################################################################################
  #
  #  Suggested additional basis functions. For production calculations,
  #  uncomment them one after another (the most important basis functions are
  #  listed first).
  #
  #  Basis constructed for dimers: 0.5 A, 0.7 A, 1.0 A, 1.5 A, 2.5 A
  #
  ################################################################################
  #  "First tier" - improvements: -1014.90 meV to -62.69 meV
       hydro 2 s 2.1
       hydro 2 p 3.5
  #  "Second tier" - improvements: -12.89 meV to -1.83 meV
  #     hydro 1 s 0.85
  #     hydro 2 p 3.7
  #     hydro 2 s 1.2
  #     hydro 3 d 7
  #  "Third tier" - improvements: -0.25 meV to -0.12 meV
  #     hydro 4 f 11.2
  #     hydro 3 p 4.8
  #     hydro 4 d 9
  #     hydro 3 s 3.2
  ################################################################################
  #
  #  FHI-aims code project
  #  VB, Fritz-Haber Institut, 2009
  #
  #  Suggested "light" defaults for C atom (to be pasted into control.in file)
  #  Be sure to double-check any results obtained with these settings for post-processing,
  #  e.g., with the "tight" defaults and larger basis sets.
  #
  ################################################################################
    species        C
  #     global species definitions
      nucleus             6
      mass                12.0107
  #
      l_hartree           4
  #
      cut_pot             3.5  1.5  1.0
      basis_dep_cutoff    1e-4
  #
      radial_base         34 5.0
      radial_multiplier   1
      angular_grids specified
        division   0.3326   50
        division   0.5710  110
        division   0.7727  194
        division   0.8772  302
  #      division   0.9334  434
  #      division   0.9625  590
  #      division   0.9924  770
  #      division   1.0230  974
  #      division   1.4589 1202
  #     outer_grid  974
       outer_grid 302
  ################################################################################
  #
  #  Definition of "minimal" basis
  #
  ################################################################################
  #     valence basis states
      valence      2  s   2.
      valence      2  p   2.
  #     ion occupancy
      ion_occ      2  s   1.
      ion_occ      2  p   1.
  ################################################################################
  #
  #  Suggested additional basis functions. For production calculations,
  #  uncomment them one after another (the most important basis functions are
  #  listed first).
  #
  #  Constructed for dimers: 1.0 A, 1.25 A, 1.5 A, 2.0 A, 3.0 A
  #
  ################################################################################
  #  "First tier" - improvements: -1214.57 meV to -155.61 meV
       hydro 2 p 1.7
       hydro 3 d 6
       hydro 2 s 4.9
  #  "Second tier" - improvements: -67.75 meV to -5.23 meV
  #     hydro 4 f 9.8
  #     hydro 3 p 5.2
  #     hydro 3 s 4.3
  #     hydro 5 g 14.4
  #     hydro 3 d 6.2
  #  "Third tier" - improvements: -2.43 meV to -0.60 meV
  #     hydro 2 p 5.6
  #     hydro 2 s 1.4
  #     hydro 3 d 4.9
  #     hydro 4 f 11.2
  #  "Fourth tier" - improvements: -0.39 meV to -0.18 meV
  #     hydro 2 p 2.1
  #     hydro 5 g 16.4
  #     hydro 4 d 13.2
  #     hydro 3 s 13.6
  #     hydro 4 f 17.6
  #  Further basis functions - improvements: -0.08 meV and below
  #     hydro 3 s 2
  #     hydro 3 p 6
  #     hydro 4 d 20
  ################################################################################
  #
  #  FHI-aims code project
  #  VB, Fritz-Haber Institut, 2009
  #
  #  Suggested "light" defaults for N atom (to be pasted into control.in file)
  #  Be sure to double-check any results obtained with these settings for post-processing,
  #  e.g., with the "tight" defaults and larger basis sets.
  #
  ################################################################################
    species        N
  #     global species definitions
      nucleus             7
      mass                14.0067
  #
      l_hartree           4
  #
      cut_pot             3.5  1.5  1.0
      basis_dep_cutoff    1e-4
  #
      radial_base         35 5.0
      radial_multiplier   1
      angular_grids       specified
        division   0.2599   50
        division   0.4601  110
        division   0.5885  194
        division   0.6503  302
  #      division   0.6939  434
  #      division   0.7396  590
  #      division   0.7632  770
  #      division   0.8122  974
  #      division   1.1604 1202
  #      outer_grid  974
        outer_grid  302
  ################################################################################
  #
  #  Definition of "minimal" basis
  #
  ################################################################################
  #     valence basis states
      valence      2  s   2.
      valence      2  p   3.
  #     ion occupancy
      ion_occ      2  s   1.
      ion_occ      2  p   2.
  ################################################################################
  #
  #  Suggested additional basis functions. For production calculations,
  #  uncomment them one after another (the most important basis functions are
  #  listed first).
  #
  #  Constructed for dimers: 1.0 A, 1.1 A, 1.5 A, 2.0 A, 3.0 A
  #
  ################################################################################
  #  "First tier" - improvements: -1193.42 meV to -220.60 meV
       hydro 2 p 1.8
       hydro 3 d 6.8
       hydro 3 s 5.8
  #  "Second tier" - improvements: -80.21 meV to -6.86 meV
  #     hydro 4 f 10.8
  #     hydro 3 p 5.8
  #     hydro 1 s 0.8
  #     hydro 5 g 16
  #     hydro 3 d 4.9
  #  "Third tier" - improvements: -4.29 meV to -0.53 meV
  #     hydro 3 s 16
  #     ionic 2 p auto
  #     hydro 3 d 6.6
  #     hydro 4 f 11.6
  #  "Fourth tier" - improvements: -0.75 meV to -0.25 meV
  #     hydro 2 p 4.5
  #     hydro 2 s 2.4
  #     hydro 5 g 14.4
  #     hydro 4 d 14.4
  #     hydro 4 f 16.8
  # Further basis functions - -0.21 meV and below
  #     hydro 3 p 14.8
  #     hydro 3 s 4.4
  #     hydro 3 d 19.6
  #     hydro 5 g 12.8
  ################################################################################
  #
  #  FHI-aims code project
  #  VB, Fritz-Haber Institut, 2009
  #
  #  Suggested "light" defaults for O atom (to be pasted into control.in file)
  #  Be sure to double-check any results obtained with these settings for post-processing,
  #  e.g., with the "tight" defaults and larger basis sets.
  #
  ################################################################################
    species        O
  #     global species definitions
      nucleus             8
      mass                15.9994
  #
      l_hartree           4
  #
      cut_pot             3.5  1.5  1.0
      basis_dep_cutoff    1e-4
  #
      radial_base         36 5.0
      radial_multiplier   1
       angular_grids specified
        division   0.2659   50
        division   0.4451  110
        division   0.6052  194
        division   0.7543  302
  #      division   0.8014  434
  #      division   0.8507  590
  #      division   0.8762  770
  #      division   0.9023  974
  #      division   1.2339 1202
  #      outer_grid 974
        outer_grid 302
  ################################################################################
  #
  #  Definition of "minimal" basis
  #
  ################################################################################
  #     valence basis states
      valence      2  s   2.
      valence      2  p   4.
  #     ion occupancy
      ion_occ      2  s   1.
      ion_occ      2  p   3.
  ################################################################################
  #
  #  Suggested additional basis functions. For production calculations,
  #  uncomment them one after another (the most important basis functions are
  #  listed first).
  #
  #  Constructed for dimers: 1.0 A, 1.208 A, 1.5 A, 2.0 A, 3.0 A
  #
  ################################################################################
  #  "First tier" - improvements: -699.05 meV to -159.38 meV
       hydro 2 p 1.8
       hydro 3 d 7.6
       hydro 3 s 6.4
  #  "Second tier" - improvements: -49.91 meV to -5.39 meV
  #     hydro 4 f 11.6
  #     hydro 3 p 6.2
  #     hydro 3 d 5.6
  #     hydro 5 g 17.6
  #     hydro 1 s 0.75
  #  "Third tier" - improvements: -2.83 meV to -0.50 meV
  #     ionic 2 p auto
  #     hydro 4 f 10.8
  #     hydro 4 d 4.7
  #     hydro 2 s 6.8
  #  "Fourth tier" - improvements: -0.40 meV to -0.12 meV
  #     hydro 3 p 5
  #     hydro 3 s 3.3
  #     hydro 5 g 15.6
  #     hydro 4 f 17.6
  #     hydro 4 d 14
  # Further basis functions - -0.08 meV and below
  #     hydro 3 s 2.1
  #     hydro 4 d 11.6
  #     hydro 3 p 16
  #     hydro 2 s 17.2
  
  -----------------------------------------------------------------------
  Completed first pass over input file control.in .
  -----------------------------------------------------------------------
  
  
  -----------------------------------------------------------------------
  Parsing geometry.in (first pass over file, find array dimensions only).
  The contents of geometry.in will be repeated verbatim below
  unless switched off by setting 'verbatim_writeout .false.' .
  in the first line of geometry.in .
  -----------------------------------------------------------------------
  
  atom  0.00000 0.00000 0.00000 C
  atom  1.09300 0.00000 0.00000 H
  atom  -0.47961 0.00000 -1.41207 N
  atom  -0.31877 0.92515 -1.81214 H
  atom  0.03903 -0.70379 -1.93343 H
  atom  -0.49584 1.26211 0.72868 C
  atom  -0.17667 2.16057 0.19533 H
  atom  -1.58668 1.26394 0.78888 H
  atom  -0.09268 1.29980 1.74337 H
  atom  -0.39425 -1.28861 0.74398 C
  atom  -1.51350 -1.59908 1.07585 O
  atom  0.57672 -2.09656 1.02894 O
  atom  0.06096 -2.78289 1.48493 H
  
  -----------------------------------------------------------------------
  Completed first pass over input file geometry.in .
  -----------------------------------------------------------------------
  

  Basic array size parameters:
  | Number of species                 :        4
  | Number of atoms                   :       13
  | Max. basis fn. angular momentum   :        2
  | Max. atomic/ionic basis occupied n:        2
  | Max. number of basis fn. types    :        2
  | Max. radial fns per species/type  :        3
  | Max. logarithmic grid size        :     1301
  | Max. radial integration grid size :       36
  | Max. angular integration grid size:      302
  | Max. angular grid division number :        8
  | Radial grid for Hartree potential :     1301
  | Number of spin channels           :        1

------------------------------------------------------------
          Reading file control.in.
------------------------------------------------------------
  XC: Using PBE gradient-corrected functionals.
  Spin treatment: No spin polarisation.
  Non-relativistic treatment of kinetic energy.
  Charge =   0.000000E+00: Neutral system requested explicitly.
  Occupation type: Gaussian broadening, width =   0.100000E-01 eV.
  Using pulay charge density mixing.
  Pulay mixing - number of memorized iterations:   10
  Charge density mixing - mixing parameter:     0.2000
  Convergence accuracy of self-consistent charge density:  0.1000E-04
  Convergence accuracy of sum of eigenvalues:  0.1000E-02
  Convergence accuracy of total energy:  0.1000E-05
  Convergence accuracy of forces:  0.1000E-03
  Maximum number of s.-c. iterations  :   100
 
  Reading configuration options for species H                   .
  | Found nuclear charge :   1.0000
  | Found atomic mass :    1.00794000000000      amu
  | Found l_max for Hartree potential  :   4
  | Found cutoff potl. onset [A], width [A], scale factor :    3.50000    1.50000    1.00000
  | Threshold for basis-dependent cutoff potential is   0.100000E-03
  | Found data for basic radial integration grid :    24 points, outermost radius =    5.000 A
  | Found multiplier for basic radial grid :   1
  | Found angular grid specification: user-specified.
  | Specified grid contains     5 separate shells.
  | Check grid settings after all constraints further below.
  | Found free-atom valence shell :  1 s   1.000
  | No ionic wave fns used. Skipping ion_occ.
  | Found hydrogenic basis function :  2 s   2.100
  | Found hydrogenic basis function :  2 p   3.500
  Species H                   : Missing cutoff potential type.
  Defaulting to exp(1/x)/(1-x)^2 type cutoff potential.
  Species H : No 'logarithmic' tag. Using default grid for free atom:
  | Default logarithmic grid data [bohr] : 0.1000E-03 0.1000E+03 0.1012E+01
  Species H : On-site basis accuracy parameter (for Gram-Schmidt orthonormalisation) not specified.
  Using default value basis_acc =  0.1000000E-03.
  Species H                   : Using default innermost maximum threshold i_radial=  2 for radial functions.
  Species H                   : Default cutoff onset for free atom density etc. : 0.35000000E+01 AA.
  Species H                   : Basic radial grid will be enhanced according to radial_multiplier =   1, to contain    24 grid points.
 
  Reading configuration options for species C                   .
  | Found nuclear charge :   6.0000
  | Found atomic mass :    12.0107000000000      amu
  | Found l_max for Hartree potential  :   4
  | Found cutoff potl. onset [A], width [A], scale factor :    3.50000    1.50000    1.00000
  | Threshold for basis-dependent cutoff potential is   0.100000E-03
  | Found data for basic radial integration grid :    34 points, outermost radius =    5.000 A
  | Found multiplier for basic radial grid :   1
  | Found angular grid specification: user-specified.
  | Specified grid contains     5 separate shells.
  | Check grid settings after all constraints further below.
  | Found free-atom valence shell :  2 s   2.000
  | Found free-atom valence shell :  2 p   2.000
  | No ionic wave fns used. Skipping ion_occ.
  | No ionic wave fns used. Skipping ion_occ.
  | Found hydrogenic basis function :  2 p   1.700
  | Found hydrogenic basis function :  3 d   6.000
  | Found hydrogenic basis function :  2 s   4.900
  Species C                   : Missing cutoff potential type.
  Defaulting to exp(1/x)/(1-x)^2 type cutoff potential.
  Species C : No 'logarithmic' tag. Using default grid for free atom:
  | Default logarithmic grid data [bohr] : 0.1000E-03 0.1000E+03 0.1012E+01
  Species C : On-site basis accuracy parameter (for Gram-Schmidt orthonormalisation) not specified.
  Using default value basis_acc =  0.1000000E-03.
  Species C                   : Using default innermost maximum threshold i_radial=  2 for radial functions.
  Species C                   : Default cutoff onset for free atom density etc. : 0.35000000E+01 AA.
  Species C                   : Basic radial grid will be enhanced according to radial_multiplier =   1, to contain    34 grid points.
 
  Reading configuration options for species N                   .
  | Found nuclear charge :   7.0000
  | Found atomic mass :    14.0067000000000      amu
  | Found l_max for Hartree potential  :   4
  | Found cutoff potl. onset [A], width [A], scale factor :    3.50000    1.50000    1.00000
  | Threshold for basis-dependent cutoff potential is   0.100000E-03
  | Found data for basic radial integration grid :    35 points, outermost radius =    5.000 A
  | Found multiplier for basic radial grid :   1
  | Found angular grid specification: user-specified.
  | Specified grid contains     5 separate shells.
  | Check grid settings after all constraints further below.
  | Found free-atom valence shell :  2 s   2.000
  | Found free-atom valence shell :  2 p   3.000
  | No ionic wave fns used. Skipping ion_occ.
  | No ionic wave fns used. Skipping ion_occ.
  | Found hydrogenic basis function :  2 p   1.800
  | Found hydrogenic basis function :  3 d   6.800
  | Found hydrogenic basis function :  3 s   5.800
  Species N                   : Missing cutoff potential type.
  Defaulting to exp(1/x)/(1-x)^2 type cutoff potential.
  Species N : No 'logarithmic' tag. Using default grid for free atom:
  | Default logarithmic grid data [bohr] : 0.1000E-03 0.1000E+03 0.1012E+01
  Species N : On-site basis accuracy parameter (for Gram-Schmidt orthonormalisation) not specified.
  Using default value basis_acc =  0.1000000E-03.
  Species N                   : Using default innermost maximum threshold i_radial=  2 for radial functions.
  Species N                   : Default cutoff onset for free atom density etc. : 0.35000000E+01 AA.
  Species N                   : Basic radial grid will be enhanced according to radial_multiplier =   1, to contain    35 grid points.
 
  Reading configuration options for species O                   .
  | Found nuclear charge :   8.0000
  | Found atomic mass :    15.9994000000000      amu
  | Found l_max for Hartree potential  :   4
  | Found cutoff potl. onset [A], width [A], scale factor :    3.50000    1.50000    1.00000
  | Threshold for basis-dependent cutoff potential is   0.100000E-03
  | Found data for basic radial integration grid :    36 points, outermost radius =    5.000 A
  | Found multiplier for basic radial grid :   1
  | Found angular grid specification: user-specified.
  | Specified grid contains     5 separate shells.
  | Check grid settings after all constraints further below.
  | Found free-atom valence shell :  2 s   2.000
  | Found free-atom valence shell :  2 p   4.000
  | No ionic wave fns used. Skipping ion_occ.
  | No ionic wave fns used. Skipping ion_occ.
  | Found hydrogenic basis function :  2 p   1.800
  | Found hydrogenic basis function :  3 d   7.600
  | Found hydrogenic basis function :  3 s   6.400
  Species O                   : Missing cutoff potential type.
  Defaulting to exp(1/x)/(1-x)^2 type cutoff potential.
  Species O : No 'logarithmic' tag. Using default grid for free atom:
  | Default logarithmic grid data [bohr] : 0.1000E-03 0.1000E+03 0.1012E+01
  Species O : On-site basis accuracy parameter (for Gram-Schmidt orthonormalisation) not specified.
  Using default value basis_acc =  0.1000000E-03.
  Species O                   : Using default innermost maximum threshold i_radial=  2 for radial functions.
  Species O                   : Default cutoff onset for free atom density etc. : 0.35000000E+01 AA.
  Species O                   : Basic radial grid will be enhanced according to radial_multiplier =   1, to contain    36 grid points.
 
  Finished reading input file 'control.in'. Consistency checks are next.
 
  MPI_IN_PLACE appears to work with this MPI implementation.
  | Keeping use_mpi_in_place .true. (see manual).
  Target number of points in a grid batch is not set. Defaulting to  100
  Method for grid partitioning is not set. Defaulting to parallel hash+maxmin partitioning.
  Batch size limit is not set. Defaulting to    200
  By default, will store active basis functions for each batch.
  If in need of memory, prune_basis_once .false. can be used to disable this option.
  communication_type for Hartree potential was not specified.
  Defaulting to calc_hartree .
  Pulay mixer: Number of initial linear mixing iterations not set.
  Defaulting to    0 iterations.
  Work space size for distributed Hartree potential not set.
  Defaulting to   0.200000E+03 MB.
  Algorithm-dependent basis array size parameters:
  | n_max_pulay                         :       10
  Presetting      1001 iterations before the initial mixing cycle
  is restarted anyway using the sc_init_iter criterion / keyword.
  Presetting a factor      1.000 between actual scf density residual
  and density convergence criterion sc_accuracy_rho below which sc_init_iter
  takes no effect.
  Geometry relaxation not requested: no relaxation will be performed.
  Handling of forces: Unphysical translation and rotation will be removed from forces.
  No accuracy limit for integral partition fn. given. Defaulting to  0.1000E-14.
  No threshold value for u(r) in integrations given. Defaulting to  0.1000E-05.
  No accuracy for occupation numbers given. Defaulting to  0.1000E-12.
  No threshold value for occupation numbers given. Defaulting to  0.0000E+00.
  No accuracy for fermi level given. Defaulting to  0.1000E-19.
  Maximum # of iterations to find E_F not set. Defaulting to  200.
  Preferred method for the eigenvalue solver ('KS_method') not specified in 'control.in'.
  Calling BLACS routine to test compilation state
  Since ScaLAPACK support is enabled, defaulting to 'elsi'.
  Will not use alltoall communication since running on < 1024 CPUs.
  Threshold for basis singularities not set.
  Default threshold for basis singularities:  0.1000E-04
  partition_type (choice of integration weights) for integrals was not specified.
  | Using a version of the partition function of Stratmann and coworkers ('stratmann_smoother').
  | At each grid point, the set of atoms used to build the partition table is smoothly restricted to
  | only those atoms whose free-atom density would be non-zero at that grid point.
  Partitioning for Hartree potential was not defined. Using partition_type for integrals.
  | Adjusted default value of keyword multip_moments_threshold to:       0.10000000E-11
  | This value may affect high angular momentum components of the Hartree potential in periodic systems.
  No q(lm)/r^(l+1) cutoff set for long-range Hartree potential.
  | Using default value of  0.100000E-09 .
  | Verify using the multipole_threshold keyword.
  Defaulting to new monopole extrapolation.
  Density update method: automatic selection selected.
------------------------------------------------------------


------------------------------------------------------------
          Reading geometry description geometry.in.
------------------------------------------------------------
  Input structure read successfully.
  The structure contains       13 atoms,  and a total of         48.000 electrons.

  Input geometry:
  | No unit cell requested.
  | Atomic structure:
  |       Atom                x [A]            y [A]            z [A]
  |    1: Species C             0.00000000        0.00000000        0.00000000
  |    2: Species H             1.09300000        0.00000000        0.00000000
  |    3: Species N            -0.47961000        0.00000000       -1.41207000
  |    4: Species H            -0.31877000        0.92515000       -1.81214000
  |    5: Species H             0.03903000       -0.70379000       -1.93343000
  |    6: Species C            -0.49584000        1.26211000        0.72868000
  |    7: Species H            -0.17667000        2.16057000        0.19533000
  |    8: Species H            -1.58668000        1.26394000        0.78888000
  |    9: Species H            -0.09268000        1.29980000        1.74337000
  |   10: Species C            -0.39425000       -1.28861000        0.74398000
  |   11: Species O            -1.51350000       -1.59908000        1.07585000
  |   12: Species O             0.57672000       -2.09656000        1.02894000
  |   13: Species H             0.06096000       -2.78289000        1.48493000
  |

  | The smallest distance between any two atoms is         0.97210294 AA.
  |
  | The first atom of this pair is atom number                     12 .
  | The second atom of this pair is atom number                    13 .

  Number of empty states per atom not set in control.in - providing a guess from actual geometry.
  | Total number of empty states used during s.c.f. cycle:       29
  If you use a very high smearing, use empty_states (per atom!) in control.in to increase this value.

  Structure-dependent array size parameters: 
  | Maximum number of distinct radial functions  :       21
  | Maximum number of basis functions            :      119
  | Number of Kohn-Sham states (occupied + empty):       53
------------------------------------------------------------

------------------------------------------------------------
          Preparing all fixed parts of the calculation.
------------------------------------------------------------
  Determining machine precision:
    2.225073858507201E-308
  Setting up grids for atomic and cluster calculations.

  Creating wave function, potential, and density for free atoms.

  Species: H

  List of occupied orbitals and eigenvalues:
    n    l              occ      energy [Ha]    energy [eV]
    1    0           1.0000        -0.237589        -6.4651


  Species: C

  List of occupied orbitals and eigenvalues:
    n    l              occ      energy [Ha]    energy [eV]
    1    0           2.0000       -10.038835      -273.1706
    2    0           2.0000        -0.502696       -13.6791
    2    1           2.0000        -0.191971        -5.2238


  Species: N

  List of occupied orbitals and eigenvalues:
    n    l              occ      energy [Ha]    energy [eV]
    1    0           2.0000       -14.128000      -384.4424
    2    0           2.0000        -0.681077       -18.5330
    2    1           3.0000        -0.259788        -7.0692


  Species: O

  List of occupied orbitals and eigenvalues:
    n    l              occ      energy [Ha]    energy [eV]
    1    0           2.0000       -18.898188      -514.2459
    2    0           2.0000        -0.878505       -23.9053
    2    1           4.0000        -0.331779        -9.0282

  Creating fixed part of basis set: Ionic, confined, hydrogenic.
 
  H                    hydrogenic:
 
  List of hydrogenic basis orbitals: 
    n    l      effective z      eigenvalue [eV]  inner max. [A]     outer max. [A]     outer radius [A]   
    2    0         2.100000       -14.9728           0.193243           1.317208           4.583499
    2    1         3.500000       -41.6669           0.602369           0.602369           3.723403
 
 
  C                    hydrogenic:
 
  List of hydrogenic basis orbitals: 
    n    l      effective z      eigenvalue [eV]  inner max. [A]     outer max. [A]     outer radius [A]   
    2    1         1.700000        -9.7616           1.230570           1.230570           4.607917
    3    2         6.000000       -54.4224           0.792453           0.792453           3.883070
    2    0         4.900000       -81.6679           0.082559           0.562749           3.078220
 
 
  N                    hydrogenic:
 
  List of hydrogenic basis orbitals: 
    n    l      effective z      eigenvalue [eV]  inner max. [A]     outer max. [A]     outer radius [A]   
    2    1         1.800000       -10.9749           1.177451           1.177451           4.573712
    3    2         6.800000       -69.9026           0.704619           0.704619           3.538137
    3    0         5.800000       -50.8545           0.067388           1.191934           4.250239
 
 
  O                    hydrogenic:
 
  List of hydrogenic basis orbitals: 
    n    l      effective z      eigenvalue [eV]  inner max. [A]     outer max. [A]     outer radius [A]   
    2    1         1.800000       -10.9749           1.164242           1.164242           4.578029
    3    2         7.600000       -87.3180           0.624125           0.624125           3.251020
    3    0         6.400000       -61.9207           0.061167           1.081902           4.001998
 

  Adding cutoff potential to free-atom effective potential.
  Creating atomic-like basis functions for current effective potential.

  Species H                   :

  List of atomic basis orbitals and eigenvalues:
    n    l      energy [Ha]    energy [eV]    outer radius [A]
    1    0        -0.237589        -6.4651       4.527807


  Species C                   :

  List of atomic basis orbitals and eigenvalues:
    n    l      energy [Ha]    energy [eV]    outer radius [A]
    1    0       -10.038835      -273.1706       1.934409
    2    0        -0.502696       -13.6791       4.496620
    2    1        -0.191971        -5.2238       4.551928


  Species N                   :

  List of atomic basis orbitals and eigenvalues:
    n    l      energy [Ha]    energy [eV]    outer radius [A]
    1    0       -14.128000      -384.4424       1.637919
    2    0        -0.681077       -18.5330       4.463241
    2    1        -0.259788        -7.0692       4.518138


  Species O                   :

  List of atomic basis orbitals and eigenvalues:
    n    l      energy [Ha]    energy [eV]    outer radius [A]
    1    0       -18.898188      -514.2459       1.415765
    2    0        -0.878505       -23.9053       4.413171
    2    1        -0.331779        -9.0282       4.522403

  Assembling full basis from fixed parts.
  | Species H :   atomic orbital   1 s accepted.
  | Species H :    hydro orbital   2 s accepted.
  | Species H :    hydro orbital   2 p accepted.
  | Species C :   atomic orbital   1 s accepted.
  | Species C :    hydro orbital   2 s accepted.
  | Species C :   atomic orbital   2 s accepted.
  | Species C :   atomic orbital   2 p accepted.
  | Species C :    hydro orbital   2 p accepted.
  | Species C :    hydro orbital   3 d accepted.
  | Species N :   atomic orbital   1 s accepted.
  | Species N :    hydro orbital   3 s accepted.
  | Species N :   atomic orbital   2 s accepted.
  | Species N :   atomic orbital   2 p accepted.
  | Species N :    hydro orbital   2 p accepted.
  | Species N :    hydro orbital   3 d accepted.
  | Species O :   atomic orbital   1 s accepted.
  | Species O :    hydro orbital   3 s accepted.
  | Species O :   atomic orbital   2 s accepted.
  | Species O :   atomic orbital   2 p accepted.
  | Species O :    hydro orbital   2 p accepted.
  | Species O :    hydro orbital   3 d accepted.
 
  Basis size parameters after reduction:
  | Total number of radial functions:       21
  | Total number of basis functions :      119
 
  Per-task memory consumption for arrays in subroutine allocate_ext:
  |           5.250512MB.
  Testing on-site integration grid accuracy.
  |  Species  Function  <phi|h_atom|phi> (log., in eV)  <phi|h_atom|phi> (rad., in eV)
           1        1                 -6.4663192853                 -6.4651273558
           1        2                 13.7111246313                 13.7170609718
           1        3                 25.2673269279                 25.2674696378
           2        4               -273.1705927641               -273.1705631568
           2        5                -10.7109323383                -10.7107120029
           2        6                 17.4381822266                 17.4352413244
           2        7                 -5.2255326521                 -5.2270484734
           2        8                  8.6835629259                  8.6603288385
           2        9                 27.4952418996                 27.4953360207
           3       10               -384.4424306495               -384.4423701208
           3       11                 12.5842251816                 12.5842222903
           3       12                -15.7264628251                -15.7264433455
           3       13                 -7.0696854293                 -7.0701769954
           3       14                  8.8090390882                  8.7901077751
           3       15                 35.9586762123                 35.9588528632
           4       16               -514.2458688638               -514.2457643834
           4       17                 15.1795651126                 15.1795290741
           4       18                -21.5359799773                -21.5360846186
           4       19                 -9.0283069236                 -9.0284644067
           4       20                  8.3027758564                  8.2834874195
           4       21                 45.8339351984                 45.8338762259

  Preparing densities etc. for the partition functions (integrals / Hartree potential).

  Preparations completed.
  max(cpu_time)          :      0.165 s.
  Wall clock time (cpu1) :      0.165 s.
------------------------------------------------------------

------------------------------------------------------------
          Begin self-consistency loop: Initialization.

          Date     :  20200601, Time     :  010458.068
------------------------------------------------------------

  Initializing index lists of integration centers etc. from given atomic structure:
  | Number of centers in hartree potential         :        13
  | Number of centers in hartree multipole         :        13
  | Number of centers in electron density summation:        13
  | Number of centers in basis integrals           :        13
  | Number of centers in integrals                 :        13
  | Number of centers in hamiltonian               :        13
  * Using 20 tasks for Scalapack Eigenvalue solver.
  Detailed listing of tasks and assigned k-points:
  (for non-periodic systems, the "k-point" denotes an internal label only)
   Task     0 k-point     1 on r18c26.bullx
   Task     1 k-point     1 on r18c26.bullx
   Task     2 k-point     1 on r18c26.bullx
   Task     3 k-point     1 on r18c26.bullx
   Task     4 k-point     1 on r18c26.bullx
   Task     5 k-point     1 on r18c26.bullx
   Task     6 k-point     1 on r18c26.bullx
   Task     7 k-point     1 on r18c26.bullx
   Task     8 k-point     1 on r18c26.bullx
   Task     9 k-point     1 on r18c26.bullx
   Task    10 k-point     1 on r18c26.bullx
   Task    11 k-point     1 on r18c26.bullx
   Task    12 k-point     1 on r18c26.bullx
   Task    13 k-point     1 on r18c26.bullx
   Task    14 k-point     1 on r18c26.bullx
   Task    15 k-point     1 on r18c26.bullx
   Task    16 k-point     1 on r18c26.bullx
   Task    17 k-point     1 on r18c26.bullx
   Task    18 k-point     1 on r18c26.bullx
   Task    19 k-point     1 on r18c26.bullx
  Tasks:    20 split into      5 X      4 BLACS grid
  Calculating block size based on n_basis =          119  max_nprow =            5  max_npcol =            4
  ScaLAPACK block size set to:           16
  Allocating        0.008 MB for ovlp
  Allocating        0.008 MB for ham
  Allocating        0.008 MB for eigenvec
  Required Scalapack workspace - INTEGER:            1  REAL:             1
  Partitioning the integration grid into batches with parallel hashing+maxmin method.
  | Number of batches:      854
  | Maximal batch size:     187
  | Minimal batch size:      54
  | Average batch size:      81.553
  | Standard deviation of batch sizes:      19.333

  Integration load balanced across    20 MPI tasks.
  Work distribution over tasks is as follows:
  Task     0 has       3498 integration points.
  Task     1 has       3460 integration points.
  Task     2 has       3512 integration points.
  Task     3 has       3479 integration points.
  Task     4 has       3457 integration points.
  Task     5 has       3474 integration points.
  Task     6 has       3500 integration points.
  Task     7 has       3551 integration points.
  Task     8 has       3466 integration points.
  Task     9 has       3540 integration points.
  Task    10 has       3468 integration points.
  Task    11 has       3463 integration points.
  Task    12 has       3503 integration points.
  Task    13 has       3464 integration points.
  Task    14 has       3463 integration points.
  Task    15 has       3492 integration points.
  Task    16 has       3473 integration points.
  Task    17 has       3449 integration points.
  Task    18 has       3459 integration points.
  Task    19 has       3475 integration points.
  Initializing partition tables, free-atom densities, potentials, etc. across the integration grid (initialize_grid_storage).
  | initialize_grid_storage: Actual outermost partition radius vs. multipole_radius_free
  | (-- VB: in principle, multipole_radius_free should be larger, hence this output)
  | Species        1: Confinement radius =              4.999999999999999 AA, multipole_radius_free =              5.054417573612229 AA.
  | Species        1: outer_partition_radius set to              5.054417573612229 AA .
  | Species        2: Confinement radius =              4.999999999999999 AA, multipole_radius_free =              5.019602836301480 AA.
  | Species        2: outer_partition_radius set to              5.019602836301480 AA .
  | Species        3: Confinement radius =              4.999999999999999 AA, multipole_radius_free =              5.043624274424571 AA.
  | Species        3: outer_partition_radius set to              5.043624274424571 AA .
  | Species        4: Confinement radius =              4.999999999999999 AA, multipole_radius_free =              5.048384829883283 AA.
  | Species        4: outer_partition_radius set to              5.048384829883283 AA .
  | Original list of interatomic distances with          13 x         13 entries is created.
  | Net number of integration points:    69646
  | of which are non-zero points    :    59642
  Renormalizing the initial density to the exact electron count on the 3D integration grid.
  | Initial density: Formal number of electrons (from input files) :      48.0000000000
  | Integrated number of electrons on 3D grid     :      47.9999703000
  | Charge integration error                      :      -0.0000297000
  | Normalization factor for density and gradient :       1.0000006187
  Obtaining max. number of non-zero basis functions in each batch (get_n_compute_maxes).
  | Maximal number of non-zero basis functions:      118 in task     0
  | Maximal number of non-zero basis functions:      117 in task     1
  | Maximal number of non-zero basis functions:      118 in task     2
  | Maximal number of non-zero basis functions:      118 in task     3
  | Maximal number of non-zero basis functions:      117 in task     4
  | Maximal number of non-zero basis functions:      118 in task     5
  | Maximal number of non-zero basis functions:      118 in task     6
  | Maximal number of non-zero basis functions:      118 in task     7
  | Maximal number of non-zero basis functions:      118 in task     8
  | Maximal number of non-zero basis functions:      118 in task     9
  | Maximal number of non-zero basis functions:      118 in task    10
  | Maximal number of non-zero basis functions:      119 in task    11
  | Maximal number of non-zero basis functions:      118 in task    12
  | Maximal number of non-zero basis functions:      119 in task    13
  | Maximal number of non-zero basis functions:      118 in task    14
  | Maximal number of non-zero basis functions:      118 in task    15
  | Maximal number of non-zero basis functions:      119 in task    16
  | Maximal number of non-zero basis functions:      118 in task    17
  | Maximal number of non-zero basis functions:      118 in task    18
  | Maximal number of non-zero basis functions:      118 in task    19
  Selecting the method for density update.
  Loop over occupied states selected for charge density update.
  Allocating        0.050 MB for KS_eigenvector
  Integrating Hamiltonian matrix: batch-based integration.
  Time summed over all CPUs for integration: real work        0.516 s, elapsed        0.545 s
  Integrating overlap matrix.
  Time summed over all CPUs for integration: real work        0.213 s, elapsed        0.224 s
  Deallocating overlap matrix.

  Updating Kohn-Sham eigenvalues and eigenvectors using ELSI and the ELPA eigensolver.
  ELPA settings:
  | ELPA solver          1
  | Time full => band           :     0.001 s
  | Time band => tridiagonal    :     0.001 s
  | Time solve tridiagonal      :     0.001 s
  Overlap matrix is nonsingular
  | Lowest eigenvalue of overlap  :  0.52E-02
  | Highest eigenvalue of overlap :  0.60E+01
  Finished singularity check of overlap matrix
  | Time :     0.003 s
  Finished Cholesky decomposition
  | Time :     0.001 s
  Finished transformation to standard eigenproblem
  | Time :     0.001 s
  Starting ELPA eigensolver
  | Time full => tridiagonal    :     0.002 s
  | Time solve tridiagonal      :     0.000 s
  | Time ev tridiagonal => full :     0.000 s
  Finished solving standard eigenproblem
  | Time :     0.003 s
  Finished back-transformation of eigenvectors
  | Time :     0.000 s

  Obtaining occupation numbers and chemical potential using ELSI.
  | Chemical potential (Fermi level):    -6.31250673eV
  Writing Kohn-Sham eigenvalues.

  State    Occupation    Eigenvalue [Ha]    Eigenvalue [eV]
      1       2.00000         -19.007636         -517.22410
      2       2.00000         -18.978312         -516.42613
      3       2.00000         -14.245724         -387.64589
      4       2.00000         -10.166734         -276.65091
      5       2.00000         -10.141235         -275.95705
      6       2.00000         -10.131938         -275.70407
      7       2.00000          -1.188175          -32.33190
      8       2.00000          -1.092666          -29.73295
      9       2.00000          -0.991201          -26.97195
     10       2.00000          -0.861444          -23.44109
     11       2.00000          -0.764876          -20.81334
     12       2.00000          -0.671910          -18.28359
     13       2.00000          -0.616025          -16.76288
     14       2.00000          -0.605392          -16.47355
     15       2.00000          -0.587595          -15.98928
     16       2.00000          -0.585198          -15.92405
     17       2.00000          -0.541447          -14.73351
     18       2.00000          -0.524077          -14.26086
     19       2.00000          -0.510292          -13.88575
     20       2.00000          -0.503349          -13.69681
     21       2.00000          -0.488243          -13.28576
     22       2.00000          -0.428475          -11.65940
     23       2.00000          -0.408884          -11.12631
     24       2.00000          -0.381493          -10.38095
     25       0.00000          -0.158282           -4.30709
     26       0.00000          -0.053732           -1.46211
     27       0.00000          -0.025851           -0.70345
     28       0.00000          -0.013359           -0.36351
     29       0.00000           0.001500            0.04082
     30       0.00000           0.014844            0.40392
     31       0.00000           0.020991            0.57119
     32       0.00000           0.021297            0.57951
     33       0.00000           0.045366            1.23447
     34       0.00000           0.068064            1.85213
     35       0.00000           0.073782            2.00770
     36       0.00000           0.125748            3.42179
     37       0.00000           0.142487            3.87728
     38       0.00000           0.203208            5.52958
     39       0.00000           0.220248            5.99326
     40       0.00000           0.235247            6.40140
     41       0.00000           0.237115            6.45222
     42       0.00000           0.273614            7.44541
     43       0.00000           0.283505            7.71455
     44       0.00000           0.302259            8.22489
     45       0.00000           0.337014            9.17062
     46       0.00000           0.342252            9.31315
     47       0.00000           0.387546           10.54566
     48       0.00000           0.425791           11.58638
     49       0.00000           0.455159           12.38550
     50       0.00000           0.480682           13.08002
     51       0.00000           0.484653           13.18809
     52       0.00000           0.508000           13.82338
     53       0.00000           0.531258           14.45626

  Highest occupied state (VBM) at    -10.38094821 eV
  | Occupation number:      2.00000000

  Lowest unoccupied state (CBM) at    -4.30708562 eV
  | Occupation number:      0.00000000

  Overall HOMO-LUMO gap:      6.07386259 eV.
  Calculating total energy contributions from superposition of free atom densities.

  Total energy components:
  | Sum of eigenvalues            :        -188.84464167 Ha       -5138.72415530 eV
  | XC energy correction          :         -41.78386857 Ha       -1136.99691360 eV
  | XC potential correction       :          53.71306588 Ha        1461.60688842 eV
  | Free-atom electrostatic energy:        -146.85713830 Ha       -3996.18605698 eV
  | Hartree energy correction     :           0.00000000 Ha           0.00000000 eV
  | vdW energy correction         :           0.00000000 Ha           0.00000000 eV
  | Entropy correction            :           0.00000000 Ha           0.00000000 eV
  | ---------------------------
  | Total energy                  :        -323.77258267 Ha       -8810.30023746 eV
  | Total energy, T -> 0          :        -323.77258267 Ha       -8810.30023746 eV  <-- do not rely on this value for anything but (periodic) metals
  | Electronic free energy        :        -323.77258267 Ha       -8810.30023746 eV

  Derived energy quantities:
  | Kinetic energy                :         320.47532635 Ha        8720.57732812 eV
  | Electrostatic energy          :        -602.46404045 Ha      -16393.88065197 eV
  | Energy correction for multipole
  | error in Hartree potential    :           0.00000000 Ha           0.00000000 eV
  | Sum of eigenvalues per atom                           :        -395.28647348 eV
  | Total energy (T->0) per atom                          :        -677.71540288 eV  <-- do not rely on this value for anything but (periodic) metals
  | Electronic free energy per atom                       :        -677.71540288 eV
  Initialize hartree_potential_storage
  Max. number of atoms included in rho_multipole:           13

  End scf initialization - timings             :  max(cpu_time)    wall_clock(cpu1)
  | Time for scf. initialization               :        0.094 s           0.094 s
  | Boundary condition initialization          :        0.000 s           0.000 s
  | Integration                                :        0.040 s           0.040 s
  | Solution of K.-S. eqns.                    :        0.010 s           0.010 s
  | Grid partitioning                          :        0.021 s           0.021 s
  | Preloading free-atom quantities on grid    :        0.003 s           0.002 s
  | Free-atom superposition energy             :        0.005 s           0.005 s
  | Total energy evaluation                    :        0.000 s           0.000 s

  Partial memory accounting:
  | Current value for overall tracked memory usage on task 0  :           0.133 MB
  | Peak value for overall tracked memory usage on task 0     :           0.834 MB after allocating wave
  | Largest tracked array allocation on task 0 so far         :           0.177 MB  when allocating H_times_psi
  Note:  These values currently only include a subset of arrays which are explicitly tracked.
  The "true" memory usage will be greater.
------------------------------------------------------------

------------------------------------------------------------
          Begin self-consistency iteration #    1

  Date     :  20200601, Time     :  010458.163
------------------------------------------------------------
  Evaluating new KS density.
  Integration grid: deviation in total charge (<rho> - N_e) =   7.105427E-15
  Pulay mixing of updated and previous charge densities.

  Evaluating partitioned Hartree potential by multipole expansion.
  | Analytical far-field extrapolation by fixed multipoles:
  | Hartree multipole sum: apparent total charge =  -0.137664E-03
  Summing up the Hartree potential.
  Time summed over all CPUs for potential: real work        0.421 s, elapsed        0.436 s
  | RMS charge density error from multipole expansion :   0.587412E-02

  Integrating Hamiltonian matrix: batch-based integration.
  Time summed over all CPUs for integration: real work        0.505 s, elapsed        0.535 s

  Updating Kohn-Sham eigenvalues and eigenvectors using ELSI and the ELPA eigensolver.
  ELPA settings:
  | ELPA solver          1
  Finished transformation to standard eigenproblem
  | Time :     0.000 s
  Starting ELPA eigensolver
  | Time full => tridiagonal    :     0.002 s
  | Time solve tridiagonal      :     0.000 s
  | Time ev tridiagonal => full :     0.000 s
  Finished solving standard eigenproblem
  | Time :     0.003 s
  Finished back-transformation of eigenvectors
  | Time :     0.000 s

  Obtaining occupation numbers and chemical potential using ELSI.
  | Chemical potential (Fermi level):    -5.22747520eV
  Writing Kohn-Sham eigenvalues.

  State    Occupation    Eigenvalue [Ha]    Eigenvalue [eV]
      1       2.00000         -18.910220         -514.57327
      2       2.00000         -18.834999         -512.52639
      3       2.00000         -14.094588         -383.53325
      4       2.00000         -10.113643         -275.20624
      5       2.00000         -10.060910         -273.77129
      6       2.00000         -10.030540         -272.94488
      7       2.00000          -1.139999          -31.02095
      8       2.00000          -1.029057          -28.00207
      9       2.00000          -0.919622          -25.02418
     10       2.00000          -0.795187          -21.63813
     11       2.00000          -0.715011          -19.45645
     12       2.00000          -0.622826          -16.94795
     13       2.00000          -0.557217          -15.16265
     14       2.00000          -0.544541          -14.81773
     15       2.00000          -0.530606          -14.43852
     16       2.00000          -0.524061          -14.26044
     17       2.00000          -0.484614          -13.18701
     18       2.00000          -0.469012          -12.76246
     19       2.00000          -0.445843          -12.13199
     20       2.00000          -0.440431          -11.98473
     21       2.00000          -0.432485          -11.76851
     22       2.00000          -0.366861           -9.98279
     23       2.00000          -0.334347           -9.09806
     24       2.00000          -0.309094           -8.41088
     25       0.00000          -0.117273           -3.19115
     26       0.00000          -0.028372           -0.77203
     27       0.00000          -0.006214           -0.16909
     28       0.00000           0.022913            0.62348
     29       0.00000           0.039714            1.08069
     30       0.00000           0.045143            1.22840
     31       0.00000           0.062662            1.70511
     32       0.00000           0.063615            1.73106
     33       0.00000           0.085701            2.33204
     34       0.00000           0.113064            3.07662
     35       0.00000           0.115284            3.13703
     36       0.00000           0.153840            4.18620
     37       0.00000           0.169033            4.59963
     38       0.00000           0.231160            6.29019
     39       0.00000           0.255040            6.94000
     40       0.00000           0.266403            7.24919
     41       0.00000           0.277087            7.53992
     42       0.00000           0.306930            8.35198
     43       0.00000           0.321728            8.75466
     44       0.00000           0.337282            9.17792
     45       0.00000           0.374449           10.18928
     46       0.00000           0.385447           10.48855
     47       0.00000           0.425136           11.56854
     48       0.00000           0.463376           12.60909
     49       0.00000           0.495005           13.46978
     50       0.00000           0.517259           14.07534
     51       0.00000           0.522927           14.22956
     52       0.00000           0.545807           14.85215
     53       0.00000           0.568793           15.47764

  Highest occupied state (VBM) at     -8.41088116 eV
  | Occupation number:      2.00000000

  Lowest unoccupied state (CBM) at    -3.19115142 eV
  | Occupation number:      0.00000000

  Overall HOMO-LUMO gap:      5.21972973 eV.

  Total energy components:
  | Sum of eigenvalues            :        -185.41142723 Ha       -5045.30163707 eV
  | XC energy correction          :         -42.11165160 Ha       -1145.91634366 eV
  | XC potential correction       :          54.13939567 Ha        1473.20791224 eV
  | Free-atom electrostatic energy:        -146.85713830 Ha       -3996.18605698 eV
  | Hartree energy correction     :          -3.35190121 Ha         -91.20987272 eV
  | vdW energy correction         :           0.00000000 Ha           0.00000000 eV
  | Entropy correction            :           0.00000000 Ha           0.00000000 eV
  | ---------------------------
  | Total energy                  :        -323.59272268 Ha       -8805.40599819 eV
  | Total energy, T -> 0          :        -323.59272268 Ha       -8805.40599819 eV  <-- do not rely on this value for anything but (periodic) metals
  | Electronic free energy        :        -323.59272268 Ha       -8805.40599819 eV

  Derived energy quantities:
  | Kinetic energy                :         322.25639417 Ha        8769.04264945 eV
  | Electrostatic energy          :        -603.73746525 Ha      -16428.53230398 eV
  | Energy correction for multipole
  | error in Hartree potential    :           0.01211457 Ha           0.32965410 eV
  | Sum of eigenvalues per atom                           :        -388.10012593 eV
  | Total energy (T->0) per atom                          :        -677.33892294 eV  <-- do not rely on this value for anything but (periodic) metals
  | Electronic free energy per atom                       :        -677.33892294 eV

  Self-consistency convergence accuracy:
  | Change of charge density      :  0.5804E+00
  | Change of sum of eigenvalues  :  0.9342E+02 eV
  | Change of total energy        :  0.4894E+01 eV

  End self-consistency iteration #     1       :  max(cpu_time)    wall_clock(cpu1)
  | Time for this iteration                    :        0.078 s           0.078 s
  | Charge density update                      :        0.022 s           0.021 s
  | Density mixing                             :        0.000 s           0.001 s
  | Hartree multipole update                   :        0.001 s           0.001 s
  | Hartree multipole summation                :        0.022 s           0.023 s
  | Integration                                :        0.027 s           0.027 s
  | Solution of K.-S. eqns.                    :        0.004 s           0.004 s
  | Total energy evaluation                    :        0.000 s           0.001 s

  Partial memory accounting:
  | Current value for overall tracked memory usage on task 0  :           0.133 MB
  | Peak value for overall tracked memory usage on task 0     :           0.839 MB after allocating gradient_basis_wave
  | Largest tracked array allocation on task 0 so far         :           0.530 MB  when allocating gradient_basis_wave
  Note:  These values currently only include a subset of arrays which are explicitly tracked.
  The "true" memory usage will be greater.
------------------------------------------------------------

------------------------------------------------------------
          Begin self-consistency iteration #    2

  Date     :  20200601, Time     :  010458.246
------------------------------------------------------------
  Evaluating new KS density.
  Integration grid: deviation in total charge (<rho> - N_e) =   3.552714E-14
  Pulay mixing of updated and previous charge densities.

  Evaluating partitioned Hartree potential by multipole expansion.
  | Analytical far-field extrapolation by fixed multipoles:
  | Hartree multipole sum: apparent total charge =  -0.275382E-03
  Summing up the Hartree potential.
  Time summed over all CPUs for potential: real work        0.420 s, elapsed        0.437 s
  | RMS charge density error from multipole expansion :   0.140195E-01

  Integrating Hamiltonian matrix: batch-based integration.
  Time summed over all CPUs for integration: real work        0.504 s, elapsed        0.537 s

  Updating Kohn-Sham eigenvalues and eigenvectors using ELSI and the ELPA eigensolver.
  ELPA settings:
  | ELPA solver          1
  Finished transformation to standard eigenproblem
  | Time :     0.000 s
  Starting ELPA eigensolver
  | Time full => tridiagonal    :     0.002 s
  | Time solve tridiagonal      :     0.000 s
  | Time ev tridiagonal => full :     0.000 s
  Finished solving standard eigenproblem
  | Time :     0.003 s
  Finished back-transformation of eigenvectors
  | Time :     0.000 s

  Obtaining occupation numbers and chemical potential using ELSI.
  | Chemical potential (Fermi level):    -3.93960520eV
  Highest occupied state (VBM) at     -6.40861254 eV
  | Occupation number:      2.00000000

  Lowest unoccupied state (CBM) at    -1.83267628 eV
  | Occupation number:      0.00000000

  Overall HOMO-LUMO gap:      4.57593626 eV.

  Checking to see if s.c.f. parameters should be adjusted.

  Total energy components:
  | Sum of eigenvalues            :        -181.80336497 Ha       -4947.12126754 eV
  | XC energy correction          :         -42.47195805 Ha       -1155.72078105 eV
  | XC potential correction       :          54.60647529 Ha        1485.91779526 eV
  | Free-atom electrostatic energy:        -146.85713830 Ha       -3996.18605698 eV
  | Hartree energy correction     :          -6.98957355 Ha        -190.19597338 eV
  | vdW energy correction         :           0.00000000 Ha           0.00000000 eV
  | Entropy correction            :           0.00000000 Ha           0.00000000 eV
  | ---------------------------
  | Total energy                  :        -323.51555959 Ha       -8803.30628369 eV
  | Total energy, T -> 0          :        -323.51555959 Ha       -8803.30628369 eV  <-- do not rely on this value for anything but (periodic) metals
  | Electronic free energy        :        -323.51555959 Ha       -8803.30628369 eV

  Derived energy quantities:
  | Kinetic energy                :         323.57520680 Ha        8804.92936703 eV
  | Electrostatic energy          :        -604.61880834 Ha      -16452.51486967 eV
  | Energy correction for multipole
  | error in Hartree potential    :           0.02693237 Ha           0.73286708 eV
  | Sum of eigenvalues per atom                           :        -380.54778981 eV
  | Total energy (T->0) per atom                          :        -677.17740644 eV  <-- do not rely on this value for anything but (periodic) metals
  | Electronic free energy per atom                       :        -677.17740644 eV

  Self-consistency convergence accuracy:
  | Change of charge density      :  0.3632E+00
  | Change of sum of eigenvalues  :  0.9818E+02 eV
  | Change of total energy        :  0.2100E+01 eV

  End self-consistency iteration #     2       :  max(cpu_time)    wall_clock(cpu1)
  | Time for this iteration                    :        0.078 s           0.077 s
  | Charge density update                      :        0.022 s           0.021 s
  | Density mixing                             :        0.001 s           0.000 s
  | Hartree multipole update                   :        0.001 s           0.002 s
  | Hartree multipole summation                :        0.022 s           0.022 s
  | Integration                                :        0.027 s           0.027 s
  | Solution of K.-S. eqns.                    :        0.004 s           0.004 s
  | Total energy evaluation                    :        0.000 s           0.000 s

  Partial memory accounting:
  | Current value for overall tracked memory usage on task 0  :           0.134 MB
  | Peak value for overall tracked memory usage on task 0     :           0.839 MB after allocating gradient_basis_wave
  | Largest tracked array allocation on task 0 so far         :           0.530 MB  when allocating gradient_basis_wave
  Note:  These values currently only include a subset of arrays which are explicitly tracked.
  The "true" memory usage will be greater.
------------------------------------------------------------

------------------------------------------------------------
          Begin self-consistency iteration #    3

  Date     :  20200601, Time     :  010458.327
------------------------------------------------------------
  Evaluating new KS density.
  Integration grid: deviation in total charge (<rho> - N_e) =   0.000000E+00
  Pulay mixing of updated and previous charge densities.

  Evaluating partitioned Hartree potential by multipole expansion.
  | Analytical far-field extrapolation by fixed multipoles:
  | Hartree multipole sum: apparent total charge =  -0.369120E-03
  Summing up the Hartree potential.
  Time summed over all CPUs for potential: real work        0.420 s, elapsed        0.435 s
  | RMS charge density error from multipole expansion :   0.221234E-01

  Integrating Hamiltonian matrix: batch-based integration.
  Time summed over all CPUs for integration: real work        0.505 s, elapsed        0.537 s

  Updating Kohn-Sham eigenvalues and eigenvectors using ELSI and the ELPA eigensolver.
  ELPA settings:
  | ELPA solver          1
  Finished transformation to standard eigenproblem
  | Time :     0.000 s
  Starting ELPA eigensolver
  | Time full => tridiagonal    :     0.002 s
  | Time solve tridiagonal      :     0.000 s
  | Time ev tridiagonal => full :     0.000 s
  Finished solving standard eigenproblem
  | Time :     0.003 s
  Finished back-transformation of eigenvectors
  | Time :     0.000 s

  Obtaining occupation numbers and chemical potential using ELSI.
  | Chemical potential (Fermi level):    -3.29484094eV
  Highest occupied state (VBM) at     -5.76197811 eV
  | Occupation number:      2.00000000

  Lowest unoccupied state (CBM) at    -1.16826249 eV
  | Occupation number:      0.00000000

  Overall HOMO-LUMO gap:      4.59371562 eV.

  Total energy components:
  | Sum of eigenvalues            :        -180.55251065 Ha       -4913.08378985 eV
  | XC energy correction          :         -42.61860039 Ha       -1159.71112216 eV
  | XC potential correction       :          54.79332716 Ha        1491.00229346 eV
  | Free-atom electrostatic energy:        -146.85713830 Ha       -3996.18605698 eV
  | Hartree energy correction     :          -8.26821041 Ha        -224.98945250 eV
  | vdW energy correction         :           0.00000000 Ha           0.00000000 eV
  | Entropy correction            :           0.00000000 Ha           0.00000000 eV
  | ---------------------------
  | Total energy                  :        -323.50313260 Ha       -8802.96812803 eV
  | Total energy, T -> 0          :        -323.50313260 Ha       -8802.96812803 eV  <-- do not rely on this value for anything but (periodic) metals
  | Electronic free energy        :        -323.50313260 Ha       -8802.96812803 eV

  Derived energy quantities:
  | Kinetic energy                :         323.14233344 Ha        8793.15028340 eV
  | Electrostatic energy          :        -604.02686564 Ha      -16436.40728927 eV
  | Energy correction for multipole
  | error in Hartree potential    :           0.03839185 Ha           1.04469531 eV
  | Sum of eigenvalues per atom                           :        -377.92952230 eV
  | Total energy (T->0) per atom                          :        -677.15139446 eV  <-- do not rely on this value for anything but (periodic) metals
  | Electronic free energy per atom                       :        -677.15139446 eV

  Self-consistency convergence accuracy:
  | Change of charge density      :  0.2023E+00
  | Change of sum of eigenvalues  :  0.3404E+02 eV
  | Change of total energy        :  0.3382E+00 eV

  End self-consistency iteration #     3       :  max(cpu_time)    wall_clock(cpu1)
  | Time for this iteration                    :        0.078 s           0.077 s
  | Charge density update                      :        0.022 s           0.021 s
  | Density mixing                             :        0.001 s           0.001 s
  | Hartree multipole update                   :        0.001 s           0.001 s
  | Hartree multipole summation                :        0.022 s           0.022 s
  | Integration                                :        0.027 s           0.028 s
  | Solution of K.-S. eqns.                    :        0.004 s           0.004 s
  | Total energy evaluation                    :        0.000 s           0.000 s

  Partial memory accounting:
  | Current value for overall tracked memory usage on task 0  :           0.134 MB
  | Peak value for overall tracked memory usage on task 0     :           0.840 MB after allocating gradient_basis_wave
  | Largest tracked array allocation on task 0 so far         :           0.530 MB  when allocating gradient_basis_wave
  Note:  These values currently only include a subset of arrays which are explicitly tracked.
  The "true" memory usage will be greater.
------------------------------------------------------------

------------------------------------------------------------
          Begin self-consistency iteration #    4

  Date     :  20200601, Time     :  010458.408
------------------------------------------------------------
  Evaluating new KS density.
  Integration grid: deviation in total charge (<rho> - N_e) =   0.000000E+00
  Pulay mixing of updated and previous charge densities.

  Evaluating partitioned Hartree potential by multipole expansion.
  | Analytical far-field extrapolation by fixed multipoles:
  | Hartree multipole sum: apparent total charge =  -0.401214E-03
  Summing up the Hartree potential.
  Time summed over all CPUs for potential: real work        0.412 s, elapsed        0.428 s
  | RMS charge density error from multipole expansion :   0.256360E-01

  Integrating Hamiltonian matrix: batch-based integration.
  Time summed over all CPUs for integration: real work        0.504 s, elapsed        0.539 s

  Updating Kohn-Sham eigenvalues and eigenvectors using ELSI and the ELPA eigensolver.
  ELPA settings:
  | ELPA solver          1
  Finished transformation to standard eigenproblem
  | Time :     0.000 s
  Starting ELPA eigensolver
  | Time full => tridiagonal    :     0.002 s
  | Time solve tridiagonal      :     0.000 s
  | Time ev tridiagonal => full :     0.000 s
  Finished solving standard eigenproblem
  | Time :     0.003 s
  Finished back-transformation of eigenvectors
  | Time :     0.000 s

  Obtaining occupation numbers and chemical potential using ELSI.
  | Chemical potential (Fermi level):    -3.18658145eV
  Highest occupied state (VBM) at     -5.55150573 eV
  | Occupation number:      2.00000000

  Lowest unoccupied state (CBM) at    -1.07456632 eV
  | Occupation number:      0.00000000

  Overall HOMO-LUMO gap:      4.47693941 eV.

  Total energy components:
  | Sum of eigenvalues            :        -180.37539948 Ha       -4908.26434963 eV
  | XC energy correction          :         -42.65874662 Ha       -1160.80355654 eV
  | XC potential correction       :          54.84394179 Ha        1492.37958754 eV
  | Free-atom electrostatic energy:        -146.85713830 Ha       -3996.18605698 eV
  | Hartree energy correction     :          -8.45492648 Ha        -230.07025528 eV
  | vdW energy correction         :           0.00000000 Ha           0.00000000 eV
  | Entropy correction            :           0.00000000 Ha           0.00000000 eV
  | ---------------------------
  | Total energy                  :        -323.50226909 Ha       -8802.94463090 eV
  | Total energy, T -> 0          :        -323.50226909 Ha       -8802.94463090 eV  <-- do not rely on this value for anything but (periodic) metals
  | Electronic free energy        :        -323.50226909 Ha       -8802.94463090 eV

  Derived energy quantities:
  | Kinetic energy                :         322.77002560 Ha        8783.01927177 eV
  | Electrostatic energy          :        -603.61354808 Ha      -16425.16034612 eV
  | Energy correction for multipole
  | error in Hartree potential    :           0.04291277 Ha           1.16771578 eV
  | Sum of eigenvalues per atom                           :        -377.55879613 eV
  | Total energy (T->0) per atom                          :        -677.14958699 eV  <-- do not rely on this value for anything but (periodic) metals
  | Electronic free energy per atom                       :        -677.14958699 eV

  Self-consistency convergence accuracy:
  | Change of charge density      :  0.6423E-01
  | Change of sum of eigenvalues  :  0.4819E+01 eV
  | Change of total energy        :  0.2350E-01 eV

  End self-consistency iteration #     4       :  max(cpu_time)    wall_clock(cpu1)
  | Time for this iteration                    :        0.077 s           0.077 s
  | Charge density update                      :        0.022 s           0.021 s
  | Density mixing                             :        0.001 s           0.001 s
  | Hartree multipole update                   :        0.001 s           0.001 s
  | Hartree multipole summation                :        0.022 s           0.022 s
  | Integration                                :        0.027 s           0.027 s
  | Solution of K.-S. eqns.                    :        0.004 s           0.004 s
  | Total energy evaluation                    :        0.000 s           0.001 s

  Partial memory accounting:
  | Current value for overall tracked memory usage on task 0  :           0.134 MB
  | Peak value for overall tracked memory usage on task 0     :           0.840 MB after allocating gradient_basis_wave
  | Largest tracked array allocation on task 0 so far         :           0.530 MB  when allocating gradient_basis_wave
  Note:  These values currently only include a subset of arrays which are explicitly tracked.
  The "true" memory usage will be greater.
------------------------------------------------------------

------------------------------------------------------------
          Begin self-consistency iteration #    5

  Date     :  20200601, Time     :  010458.490
------------------------------------------------------------
  Evaluating new KS density.
  Integration grid: deviation in total charge (<rho> - N_e) =  -7.105427E-15
  Pulay mixing of updated and previous charge densities.

  Evaluating partitioned Hartree potential by multipole expansion.
  | Analytical far-field extrapolation by fixed multipoles:
  | Hartree multipole sum: apparent total charge =  -0.395213E-03
  Summing up the Hartree potential.
  Time summed over all CPUs for potential: real work        0.411 s, elapsed        0.426 s
  | RMS charge density error from multipole expansion :   0.253600E-01

  Integrating Hamiltonian matrix: batch-based integration.
  Time summed over all CPUs for integration: real work        0.505 s, elapsed        0.537 s

  Updating Kohn-Sham eigenvalues and eigenvectors using ELSI and the ELPA eigensolver.
  ELPA settings:
  | ELPA solver          1
  Finished transformation to standard eigenproblem
  | Time :     0.000 s
  Starting ELPA eigensolver
  | Time full => tridiagonal    :     0.002 s
  | Time solve tridiagonal      :     0.000 s
  | Time ev tridiagonal => full :     0.000 s
  Finished solving standard eigenproblem
  | Time :     0.003 s
  Finished back-transformation of eigenvectors
  | Time :     0.000 s

  Obtaining occupation numbers and chemical potential using ELSI.
  | Chemical potential (Fermi level):    -3.24484000eV
  Highest occupied state (VBM) at     -5.63269671 eV
  | Occupation number:      2.00000000

  Lowest unoccupied state (CBM) at    -1.15286011 eV
  | Occupation number:      0.00000000

  Overall HOMO-LUMO gap:      4.47983659 eV.

  Total energy components:
  | Sum of eigenvalues            :        -180.54907347 Ha       -4912.99025938 eV
  | XC energy correction          :         -42.63734530 Ha       -1160.22119713 eV
  | XC potential correction       :          54.81620117 Ha        1491.62472695 eV
  | Free-atom electrostatic energy:        -146.85713830 Ha       -3996.18605698 eV
  | Hartree energy correction     :          -8.27461015 Ha        -225.16359827 eV
  | vdW energy correction         :           0.00000000 Ha           0.00000000 eV
  | Entropy correction            :           0.00000000 Ha           0.00000000 eV
  | ---------------------------
  | Total energy                  :        -323.50196605 Ha       -8802.93638481 eV
  | Total energy, T -> 0          :        -323.50196605 Ha       -8802.93638481 eV  <-- do not rely on this value for anything but (periodic) metals
  | Electronic free energy        :        -323.50196605 Ha       -8802.93638481 eV

  Derived energy quantities:
  | Kinetic energy                :         322.68244873 Ha        8780.63618390 eV
  | Electrostatic energy          :        -603.54706948 Ha      -16423.35137157 eV
  | Energy correction for multipole
  | error in Hartree potential    :           0.04229920 Ha           1.15101986 eV
  | Sum of eigenvalues per atom                           :        -377.92232764 eV
  | Total energy (T->0) per atom                          :        -677.14895268 eV  <-- do not rely on this value for anything but (periodic) metals
  | Electronic free energy per atom                       :        -677.14895268 eV

  Self-consistency convergence accuracy:
  | Change of charge density      :  0.2163E-01
  | Change of sum of eigenvalues  : -0.4726E+01 eV
  | Change of total energy        :  0.8246E-02 eV

  End self-consistency iteration #     5       :  max(cpu_time)    wall_clock(cpu1)
  | Time for this iteration                    :        0.077 s           0.076 s
  | Charge density update                      :        0.022 s           0.020 s
  | Density mixing                             :        0.001 s           0.001 s
  | Hartree multipole update                   :        0.001 s           0.001 s
  | Hartree multipole summation                :        0.022 s           0.022 s
  | Integration                                :        0.027 s           0.028 s
  | Solution of K.-S. eqns.                    :        0.004 s           0.003 s
  | Total energy evaluation                    :        0.000 s           0.001 s

  Partial memory accounting:
  | Current value for overall tracked memory usage on task 0  :           0.134 MB
  | Peak value for overall tracked memory usage on task 0     :           0.840 MB after allocating gradient_basis_wave
  | Largest tracked array allocation on task 0 so far         :           0.530 MB  when allocating gradient_basis_wave
  Note:  These values currently only include a subset of arrays which are explicitly tracked.
  The "true" memory usage will be greater.
------------------------------------------------------------

------------------------------------------------------------
          Begin self-consistency iteration #    6

  Date     :  20200601, Time     :  010458.571
------------------------------------------------------------
  Evaluating new KS density.
  Integration grid: deviation in total charge (<rho> - N_e) =   1.421085E-14
  Pulay mixing of updated and previous charge densities.

[...]
  |   Hirshfeld dipole moment :      0.06187125
  |   Hirshfeld second moments:     -0.02397020       0.00094339       0.00410027
  |                                  0.00094339      -0.00595618       0.02170728
  |                                  0.00410027       0.02170728       0.01058523
  ----------------------------------------------------------------------
  | Atom    12: O
  |   Hirshfeld charge        :     -0.14572273
  |   Free atom volume        :     23.61338643
  |   Hirshfeld volume        :     20.79021362
  |   Hirshfeld dipole vector :     -0.04712321      -0.00056524       0.00743983
  |   Hirshfeld dipole moment :      0.04771025
  |   Hirshfeld second moments:      0.01912573       0.00587814       0.00245853
  |                                  0.00587814       0.09301237      -0.02041856
  |                                  0.00245853      -0.02041856       0.06885180
  ----------------------------------------------------------------------
  | Atom    13: H
  |   Hirshfeld charge        :      0.16963800
  |   Free atom volume        :      9.95071624
  |   Hirshfeld volume        :      6.44136868
  |   Hirshfeld dipole vector :     -0.02709384      -0.09368587       0.05557302
  |   Hirshfeld dipole moment :      0.11224739
  |   Hirshfeld second moments:      0.07552090      -0.00203375       0.00770175
  |                                 -0.00203375       0.12211302      -0.00071990
  |                                  0.00770175      -0.00071990       0.11946555
  ----------------------------------------------------------------------


  Total energy components:
  | Sum of eigenvalues            :        -180.57616153 Ha       -4913.72736281 eV
  | XC energy correction          :         -42.62999302 Ha       -1160.02113132 eV
  | XC potential correction       :          54.80672381 Ha        1491.36683485 eV
  | Free-atom electrostatic energy:        -146.85713830 Ha       -3996.18605698 eV
  | Hartree energy correction     :          -8.24531761 Ha        -224.36650790 eV
  | vdW energy correction         :          -0.00318788 Ha          -0.08674659 eV
  | Entropy correction            :           0.00000000 Ha           0.00000000 eV
  | ---------------------------
  | Total energy                  :        -323.50507453 Ha       -8803.02097076 eV
  | Total energy, T -> 0          :        -323.50507453 Ha       -8803.02097076 eV  <-- do not rely on this value for anything but (periodic) metals
  | Electronic free energy        :        -323.50507453 Ha       -8803.02097076 eV

  Derived energy quantities:
  | Kinetic energy                :         322.54773246 Ha        8776.97036758 eV
  | Electrostatic energy          :        -603.41962609 Ha      -16419.88346043 eV
  | Energy correction for multipole
  | error in Hartree potential    :           0.04274578 Ha           1.16317175 eV
  | Sum of eigenvalues per atom                           :        -377.97902791 eV
  | Total energy (T->0) per atom                          :        -677.15545929 eV  <-- do not rely on this value for anything but (periodic) metals
  | Electronic free energy per atom                       :        -677.15545929 eV

  atomic forces [eV/Ang]:
  -----------------------
  atom #    1
   Hellmann-Feynman              :  0.244808E+01  0.233498E+00  0.133824E+01
   Ionic forces                  :  0.000000E+00  0.000000E+00  0.000000E+00
   Multipole                     :  0.105351E+00  0.616740E+00 -0.462081E+00
   Pulay + GGA                   : -0.220904E+01 -0.489744E+00 -0.136674E+01
   Van der Waals                 :  0.132585E-02  0.599169E-03 -0.144732E-02
   ----------------------------------------------------------------
   Total forces(   1)            :  0.345720E+00  0.361094E+00 -0.492033E+00
  atom #    2
   Hellmann-Feynman              :  0.397855E+00  0.674164E-01  0.286823E+00
   Ionic forces                  :  0.000000E+00  0.000000E+00  0.000000E+00
   Multipole                     :  0.165318E+00  0.359618E-01 -0.385017E-01
   Pulay + GGA                   : -0.922498E-01  0.192218E-01 -0.152536E-01
   Van der Waals                 :  0.510690E-02 -0.801391E-02  0.401855E-02
   ----------------------------------------------------------------
   Total forces(   2)            :  0.476031E+00  0.114586E+00  0.237086E+00
  atom #    3
   Hellmann-Feynman              : -0.122179E+02 -0.283315E+01  0.566355E+00
   Ionic forces                  :  0.000000E+00  0.000000E+00  0.000000E+00
   Multipole                     : -0.110894E+00  0.119473E+00 -0.837309E+00
   Pulay + GGA                   :  0.118436E+02  0.239324E+01  0.118002E+01
   Van der Waals                 :  0.570434E-02 -0.728605E-02 -0.116536E-01
   ----------------------------------------------------------------
   Total forces(   3)            : -0.479511E+00 -0.327716E+00  0.897409E+00
  atom #    4
   Hellmann-Feynman              :  0.247677E+00  0.242071E-01 -0.675507E-01
   Ionic forces                  :  0.000000E+00  0.000000E+00  0.000000E+00
   Multipole                     :  0.229311E-01  0.531189E-01 -0.912888E-01
   Pulay + GGA                   : -0.120327E+00 -0.183286E+00  0.727511E-01
   Van der Waals                 : -0.409494E-02 -0.435819E-02 -0.387816E-02
   ----------------------------------------------------------------
   Total forces(   4)            :  0.146186E+00 -0.110318E+00 -0.899665E-01
  atom #    5
   Hellmann-Feynman              :  0.213427E+00  0.116386E-01 -0.275354E+00
   Ionic forces                  :  0.000000E+00  0.000000E+00  0.000000E+00
   Multipole                     :  0.425013E-01 -0.303429E-01 -0.103657E+00
   Pulay + GGA                   : -0.172871E+00  0.110321E+00  0.105365E+00
   Van der Waals                 : -0.218051E-02  0.184648E-02  0.179362E-02
   ----------------------------------------------------------------
   Total forces(   5)            :  0.808770E-01  0.934633E-01 -0.271853E+00
  atom #    6
   Hellmann-Feynman              : -0.690271E+00 -0.875040E+00  0.515346E-01
   Ionic forces                  :  0.000000E+00  0.000000E+00  0.000000E+00
   Multipole                     : -0.819038E-01  0.690854E+00  0.226048E+00
   Pulay + GGA                   :  0.696613E+00 -0.422101E+00 -0.340472E+00
   Van der Waals                 :  0.502040E-02  0.424765E-02  0.253559E-02
   ----------------------------------------------------------------
   Total forces(   6)            : -0.705415E-01 -0.602039E+00 -0.603539E-01
  atom #    7
   Hellmann-Feynman              :  0.162524E+00  0.573121E-01 -0.202759E+00
   Ionic forces                  :  0.000000E+00  0.000000E+00  0.000000E+00
   Multipole                     :  0.156438E-01  0.134078E+00 -0.988538E-03
   Pulay + GGA                   : -0.368489E-01 -0.685025E-01  0.816930E-01
   Van der Waals                 : -0.187369E-02  0.640084E-02  0.804396E-02
   ----------------------------------------------------------------
   Total forces(   7)            :  0.139445E+00  0.129289E+00 -0.114011E+00
  atom #    8
   Hellmann-Feynman              : -0.196220E+00 -0.408147E-01 -0.174600E-01
   Ionic forces                  :  0.000000E+00  0.000000E+00  0.000000E+00
   Multipole                     : -0.119998E+00  0.415614E-01  0.351680E-01
   Pulay + GGA                   :  0.117490E+00 -0.566798E-01 -0.255393E-01
   Van der Waals                 : -0.212275E-02  0.117244E-01  0.188388E-02
   ----------------------------------------------------------------
   Total forces(   8)            : -0.200851E+00 -0.442086E-01 -0.594745E-02
  atom #    9
   Hellmann-Feynman              :  0.111394E+00 -0.297433E-01  0.142289E+00
   Ionic forces                  :  0.000000E+00  0.000000E+00  0.000000E+00
   Multipole                     :  0.186111E-01  0.697523E-01  0.126754E+00
   Pulay + GGA                   : -0.565171E-01  0.592727E-02 -0.996815E-01
   Van der Waals                 : -0.292775E-02  0.154975E-02  0.809019E-03
   ----------------------------------------------------------------
   Total forces(   9)            :  0.705607E-01  0.474860E-01  0.170170E+00
  atom #   10
   Hellmann-Feynman              : -0.276023E+01  0.511730E+01 -0.256684E+01
   Ionic forces                  :  0.000000E+00  0.000000E+00  0.000000E+00
   Multipole                     : -0.224043E+00 -0.272086E+00  0.162243E+00
   Pulay + GGA                   :  0.126781E+01 -0.280050E+01  0.131668E+01
   Van der Waals                 :  0.124435E-02 -0.111075E-01  0.206988E-02
   ----------------------------------------------------------------
   Total forces(  10)            : -0.171522E+01  0.203360E+01 -0.108585E+01
  atom #   11
   Hellmann-Feynman              : -0.142370E+02 -0.300362E+01  0.389852E+01
   Ionic forces                  :  0.000000E+00  0.000000E+00  0.000000E+00
   Multipole                     : -0.761289E+00 -0.450729E+00  0.360054E+00
   Pulay + GGA                   :  0.132651E+02  0.370948E+01 -0.407113E+01
   Van der Waals                 : -0.111111E-02 -0.111867E-01  0.374517E-02
   ----------------------------------------------------------------
   Total forces(  11)            : -0.173428E+01  0.243945E+00  0.191193E+00
  atom #   12
   Hellmann-Feynman              :  0.158007E+02  0.109962E+01 -0.307645E+01
   Ionic forces                  :  0.000000E+00  0.000000E+00  0.000000E+00
   Multipole                     :  0.118399E+01 -0.878372E+00  0.293566E+00
   Pulay + GGA                   : -0.142225E+02 -0.130199E+01  0.298168E+01
   Van der Waals                 : -0.463462E-02  0.105670E-01 -0.526268E-02
   ----------------------------------------------------------------
   Total forces(  12)            :  0.275753E+01 -0.107018E+01  0.193538E+00
  atom #   13
   Hellmann-Feynman              :  0.113221E+00 -0.110600E+01  0.565012E+00
   Ionic forces                  :  0.000000E+00  0.000000E+00  0.000000E+00
   Multipole                     : -0.885509E-01 -0.516234E-01  0.438598E-01
   Pulay + GGA                   :  0.155849E+00  0.278365E+00 -0.176828E+00
   Van der Waals                 :  0.543527E-03  0.501697E-02 -0.265787E-02
   ----------------------------------------------------------------
   Total forces(  13)            :  0.181063E+00 -0.874241E+00  0.429386E+00

  Timings for VdW correction (Tkatchenko-Scheffler 2009 or later):
  | CPU time:        0.009 s, Wall clock time:        0.007 s.
  Removing unitary transformations (pure translations, rotations) from forces on atoms.
  Atomic forces before filtering:
  | Net force on center of mass :  -0.298338E-02 -0.523345E-02 -0.122762E-02 eV/A
  | Net torque on center of mass:  -0.165235E-02 -0.561563E-02 -0.647044E-02 eV
  Atomic forces after filtering:
  | Net force on center of mass :   0.758226E-15  0.356812E-15  0.892031E-16 eV/A
  | Net torque on center of mass:  -0.188817E-15  0.519247E-15  0.103849E-14 eV

  Energy and forces in a compact form:
  | Total energy uncorrected      :         -0.880302097075887E+04 eV
  | Total energy corrected        :         -0.880302097075887E+04 eV  <-- do not rely on this value for anything but (periodic) metals
  | Electronic free energy        :         -0.880302097075887E+04 eV
  Total atomic forces (unitary forces cleaned) [eV/Ang]:
  |   1          0.345888218531887E+00          0.361542787151151E+00         -0.491986976846492E+00
  |   2          0.476199139317870E+00          0.115217621810620E+00          0.236911466590661E+00
  |   3         -0.479627209685687E+00         -0.327315129884009E+00          0.897552251015535E+00
  |   4          0.145834589908066E+00         -0.109882292094544E+00         -0.898357698810975E-01
  |   5          0.807729085251310E-01          0.939616933327134E-01         -0.271830023877240E+00
  |   6         -0.704363589194090E-01         -0.601688791393532E+00         -0.601799405917508E-01
  |   7          0.139293123831410E+00          0.129704000314163E+00         -0.113881618179881E+00
  |   8         -0.200733849489797E+00         -0.440414660569929E-01         -0.555335045882599E-02
  |   9          0.708643055767222E-01          0.478813172633945E-01          0.170263705031479E+00
  |  10         -0.171468397256059E+01          0.203397150139257E+01         -0.108574867403949E+01
  |  11         -0.173362689778819E+01          0.244117921562285E+00          0.191509253905271E+00
  |  12          0.275826070535004E+01         -0.106965494795386E+01          0.193421712395372E+00
  |  13          0.181995297402542E+00         -0.873814215443955E+00          0.429357964936462E+00

  ------------------------------------ 
  Start decomposition of the XC Energy 
  ------------------------------------ 
  X and C from original XC functional choice 
  Hartree-Fock Energy :          0.000000000 Ha              0.000000000 eV
  X Energy            :        -41.031569191 Ha          -1116.525805894 eV
  C Energy            :         -1.598423830 Ha            -43.495325426 eV
  Total XC Energy     :        -42.629993021 Ha          -1160.021131319 eV
  ------------------------------------ 
  LDA X and C from self-consistent density 
  X Energy LDA        :        -37.247734768 Ha          -1013.562432528 eV
  C Energy LDA        :         -3.137837689 Ha            -85.384907865 eV
  ------------------------------------ 
  End decomposition of the XC Energy 
  ------------------------------------ 

------------------------------------------------------------

------------------------------------------------------------------------------
  Final output of selected total energy values:

  The following output summarizes some interesting total energy values
  at the end of a run (AFTER all relaxation, molecular dynamics, etc.).

  | Total energy of the DFT / Hartree-Fock s.c.f. calculation      :          -8803.020970759 eV
  | Final zero-broadening corrected energy (caution - metals only) :          -8803.020970759 eV
  | For reference only, the value of 1 Hartree used in FHI-aims is :             27.211384500 eV

  Before relying on these values, please be sure to understand exactly which
  total energy value is referred to by a given number. Different objects may
  all carry the same name 'total energy'. Definitions:

  Total energy of the DFT / Hartree-Fock s.c.f. calculation:
  | Note that this energy does not include ANY quantities calculated after the
  | s.c.f. cycle, in particular not ANY RPA, MP2, etc. many-body perturbation terms.

  Final zero-broadening corrected energy:
  | For metallic systems only, a broadening of the occupation numbers at the Fermi
  | level can be extrapolated back to zero broadening by an electron-gas inspired
  | formula. For all systems that are not real metals, this value can be
  | meaningless and should be avoided.

------------------------------------------------------------------------------
  Methods described in the following list of references were used in this FHI-aims run.
  If you publish the results, please make sure to cite these reference if they apply.
  FHI-aims is an academic code, and for our developers (often, Ph.D. students
  and postdocs), scientific credit in the community is essential.
  Thank you for helping us!

  For any use of FHI-aims, please cite:

    Volker Blum, Ralf Gehrke, Felix Hanke, Paula Havu, Ville Havu,
    Xinguo Ren, Karsten Reuter, and Matthias Scheffler
    'Ab initio molecular simulations with numeric atom-centered orbitals'
    Computer Physics Communications 180, 2175-2196 (2009)
    http://dx.doi.org/10.1016/j.cpc.2009.06.022


  The scalable eigensolver library ELPA was used in your run.
  ELPA is essential especially for large systems on hundreds or thousands of CPUs.
  For ELPA, please cite:

    Andreas Marek, Volker Blum, Rainer Johanni, Ville Havu, Bruno Lang,
    Thomas Auckenthaler, Alexander Heinecke, Hans-Joachim Bungartz, and Hermann Lederer,
    'The ELPA Library - Scalable Parallel Eigenvalue Solutions
    for Electronic Structure Theory and Computational Science'
    The Journal of Physics: Condensed Matter 26, 213201 (2014).
    http://dx.doi.org/10.1088/0953-8984/26/21/213201


  The ELSI infrastructure was used in your run to solve the Kohn-Sham electronic structure.
  Please check out http://elsi-interchange.org to learn more.
  If scalability is important for your project, please acknowledge ELSI by citing:

    V. W-z. Yu, F. Corsetti, A. Garcia, W. P. Huhn, M. Jacquelin, W. Jia,
    B. Lange, L. Lin, J. Lu, W. Mi, A. Seifitokaldani, A. Vazquez-Mayagoitia,
    C. Yang, H. Yang, and V. Blum
    'ELSI: A unified software interface for Kohn-Sham electronic structure solvers'
    Computer Physics Communications 222, 267-285 (2018).
    http://dx.doi.org/10.1016/j.cpc.2017.09.007


  For the real-space grid partitioning and parallelization used in this calculation, please cite:

    Ville Havu, Volker Blum, Paula Havu, and Matthias Scheffler,
    'Efficient O(N) integration for all-electron electronic structure calculation'
    'using numerically tabulated basis functions'
    Journal of Computational Physics 228, 8367-8379 (2009).
    http://dx.doi.org/10.1016/j.jcp.2009.08.008

  Of course, there are many other important community references, e.g., those cited in the
  above references. Our list is limited to references that describe implementations in the
  FHI-aims code. The reason is purely practical (length of this list) - please credit others as well.

------------------------------------------------------------
          Leaving FHI-aims.
          Date     :  20200601, Time     :  010459.616

          Computational steps:
          | Number of self-consistency cycles          :           16
          | Number of SCF (re)initializations          :            1

          Detailed time accounting                     :  max(cpu_time)    wall_clock(cpu1)
          | Total time                                 :        1.694 s           1.752 s
          | Preparation time                           :        0.165 s           0.165 s
          | Boundary condition initalization           :        0.000 s           0.000 s
          | Grid partitioning                          :        0.021 s           0.021 s
          | Preloading free-atom quantities on grid    :        0.003 s           0.002 s
          | Free-atom superposition energy             :        0.005 s           0.005 s
          | Total time for integrations                :        0.478 s           0.477 s
          | Total time for solution of K.-S. equations :        0.072 s           0.071 s
          | Total time for density & force components  :        0.403 s           0.382 s
          | Total time for mixing                      :        0.019 s           0.018 s
          | Total time for Hartree multipole update    :        0.021 s           0.024 s
          | Total time for Hartree multipole sum       :        0.431 s           0.430 s
          | Total time for total energy evaluation     :        0.003 s           0.005 s
          | Total time for vdW correction              :        0.009 s           0.007 s

          Partial memory accounting:
          | Residual value for overall tracked memory usage across tasks :           0.000 MB (should be 0.000 MB)
          | Peak values for overall tracked memory usage (after allocating hessian_basis_wave):
          |   Minimum:        2.062 MB (on task 16)
          |   Maximum:        2.080 MB (on task 12)
          |   Average:        2.070 MB
          | Largest tracked array allocation (hessian_basis_wave):
          |   Minimum:        1.050 MB (on task  2)
          |   Maximum:        1.068 MB (on task 12)
          |   Average:        1.060 MB
          Note:  These values currently only include a subset of arrays which are explicitly tracked.
          The "true" memory usage will be greater.

          Have a nice day.
------------------------------------------------------------
