  MPI-parallelism will be employed.
------------------------------------------------------------
          Invoking FHI-aims ...
          Version 171221_1
          Compiled on 2019/09/09 at 14:39:39 on host puhti-login2.bullx.

          When using FHI-aims, please cite the following reference:

          Volker Blum, Ralf Gehrke, Felix Hanke, Paula Havu,
          Ville Havu, Xinguo Ren, Karsten Reuter, and Matthias Scheffler,
          'Ab Initio Molecular Simulations with Numeric Atom-Centered Orbitals',
          Computer Physics Communications 180, 2175-2196 (2009)

          For any questions about FHI-aims, please visit the aimsclub website
          with its forums and wiki. Contributions to both the forums and the
          wiki are warmly encouraged - they are for you, and everyone is welcome there.

------------------------------------------------------------



  Date     :  20200902, Time     :  105502.882
  Time zero on CPU 1             :   0.160310000000000E-01  s.
  Internal wall clock time zero  :           368276102.882  s.

  FHI-aims created a unique identifier for this run for later identification
  aims_uuid : 9BFEBF9C-A785-4AAA-A57E-07AC69DC48E1

  Using        1 parallel tasks.
  Task        0 on host r18c45.bullx reporting.

  Performing system and environment tests:
  | Environment variable OMP_NUM_THREADS correctly set to 1.
  | Stacksize not measured: no C compiler
  | Checking for scalapack...
  | Testing pdtran()...
  | All pdtran() tests passed.

  Obtaining array dimensions for all initial allocations:
  
  -----------------------------------------------------------------------
  Parsing control.in (first pass over file, find array dimensions only).
  The contents of control.in will be repeated verbatim below
  unless switched off by setting 'verbatim_writeout .false.' .
  in the first line of control.in .
  -----------------------------------------------------------------------
  
  #########################################################################################
  #
  #  Volker Blum, FHI 2009 : Test run input file control.in for simple H2O
  #
  #########################################################################################
  #
  #  Physical model
  #
    xc                 pbe
    vdw_correction_hirshfeld
    spin               none
    relativistic       none
    charge             0.
  #
  #  SCF convergence
  #
    occupation_type    gaussian 0.01
    mixer              pulay
      n_max_pulay        10
      charge_mix_param   0.2
    sc_accuracy_rho    1E-5
    sc_accuracy_eev    1E-3
    sc_accuracy_etot   1E-6
    sc_accuracy_forces 1E-4
    sc_iter_limit      100
  #
  #  Relaxation
  #
  #  relax_geometry   bfgs 1.e-3
  #
  ################################################################################
  #
  #  FHI-aims code project
  #  VB, Fritz-Haber Institut, 2009
  #
  #  Suggested "light" defaults for H atom (to be pasted into control.in file)
  #  Be sure to double-check any results obtained with these settings for post-processing,
  #  e.g., with the "tight" defaults and larger basis sets.
  #
  ################################################################################
    species        H
  #     global species definitions
      nucleus             1
      mass                1.00794
  #
      l_hartree           4
  #
      cut_pot             3.5  1.5  1.0
      basis_dep_cutoff    1e-4
  #
      radial_base         24 5.0
      radial_multiplier   1
      angular_grids       specified
        division   0.2421   50
        division   0.3822  110
        division   0.4799  194
        division   0.5341  302
  #      division   0.5626  434
  #      division   0.5922  590
  #      division   0.6542  770
  #      division   0.6868 1202
  #      outer_grid  770
        outer_grid  302
  ################################################################################
  #
  #  Definition of "minimal" basis
  #
  ################################################################################
  #     valence basis states
      valence      1  s   1.
  #     ion occupancy
      ion_occ      1  s   0.5
  ################################################################################
  #
  #  Suggested additional basis functions. For production calculations,
  #  uncomment them one after another (the most important basis functions are
  #  listed first).
  #
  #  Basis constructed for dimers: 0.5 A, 0.7 A, 1.0 A, 1.5 A, 2.5 A
  #
  ################################################################################
  #  "First tier" - improvements: -1014.90 meV to -62.69 meV
       hydro 2 s 2.1
       hydro 2 p 3.5
  #  "Second tier" - improvements: -12.89 meV to -1.83 meV
  #     hydro 1 s 0.85
  #     hydro 2 p 3.7
  #     hydro 2 s 1.2
  #     hydro 3 d 7
  #  "Third tier" - improvements: -0.25 meV to -0.12 meV
  #     hydro 4 f 11.2
  #     hydro 3 p 4.8
  #     hydro 4 d 9
  #     hydro 3 s 3.2
  ################################################################################
  #
  #  FHI-aims code project
  #  VB, Fritz-Haber Institut, 2009
  #
  #  Suggested "light" defaults for C atom (to be pasted into control.in file)
  #  Be sure to double-check any results obtained with these settings for post-processing,
  #  e.g., with the "tight" defaults and larger basis sets.
  #
  ################################################################################
    species        C
  #     global species definitions
      nucleus             6
      mass                12.0107
  #
      l_hartree           4
  #
      cut_pot             3.5  1.5  1.0
      basis_dep_cutoff    1e-4
  #
      radial_base         34 5.0
      radial_multiplier   1
      angular_grids specified
        division   0.3326   50
        division   0.5710  110
        division   0.7727  194
        division   0.8772  302
  #      division   0.9334  434
  #      division   0.9625  590
  #      division   0.9924  770
  #      division   1.0230  974
  #      division   1.4589 1202
  #     outer_grid  974
       outer_grid 302
  ################################################################################
  #
  #  Definition of "minimal" basis
  #
  ################################################################################
  #     valence basis states
      valence      2  s   2.
      valence      2  p   2.
  #     ion occupancy
      ion_occ      2  s   1.
      ion_occ      2  p   1.
  ################################################################################
  #
  #  Suggested additional basis functions. For production calculations,
  #  uncomment them one after another (the most important basis functions are
  #  listed first).
  #
  #  Constructed for dimers: 1.0 A, 1.25 A, 1.5 A, 2.0 A, 3.0 A
  #
  ################################################################################
  #  "First tier" - improvements: -1214.57 meV to -155.61 meV
       hydro 2 p 1.7
       hydro 3 d 6
       hydro 2 s 4.9
  #  "Second tier" - improvements: -67.75 meV to -5.23 meV
  #     hydro 4 f 9.8
  #     hydro 3 p 5.2
  #     hydro 3 s 4.3
  #     hydro 5 g 14.4
  #     hydro 3 d 6.2
  #  "Third tier" - improvements: -2.43 meV to -0.60 meV
  #     hydro 2 p 5.6
  #     hydro 2 s 1.4
  #     hydro 3 d 4.9
  #     hydro 4 f 11.2
  #  "Fourth tier" - improvements: -0.39 meV to -0.18 meV
  #     hydro 2 p 2.1
  #     hydro 5 g 16.4
  #     hydro 4 d 13.2
  #     hydro 3 s 13.6
  #     hydro 4 f 17.6
  #  Further basis functions - improvements: -0.08 meV and below
  #     hydro 3 s 2
  #     hydro 3 p 6
  #     hydro 4 d 20
  ################################################################################
  #
  #  FHI-aims code project
  #  VB, Fritz-Haber Institut, 2009
  #
  #  Suggested "light" defaults for N atom (to be pasted into control.in file)
  #  Be sure to double-check any results obtained with these settings for post-processing,
  #  e.g., with the "tight" defaults and larger basis sets.
  #
  ################################################################################
    species        N
  #     global species definitions
      nucleus             7
      mass                14.0067
  #
      l_hartree           4
  #
      cut_pot             3.5  1.5  1.0
      basis_dep_cutoff    1e-4
  #
      radial_base         35 5.0
      radial_multiplier   1
      angular_grids       specified
        division   0.2599   50
        division   0.4601  110
        division   0.5885  194
        division   0.6503  302
  #      division   0.6939  434
  #      division   0.7396  590
  #      division   0.7632  770
  #      division   0.8122  974
  #      division   1.1604 1202
  #      outer_grid  974
        outer_grid  302
  ################################################################################
  #
  #  Definition of "minimal" basis
  #
  ################################################################################
  #     valence basis states
      valence      2  s   2.
      valence      2  p   3.
  #     ion occupancy
      ion_occ      2  s   1.
      ion_occ      2  p   2.
  ################################################################################
  #
  #  Suggested additional basis functions. For production calculations,
  #  uncomment them one after another (the most important basis functions are
  #  listed first).
  #
  #  Constructed for dimers: 1.0 A, 1.1 A, 1.5 A, 2.0 A, 3.0 A
  #
  ################################################################################
  #  "First tier" - improvements: -1193.42 meV to -220.60 meV
       hydro 2 p 1.8
       hydro 3 d 6.8
       hydro 3 s 5.8
  #  "Second tier" - improvements: -80.21 meV to -6.86 meV
  #     hydro 4 f 10.8
  #     hydro 3 p 5.8
  #     hydro 1 s 0.8
  #     hydro 5 g 16
  #     hydro 3 d 4.9
  #  "Third tier" - improvements: -4.29 meV to -0.53 meV
  #     hydro 3 s 16
  #     ionic 2 p auto
  #     hydro 3 d 6.6
  #     hydro 4 f 11.6
  #  "Fourth tier" - improvements: -0.75 meV to -0.25 meV
  #     hydro 2 p 4.5
  #     hydro 2 s 2.4
  #     hydro 5 g 14.4
  #     hydro 4 d 14.4
  #     hydro 4 f 16.8
  # Further basis functions - -0.21 meV and below
  #     hydro 3 p 14.8
  #     hydro 3 s 4.4
  #     hydro 3 d 19.6
  #     hydro 5 g 12.8
  ################################################################################
  #
  #  FHI-aims code project
  #  VB, Fritz-Haber Institut, 2009
  #
  #  Suggested "light" defaults for O atom (to be pasted into control.in file)
  #  Be sure to double-check any results obtained with these settings for post-processing,
  #  e.g., with the "tight" defaults and larger basis sets.
  #
  ################################################################################
    species        O
  #     global species definitions
      nucleus             8
      mass                15.9994
  #
      l_hartree           4
  #
      cut_pot             3.5  1.5  1.0
      basis_dep_cutoff    1e-4
  #
      radial_base         36 5.0
      radial_multiplier   1
       angular_grids specified
        division   0.2659   50
        division   0.4451  110
        division   0.6052  194
        division   0.7543  302
  #      division   0.8014  434
  #      division   0.8507  590
  #      division   0.8762  770
  #      division   0.9023  974
  #      division   1.2339 1202
  #      outer_grid 974
        outer_grid 302
  ################################################################################
  #
  #  Definition of "minimal" basis
  #
  ################################################################################
  #     valence basis states
      valence      2  s   2.
      valence      2  p   4.
  #     ion occupancy
      ion_occ      2  s   1.
      ion_occ      2  p   3.
  ################################################################################
  #
  #  Suggested additional basis functions. For production calculations,
  #  uncomment them one after another (the most important basis functions are
  #  listed first).
  #
  #  Constructed for dimers: 1.0 A, 1.208 A, 1.5 A, 2.0 A, 3.0 A
  #
  ################################################################################
  #  "First tier" - improvements: -699.05 meV to -159.38 meV
       hydro 2 p 1.8
       hydro 3 d 7.6
       hydro 3 s 6.4
  #  "Second tier" - improvements: -49.91 meV to -5.39 meV
  #     hydro 4 f 11.6
  #     hydro 3 p 6.2
  #     hydro 3 d 5.6
  #     hydro 5 g 17.6
  #     hydro 1 s 0.75
  #  "Third tier" - improvements: -2.83 meV to -0.50 meV
  #     ionic 2 p auto
  #     hydro 4 f 10.8
  #     hydro 4 d 4.7
  #     hydro 2 s 6.8
  #  "Fourth tier" - improvements: -0.40 meV to -0.12 meV
  #     hydro 3 p 5
  #     hydro 3 s 3.3
  #     hydro 5 g 15.6
  #     hydro 4 f 17.6
  #     hydro 4 d 14
  # Further basis functions - -0.08 meV and below
  #     hydro 3 s 2.1
  #     hydro 4 d 11.6
  #     hydro 3 p 16
  #     hydro 2 s 17.2
  
  -----------------------------------------------------------------------
  Completed first pass over input file control.in .
  -----------------------------------------------------------------------
  
  
  -----------------------------------------------------------------------
  Parsing geometry.in (first pass over file, find array dimensions only).
  The contents of geometry.in will be repeated verbatim below
  unless switched off by setting 'verbatim_writeout .false.' .
  in the first line of geometry.in .
  -----------------------------------------------------------------------
  
  atom  0.00000 0.00000 0.00000 C
  atom  1.09300 0.00000 0.00000 H
  atom  -0.47961 0.00000 -1.41207 N
  atom  -1.49956 -0.03910 -1.41108 H
  atom  -0.16068 0.85365 -1.86559 H
  atom  -0.49584 1.26211 0.72868 C
  atom  -1.58789 1.28919 0.74431 H
  atom  -0.13407 1.27425 1.75947 H
  atom  -0.13407 2.16087 0.22380 H
  atom  -0.39425 -1.28861 0.74398 C
  atom  -0.10189 -1.56493 1.88303 O
  atom  -1.10210 -2.13717 0.06896 O
  atom  -1.53753 -1.51096 -0.53373 H
  
  -----------------------------------------------------------------------
  Completed first pass over input file geometry.in .
  -----------------------------------------------------------------------
  

  Basic array size parameters:
  | Number of species                 :        4
  | Number of atoms                   :       13
  | Max. basis fn. angular momentum   :        2
  | Max. atomic/ionic basis occupied n:        2
  | Max. number of basis fn. types    :        2
  | Max. radial fns per species/type  :        3
  | Max. logarithmic grid size        :     1301
  | Max. radial integration grid size :       36
  | Max. angular integration grid size:      302
  | Max. angular grid division number :        8
  | Radial grid for Hartree potential :     1301
  | Number of spin channels           :        1

------------------------------------------------------------
          Reading file control.in.
------------------------------------------------------------
  XC: Using PBE gradient-corrected functionals.
  Spin treatment: No spin polarisation.
  Non-relativistic treatment of kinetic energy.
  Charge =   0.000000E+00: Neutral system requested explicitly.
  Occupation type: Gaussian broadening, width =   0.100000E-01 eV.
  Using pulay charge density mixing.
  Pulay mixing - number of memorized iterations:   10
  Charge density mixing - mixing parameter:     0.2000
  Convergence accuracy of self-consistent charge density:  0.1000E-04
  Convergence accuracy of sum of eigenvalues:  0.1000E-02
  Convergence accuracy of total energy:  0.1000E-05
  Convergence accuracy of forces:  0.1000E-03
  Maximum number of s.-c. iterations  :   100
 
  Reading configuration options for species H                   .
  | Found nuclear charge :   1.0000
  | Found atomic mass :    1.00794000000000      amu
  | Found l_max for Hartree potential  :   4
  | Found cutoff potl. onset [A], width [A], scale factor :    3.50000    1.50000    1.00000
  | Threshold for basis-dependent cutoff potential is   0.100000E-03
  | Found data for basic radial integration grid :    24 points, outermost radius =    5.000 A
  | Found multiplier for basic radial grid :   1
  | Found angular grid specification: user-specified.
  | Specified grid contains     5 separate shells.
  | Check grid settings after all constraints further below.
  | Found free-atom valence shell :  1 s   1.000
  | No ionic wave fns used. Skipping ion_occ.
  | Found hydrogenic basis function :  2 s   2.100
  | Found hydrogenic basis function :  2 p   3.500
  Species H                   : Missing cutoff potential type.
  Defaulting to exp(1/x)/(1-x)^2 type cutoff potential.
  Species H : No 'logarithmic' tag. Using default grid for free atom:
  | Default logarithmic grid data [bohr] : 0.1000E-03 0.1000E+03 0.1012E+01
  Species H : On-site basis accuracy parameter (for Gram-Schmidt orthonormalisation) not specified.
  Using default value basis_acc =  0.1000000E-03.
  Species H                   : Using default innermost maximum threshold i_radial=  2 for radial functions.
  Species H                   : Default cutoff onset for free atom density etc. : 0.35000000E+01 AA.
  Species H                   : Basic radial grid will be enhanced according to radial_multiplier =   1, to contain    24 grid points.
 
  Reading configuration options for species C                   .
  | Found nuclear charge :   6.0000
  | Found atomic mass :    12.0107000000000      amu
  | Found l_max for Hartree potential  :   4
  | Found cutoff potl. onset [A], width [A], scale factor :    3.50000    1.50000    1.00000
  | Threshold for basis-dependent cutoff potential is   0.100000E-03
  | Found data for basic radial integration grid :    34 points, outermost radius =    5.000 A
  | Found multiplier for basic radial grid :   1
  | Found angular grid specification: user-specified.
  | Specified grid contains     5 separate shells.
  | Check grid settings after all constraints further below.
  | Found free-atom valence shell :  2 s   2.000
  | Found free-atom valence shell :  2 p   2.000
  | No ionic wave fns used. Skipping ion_occ.
  | No ionic wave fns used. Skipping ion_occ.
  | Found hydrogenic basis function :  2 p   1.700
  | Found hydrogenic basis function :  3 d   6.000
  | Found hydrogenic basis function :  2 s   4.900
  Species C                   : Missing cutoff potential type.
  Defaulting to exp(1/x)/(1-x)^2 type cutoff potential.
  Species C : No 'logarithmic' tag. Using default grid for free atom:
  | Default logarithmic grid data [bohr] : 0.1000E-03 0.1000E+03 0.1012E+01
  Species C : On-site basis accuracy parameter (for Gram-Schmidt orthonormalisation) not specified.
  Using default value basis_acc =  0.1000000E-03.
  Species C                   : Using default innermost maximum threshold i_radial=  2 for radial functions.
  Species C                   : Default cutoff onset for free atom density etc. : 0.35000000E+01 AA.
  Species C                   : Basic radial grid will be enhanced according to radial_multiplier =   1, to contain    34 grid points.
 
  Reading configuration options for species N                   .
  | Found nuclear charge :   7.0000
  | Found atomic mass :    14.0067000000000      amu
  | Found l_max for Hartree potential  :   4
  | Found cutoff potl. onset [A], width [A], scale factor :    3.50000    1.50000    1.00000
  | Threshold for basis-dependent cutoff potential is   0.100000E-03
  | Found data for basic radial integration grid :    35 points, outermost radius =    5.000 A
  | Found multiplier for basic radial grid :   1
  | Found angular grid specification: user-specified.
  | Specified grid contains     5 separate shells.
  | Check grid settings after all constraints further below.
  | Found free-atom valence shell :  2 s   2.000
  | Found free-atom valence shell :  2 p   3.000
  | No ionic wave fns used. Skipping ion_occ.
  | No ionic wave fns used. Skipping ion_occ.
  | Found hydrogenic basis function :  2 p   1.800
  | Found hydrogenic basis function :  3 d   6.800
  | Found hydrogenic basis function :  3 s   5.800
  Species N                   : Missing cutoff potential type.
  Defaulting to exp(1/x)/(1-x)^2 type cutoff potential.
  Species N : No 'logarithmic' tag. Using default grid for free atom:
  | Default logarithmic grid data [bohr] : 0.1000E-03 0.1000E+03 0.1012E+01
  Species N : On-site basis accuracy parameter (for Gram-Schmidt orthonormalisation) not specified.
  Using default value basis_acc =  0.1000000E-03.
  Species N                   : Using default innermost maximum threshold i_radial=  2 for radial functions.
  Species N                   : Default cutoff onset for free atom density etc. : 0.35000000E+01 AA.
  Species N                   : Basic radial grid will be enhanced according to radial_multiplier =   1, to contain    35 grid points.
 
  Reading configuration options for species O                   .
  | Found nuclear charge :   8.0000
  | Found atomic mass :    15.9994000000000      amu
  | Found l_max for Hartree potential  :   4
  | Found cutoff potl. onset [A], width [A], scale factor :    3.50000    1.50000    1.00000
  | Threshold for basis-dependent cutoff potential is   0.100000E-03
  | Found data for basic radial integration grid :    36 points, outermost radius =    5.000 A
  | Found multiplier for basic radial grid :   1
  | Found angular grid specification: user-specified.
  | Specified grid contains     5 separate shells.
  | Check grid settings after all constraints further below.
  | Found free-atom valence shell :  2 s   2.000
  | Found free-atom valence shell :  2 p   4.000
  | No ionic wave fns used. Skipping ion_occ.
  | No ionic wave fns used. Skipping ion_occ.
  | Found hydrogenic basis function :  2 p   1.800
  | Found hydrogenic basis function :  3 d   7.600
  | Found hydrogenic basis function :  3 s   6.400
  Species O                   : Missing cutoff potential type.
  Defaulting to exp(1/x)/(1-x)^2 type cutoff potential.
  Species O : No 'logarithmic' tag. Using default grid for free atom:
  | Default logarithmic grid data [bohr] : 0.1000E-03 0.1000E+03 0.1012E+01
  Species O : On-site basis accuracy parameter (for Gram-Schmidt orthonormalisation) not specified.
  Using default value basis_acc =  0.1000000E-03.
  Species O                   : Using default innermost maximum threshold i_radial=  2 for radial functions.
  Species O                   : Default cutoff onset for free atom density etc. : 0.35000000E+01 AA.
  Species O                   : Basic radial grid will be enhanced according to radial_multiplier =   1, to contain    36 grid points.
 
  Finished reading input file 'control.in'. Consistency checks are next.
 
  MPI_IN_PLACE appears to work with this MPI implementation.
  | Keeping use_mpi_in_place .true. (see manual).
  Target number of points in a grid batch is not set. Defaulting to  100
  Method for grid partitioning is not set. Defaulting to parallel hash+maxmin partitioning.
  Batch size limit is not set. Defaulting to    200
  By default, will store active basis functions for each batch.
  If in need of memory, prune_basis_once .false. can be used to disable this option.
  communication_type for Hartree potential was not specified.
  Defaulting to calc_hartree .
  Pulay mixer: Number of initial linear mixing iterations not set.
  Defaulting to    0 iterations.
  Work space size for distributed Hartree potential not set.
  Defaulting to   0.200000E+03 MB.
  Algorithm-dependent basis array size parameters:
  | n_max_pulay                         :       10
  Presetting      1001 iterations before the initial mixing cycle
  is restarted anyway using the sc_init_iter criterion / keyword.
  Presetting a factor      1.000 between actual scf density residual
  and density convergence criterion sc_accuracy_rho below which sc_init_iter
  takes no effect.
  Geometry relaxation not requested: no relaxation will be performed.
  Handling of forces: Unphysical translation and rotation will be removed from forces.
  No accuracy limit for integral partition fn. given. Defaulting to  0.1000E-14.
  No threshold value for u(r) in integrations given. Defaulting to  0.1000E-05.
  No accuracy for occupation numbers given. Defaulting to  0.1000E-12.
  No threshold value for occupation numbers given. Defaulting to  0.0000E+00.
  No accuracy for fermi level given. Defaulting to  0.1000E-19.
  Maximum # of iterations to find E_F not set. Defaulting to  200.
  Preferred method for the eigenvalue solver ('KS_method') not specified in 'control.in'.
  Defaulting to serial version, 'lapack_fast'.
  Will not use alltoall communication since running on < 1024 CPUs.
  Threshold for basis singularities not set.
  Default threshold for basis singularities:  0.1000E-04
  partition_type (choice of integration weights) for integrals was not specified.
  | Using a version of the partition function of Stratmann and coworkers ('stratmann_smoother').
  | At each grid point, the set of atoms used to build the partition table is smoothly restricted to
  | only those atoms whose free-atom density would be non-zero at that grid point.
  Partitioning for Hartree potential was not defined. Using partition_type for integrals.
  | Adjusted default value of keyword multip_moments_threshold to:       0.10000000E-11
  | This value may affect high angular momentum components of the Hartree potential in periodic systems.
  No q(lm)/r^(l+1) cutoff set for long-range Hartree potential.
  | Using default value of  0.100000E-09 .
  | Verify using the multipole_threshold keyword.
  Defaulting to new monopole extrapolation.
  Density update method: automatic selection selected.
------------------------------------------------------------


------------------------------------------------------------
          Reading geometry description geometry.in.
------------------------------------------------------------
  Input structure read successfully.
  The structure contains       13 atoms,  and a total of         48.000 electrons.

  Input geometry:
  | No unit cell requested.
  | Atomic structure:
  |       Atom                x [A]            y [A]            z [A]
  |    1: Species C             0.00000000        0.00000000        0.00000000
  |    2: Species H             1.09300000        0.00000000        0.00000000
  |    3: Species N            -0.47961000        0.00000000       -1.41207000
  |    4: Species H            -1.49956000       -0.03910000       -1.41108000
  |    5: Species H            -0.16068000        0.85365000       -1.86559000
  |    6: Species C            -0.49584000        1.26211000        0.72868000
  |    7: Species H            -1.58789000        1.28919000        0.74431000
  |    8: Species H            -0.13407000        1.27425000        1.75947000
  |    9: Species H            -0.13407000        2.16087000        0.22380000
  |   10: Species C            -0.39425000       -1.28861000        0.74398000
  |   11: Species O            -0.10189000       -1.56493000        1.88303000
  |   12: Species O            -1.10210000       -2.13717000        0.06896000
  |   13: Species H            -1.53753000       -1.51096000       -0.53373000
  |

  | The smallest distance between any two atoms is         0.97209747 AA.
  |
  | The first atom of this pair is atom number                     12 .
  | The second atom of this pair is atom number                    13 .

  Number of empty states per atom not set in control.in - providing a guess from actual geometry.
  | Total number of empty states used during s.c.f. cycle:       29
  If you use a very high smearing, use empty_states (per atom!) in control.in to increase this value.

  Structure-dependent array size parameters: 
  | Maximum number of distinct radial functions  :       21
  | Maximum number of basis functions            :      119
  | Number of Kohn-Sham states (occupied + empty):       53
------------------------------------------------------------

------------------------------------------------------------
          Preparing all fixed parts of the calculation.
------------------------------------------------------------
  Determining machine precision:
    2.225073858507201E-308
  Setting up grids for atomic and cluster calculations.

  Creating wave function, potential, and density for free atoms.

  Species: H

  List of occupied orbitals and eigenvalues:
    n    l              occ      energy [Ha]    energy [eV]
    1    0           1.0000        -0.237589        -6.4651


  Species: C

  List of occupied orbitals and eigenvalues:
    n    l              occ      energy [Ha]    energy [eV]
    1    0           2.0000       -10.038835      -273.1706
    2    0           2.0000        -0.502696       -13.6791
    2    1           2.0000        -0.191971        -5.2238


  Species: N

  List of occupied orbitals and eigenvalues:
    n    l              occ      energy [Ha]    energy [eV]
    1    0           2.0000       -14.128000      -384.4424
    2    0           2.0000        -0.681077       -18.5330
    2    1           3.0000        -0.259788        -7.0692


  Species: O

  List of occupied orbitals and eigenvalues:
    n    l              occ      energy [Ha]    energy [eV]
    1    0           2.0000       -18.898188      -514.2459
    2    0           2.0000        -0.878505       -23.9053
    2    1           4.0000        -0.331779        -9.0282

  Creating fixed part of basis set: Ionic, confined, hydrogenic.
 
  H                    hydrogenic:
 
  List of hydrogenic basis orbitals: 
    n    l      effective z      eigenvalue [eV]  inner max. [A]     outer max. [A]     outer radius [A]   
    2    0         2.100000       -14.9728           0.193243           1.317208           4.583499
    2    1         3.500000       -41.6669           0.602369           0.602369           3.723403
 
 
  C                    hydrogenic:
 
  List of hydrogenic basis orbitals: 
    n    l      effective z      eigenvalue [eV]  inner max. [A]     outer max. [A]     outer radius [A]   
    2    1         1.700000        -9.7616           1.230570           1.230570           4.607917
    3    2         6.000000       -54.4224           0.792453           0.792453           3.883070
    2    0         4.900000       -81.6679           0.082559           0.562749           3.078220
 
 
  N                    hydrogenic:
 
  List of hydrogenic basis orbitals: 
    n    l      effective z      eigenvalue [eV]  inner max. [A]     outer max. [A]     outer radius [A]   
    2    1         1.800000       -10.9749           1.177451           1.177451           4.573712
    3    2         6.800000       -69.9026           0.704619           0.704619           3.538137
    3    0         5.800000       -50.8545           0.067388           1.191934           4.250239
 
 
  O                    hydrogenic:
 
  List of hydrogenic basis orbitals: 
    n    l      effective z      eigenvalue [eV]  inner max. [A]     outer max. [A]     outer radius [A]   
    2    1         1.800000       -10.9749           1.164242           1.164242           4.578029
    3    2         7.600000       -87.3180           0.624125           0.624125           3.251020
    3    0         6.400000       -61.9207           0.061167           1.081902           4.001998
 

  Adding cutoff potential to free-atom effective potential.
  Creating atomic-like basis functions for current effective potential.

  Species H                   :

  List of atomic basis orbitals and eigenvalues:
    n    l      energy [Ha]    energy [eV]    outer radius [A]
    1    0        -0.237589        -6.4651       4.527807


  Species C                   :

  List of atomic basis orbitals and eigenvalues:
    n    l      energy [Ha]    energy [eV]    outer radius [A]
    1    0       -10.038835      -273.1706       1.934409
    2    0        -0.502696       -13.6791       4.496620
    2    1        -0.191971        -5.2238       4.551928


  Species N                   :

  List of atomic basis orbitals and eigenvalues:
    n    l      energy [Ha]    energy [eV]    outer radius [A]
    1    0       -14.128000      -384.4424       1.637919
    2    0        -0.681077       -18.5330       4.463241
    2    1        -0.259788        -7.0692       4.518138


  Species O                   :

  List of atomic basis orbitals and eigenvalues:
    n    l      energy [Ha]    energy [eV]    outer radius [A]
    1    0       -18.898188      -514.2459       1.415765
    2    0        -0.878505       -23.9053       4.413171
    2    1        -0.331779        -9.0282       4.522403

  Assembling full basis from fixed parts.
  | Species H :   atomic orbital   1 s accepted.
  | Species H :    hydro orbital   2 s accepted.
  | Species H :    hydro orbital   2 p accepted.
  | Species C :   atomic orbital   1 s accepted.
  | Species C :    hydro orbital   2 s accepted.
  | Species C :   atomic orbital   2 s accepted.
  | Species C :   atomic orbital   2 p accepted.
  | Species C :    hydro orbital   2 p accepted.
  | Species C :    hydro orbital   3 d accepted.
  | Species N :   atomic orbital   1 s accepted.
  | Species N :    hydro orbital   3 s accepted.
  | Species N :   atomic orbital   2 s accepted.
  | Species N :   atomic orbital   2 p accepted.
  | Species N :    hydro orbital   2 p accepted.
  | Species N :    hydro orbital   3 d accepted.
  | Species O :   atomic orbital   1 s accepted.
  | Species O :    hydro orbital   3 s accepted.
  | Species O :   atomic orbital   2 s accepted.
  | Species O :   atomic orbital   2 p accepted.
  | Species O :    hydro orbital   2 p accepted.
  | Species O :    hydro orbital   3 d accepted.
 
  Basis size parameters after reduction:
  | Total number of radial functions:       21
  | Total number of basis functions :      119
 
  Per-task memory consumption for arrays in subroutine allocate_ext:
  |           5.250512MB.
  Testing on-site integration grid accuracy.
  |  Species  Function  <phi|h_atom|phi> (log., in eV)  <phi|h_atom|phi> (rad., in eV)
           1        1                 -6.4663192853                 -6.4651273558
           1        2                 13.7111246313                 13.7170609718
           1        3                 25.2673269279                 25.2674696378
           2        4               -273.1705927641               -273.1705631568
           2        5                -10.7109323383                -10.7107120029
           2        6                 17.4381822266                 17.4352413244
           2        7                 -5.2255326521                 -5.2270484734
           2        8                  8.6835629259                  8.6603288385
           2        9                 27.4952418996                 27.4953360207
           3       10               -384.4424306495               -384.4423701208
           3       11                 12.5842251816                 12.5842222903
           3       12                -15.7264628251                -15.7264433455
           3       13                 -7.0696854293                 -7.0701769954
           3       14                  8.8090390882                  8.7901077751
           3       15                 35.9586762123                 35.9588528632
           4       16               -514.2458688638               -514.2457643834
           4       17                 15.1795651126                 15.1795290741
           4       18                -21.5359799773                -21.5360846186
           4       19                 -9.0283069236                 -9.0284644067
           4       20                  8.3027758564                  8.2834874195
           4       21                 45.8339351984                 45.8338762259

  Preparing densities etc. for the partition functions (integrals / Hartree potential).

  Preparations completed.
  max(cpu_time)          :      0.148 s.
  Wall clock time (cpu1) :      0.150 s.
------------------------------------------------------------

------------------------------------------------------------
          Begin self-consistency loop: Initialization.

          Date     :  20200902, Time     :  105503.049
------------------------------------------------------------

  Initializing index lists of integration centers etc. from given atomic structure:
  | Number of centers in hartree potential         :        13
  | Number of centers in hartree multipole         :        13
  | Number of centers in electron density summation:        13
  | Number of centers in basis integrals           :        13
  | Number of centers in integrals                 :        13
  | Number of centers in hamiltonian               :        13
  Partitioning the integration grid into batches with parallel hashing+maxmin method.
  | Number of batches:      961
  | Maximal batch size:     138
  | Minimal batch size:      66
  | Average batch size:      72.472
  | Standard deviation of batch sizes:      16.845

  Integration load balanced across     1 MPI tasks.
  Work distribution over tasks is as follows:
  Task     0 has      69646 integration points.
  Initializing partition tables, free-atom densities, potentials, etc. across the integration grid (initialize_grid_storage).
  | initialize_grid_storage: Actual outermost partition radius vs. multipole_radius_free
  | (-- VB: in principle, multipole_radius_free should be larger, hence this output)
  | Species        1: Confinement radius =              4.999999999999999 AA, multipole_radius_free =              5.054417573612229 AA.
  | Species        1: outer_partition_radius set to              5.054417573612229 AA .
  | Species        2: Confinement radius =              4.999999999999999 AA, multipole_radius_free =              5.019602836301480 AA.
  | Species        2: outer_partition_radius set to              5.019602836301480 AA .
  | Species        3: Confinement radius =              4.999999999999999 AA, multipole_radius_free =              5.043624274424571 AA.
  | Species        3: outer_partition_radius set to              5.043624274424571 AA .
  | Species        4: Confinement radius =              4.999999999999999 AA, multipole_radius_free =              5.048384829883283 AA.
  | Species        4: outer_partition_radius set to              5.048384829883283 AA .
  | Original list of interatomic distances with          13 x         13 entries is created.
  | Net number of integration points:    69646
  | of which are non-zero points    :    59360
  Renormalizing the initial density to the exact electron count on the 3D integration grid.
  | Initial density: Formal number of electrons (from input files) :      48.0000000000
  | Integrated number of electrons on 3D grid     :      47.9998381082
  | Charge integration error                      :      -0.0001618918
  | Normalization factor for density and gradient :       1.0000033728
  Obtaining max. number of non-zero basis functions in each batch (get_n_compute_maxes).
  | Maximal number of non-zero basis functions:      119 in task     0
  Selecting the method for density update.
  Loop over occupied states selected for charge density update.
  Allocating        0.050 MB for KS_eigenvector
  Integrating Hamiltonian matrix: batch-based integration.
  Time summed over all CPUs for integration: real work        0.496 s, elapsed        0.496 s
  Integrating overlap matrix.
  Time summed over all CPUs for integration: real work        0.213 s, elapsed        0.213 s

  Updating Kohn-Sham eigenvalues and eigenvectors using ELSI and the ELPA eigensolver.
  Overlap matrix is nonsingular
  | Lowest eigenvalue of overlap  :  0.46E-02
  | Highest eigenvalue of overlap :  0.64E+01
  Finished singularity check of overlap matrix
  | Time :     0.002 s
  Finished Cholesky decomposition
  | Time :     0.001 s
  Finished transformation to standard eigenproblem
  | Time :     0.000 s
  Starting LAPACK eigensolver
  Finished solving standard eigenproblem
  | Time :     0.002 s
  Finished back-transformation of eigenvectors
  | Time :     0.000 s

  Obtaining occupation numbers and chemical potential using ELSI.
  | Chemical potential (Fermi level):    -9.09574273eV
  Writing Kohn-Sham eigenvalues.

  State    Occupation    Eigenvalue [Ha]    Eigenvalue [eV]
      1       2.00000         -19.007631         -517.22396
      2       2.00000         -18.977129         -516.39395
      3       2.00000         -14.246976         -387.67993
      4       2.00000         -10.166801         -276.65272
      5       2.00000         -10.141865         -275.97418
      6       2.00000         -10.131957         -275.70457
      7       2.00000          -1.181840          -32.15951
      8       2.00000          -1.101230          -29.96599
      9       2.00000          -0.993861          -27.04434
     10       2.00000          -0.858870          -23.37103
     11       2.00000          -0.756221          -20.57783
     12       2.00000          -0.680581          -18.51954
     13       2.00000          -0.648400          -17.64385
     14       2.00000          -0.598737          -16.29245
     15       2.00000          -0.569282          -15.49095
     16       2.00000          -0.564785          -15.36857
     17       2.00000          -0.555197          -15.10767
     18       2.00000          -0.539635          -14.68422
     19       2.00000          -0.526750          -14.33359
     20       2.00000          -0.488730          -13.29902
     21       2.00000          -0.474427          -12.90981
     22       2.00000          -0.428046          -11.64773
     23       2.00000          -0.404711          -11.01276
     24       2.00000          -0.391426          -10.65124
     25       0.00000          -0.150572           -4.09727
     26       0.00000          -0.076977           -2.09464
     27       0.00000          -0.029241           -0.79570
     28       0.00000          -0.019579           -0.53278
     29       0.00000           0.003988            0.10852
     30       0.00000           0.012877            0.35040
     31       0.00000           0.025040            0.68138
     32       0.00000           0.043997            1.19723
     33       0.00000           0.051386            1.39828
     34       0.00000           0.065353            1.77836
     35       0.00000           0.076356            2.07774
     36       0.00000           0.132547            3.60680
     37       0.00000           0.174106            4.73768
     38       0.00000           0.204721            5.57075
     39       0.00000           0.216322            5.88643
     40       0.00000           0.220723            6.00617
     41       0.00000           0.231456            6.29824
     42       0.00000           0.263169            7.16119
     43       0.00000           0.280579            7.63495
     44       0.00000           0.305942            8.32509
     45       0.00000           0.327163            8.90255
     46       0.00000           0.348351            9.47912
     47       0.00000           0.378730           10.30577
     48       0.00000           0.387018           10.53131
     49       0.00000           0.421150           11.46008
     50       0.00000           0.496916           13.52178
     51       0.00000           0.515624           14.03085
     52       0.00000           0.554617           15.09189
     53       0.00000           0.584100           15.89417

  Highest occupied state (VBM) at    -10.65123696 eV
  | Occupation number:      2.00000000

  Lowest unoccupied state (CBM) at    -4.09726993 eV
  | Occupation number:      0.00000000

  Overall HOMO-LUMO gap:      6.55396703 eV.
  Calculating total energy contributions from superposition of free atom densities.

  Total energy components:
  | Sum of eigenvalues            :        -188.87017097 Ha       -5139.41884293 eV
  | XC energy correction          :         -41.80413423 Ha       -1137.54837013 eV
  | XC potential correction       :          53.74135101 Ha        1462.37656575 eV
  | Free-atom electrostatic energy:        -146.82608937 Ha       -3995.34117258 eV
  | Hartree energy correction     :           0.00000000 Ha           0.00000000 eV
  | vdW energy correction         :           0.00000000 Ha           0.00000000 eV
  | Entropy correction            :           0.00000000 Ha           0.00000000 eV
  | ---------------------------
  | Total energy                  :        -323.75904357 Ha       -8809.93181989 eV
  | Total energy, T -> 0          :        -323.75904357 Ha       -8809.93181989 eV  <-- do not rely on this value for anything but (periodic) metals
  | Electronic free energy        :        -323.75904357 Ha       -8809.93181989 eV

  Derived energy quantities:
  | Kinetic energy                :         320.52758774 Ha        8721.99943282 eV
  | Electrostatic energy          :        -602.48249708 Ha      -16394.38288258 eV
  | Energy correction for multipole
  | error in Hartree potential    :           0.00000000 Ha           0.00000000 eV
  | Sum of eigenvalues per atom                           :        -395.33991099 eV
  | Total energy (T->0) per atom                          :        -677.68706307 eV  <-- do not rely on this value for anything but (periodic) metals
  | Electronic free energy per atom                       :        -677.68706307 eV
  Initialize hartree_potential_storage
  Max. number of atoms included in rho_multipole:           13

  End scf initialization - timings             :  max(cpu_time)    wall_clock(cpu1)
  | Time for scf. initialization               :        1.150 s           1.159 s
  | Boundary condition initialization          :        0.000 s           0.000 s
  | Integration                                :        0.709 s           0.710 s
  | Solution of K.-S. eqns.                    :        0.004 s           0.004 s
  | Grid partitioning                          :        0.111 s           0.118 s
  | Preloading free-atom quantities on grid    :        0.002 s           0.003 s
  | Free-atom superposition energy             :        0.085 s           0.085 s
  | Total energy evaluation                    :        0.000 s           0.000 s

  Partial memory accounting:
  | Current value for overall tracked memory usage on task 0  :           0.165 MB
  | Peak value for overall tracked memory usage on task 0     :           0.676 MB after allocating wave
  | Largest tracked array allocation on task 0 so far         :           0.131 MB  when allocating H_times_psi
  Note:  These values currently only include a subset of arrays which are explicitly tracked.
  The "true" memory usage will be greater.
------------------------------------------------------------

------------------------------------------------------------
          Begin self-consistency iteration #    1

  Date     :  20200902, Time     :  105504.208
------------------------------------------------------------
  Evaluating new KS density.
  Integration grid: deviation in total charge (<rho> - N_e) =   1.421085E-14
  Pulay mixing of updated and previous charge densities.

  Evaluating partitioned Hartree potential by multipole expansion.
  | Analytical far-field extrapolation by fixed multipoles:
  | Hartree multipole sum: apparent total charge =  -0.267510E-03
  Summing up the Hartree potential.
  Time summed over all CPUs for potential: real work        0.282 s, elapsed        0.282 s
  | RMS charge density error from multipole expansion :   0.591387E-02

  Integrating Hamiltonian matrix: batch-based integration.
  Time summed over all CPUs for integration: real work        0.495 s, elapsed        0.495 s

  Updating Kohn-Sham eigenvalues and eigenvectors using ELSI and the ELPA eigensolver.
  Finished Cholesky decomposition
  | Time :     0.000 s
  Finished transformation to standard eigenproblem
  | Time :     0.000 s
  Starting LAPACK eigensolver
  Finished solving standard eigenproblem
  | Time :     0.002 s
  Finished back-transformation of eigenvectors
  | Time :     0.000 s

  Obtaining occupation numbers and chemical potential using ELSI.
  | Chemical potential (Fermi level):    -8.03563312eV
  Writing Kohn-Sham eigenvalues.

  State    Occupation    Eigenvalue [Ha]    Eigenvalue [eV]
      1       2.00000         -18.905220         -514.43720
      2       2.00000         -18.830368         -512.40037
      3       2.00000         -14.108834         -383.92091
      4       2.00000         -10.113904         -275.21332
      5       2.00000         -10.068136         -273.96793
      6       2.00000         -10.034369         -273.04908
      7       2.00000          -1.131853          -30.79928
      8       2.00000          -1.034907          -28.16125
      9       2.00000          -0.931811          -25.35586
     10       2.00000          -0.797232          -21.69378
     11       2.00000          -0.705816          -19.20623
     12       2.00000          -0.635933          -17.30461
     13       2.00000          -0.600111          -16.32985
     14       2.00000          -0.539135          -14.67062
     15       2.00000          -0.514600          -14.00297
     16       2.00000          -0.510278          -13.88537
     17       2.00000          -0.489571          -13.32189
     18       2.00000          -0.482795          -13.13752
     19       2.00000          -0.468183          -12.73991
     20       2.00000          -0.436727          -11.88395
     21       2.00000          -0.418504          -11.38808
     22       2.00000          -0.364986           -9.93176
     23       2.00000          -0.333513           -9.07534
     24       2.00000          -0.320143           -8.71154
     25       0.00000          -0.111938           -3.04598
     26       0.00000          -0.057557           -1.56621
     27       0.00000           0.005495            0.14951
     28       0.00000           0.013498            0.36731
     29       0.00000           0.036565            0.99500
     30       0.00000           0.038407            1.04512
     31       0.00000           0.063818            1.73658
     32       0.00000           0.080914            2.20178
     33       0.00000           0.086740            2.36033
     34       0.00000           0.095316            2.59369
     35       0.00000           0.111852            3.04364
     36       0.00000           0.162056            4.40975
     37       0.00000           0.199130            5.41860
     38       0.00000           0.235299            6.40281
     39       0.00000           0.245720            6.68637
     40       0.00000           0.253403            6.89543
     41       0.00000           0.262433            7.14117
     42       0.00000           0.297040            8.08287
     43       0.00000           0.311218            8.46868
     44       0.00000           0.344012            9.36104
     45       0.00000           0.364345            9.91433
     46       0.00000           0.384800           10.47093
     47       0.00000           0.420358           11.43853
     48       0.00000           0.425054           11.56631
     49       0.00000           0.456934           12.43380
     50       0.00000           0.528898           14.39204
     51       0.00000           0.549561           14.95431
     52       0.00000           0.583797           15.88592
     53       0.00000           0.619938           16.86936

  Highest occupied state (VBM) at     -8.71153799 eV
  | Occupation number:      2.00000000

  Lowest unoccupied state (CBM) at    -3.04598013 eV
  | Occupation number:      0.00000000

  Overall HOMO-LUMO gap:      5.66555786 eV.

  Total energy components:
  | Sum of eigenvalues            :        -185.55385356 Ha       -5049.17725476 eV
  | XC energy correction          :         -42.12782742 Ha       -1146.35650994 eV
  | XC potential correction       :          54.16223459 Ha        1473.82939074 eV
  | Free-atom electrostatic energy:        -146.82608937 Ha       -3995.34117258 eV
  | Hartree energy correction     :          -3.23406074 Ha         -88.00327040 eV
  | vdW energy correction         :           0.00000000 Ha           0.00000000 eV
  | Entropy correction            :           0.00000000 Ha           0.00000000 eV
  | ---------------------------
  | Total energy                  :        -323.57959651 Ha       -8805.04881694 eV
  | Total energy, T -> 0          :        -323.57959651 Ha       -8805.04881694 eV  <-- do not rely on this value for anything but (periodic) metals
  | Electronic free energy        :        -323.57959651 Ha       -8805.04881694 eV

  Derived energy quantities:
  | Kinetic energy                :         322.29751364 Ha        8770.16156696 eV
  | Electrostatic energy          :        -603.74928273 Ha      -16428.85387396 eV
  | Energy correction for multipole
  | error in Hartree potential    :           0.01159092 Ha           0.31540501 eV
  | Sum of eigenvalues per atom                           :        -388.39825037 eV
  | Total energy (T->0) per atom                          :        -677.31144746 eV  <-- do not rely on this value for anything but (periodic) metals
  | Electronic free energy per atom                       :        -677.31144746 eV

  Self-consistency convergence accuracy:
  | Change of charge density      :  0.5795E+00
  | Change of sum of eigenvalues  :  0.9024E+02 eV
  | Change of total energy        :  0.4883E+01 eV

  End self-consistency iteration #     1       :  max(cpu_time)    wall_clock(cpu1)
  | Time for this iteration                    :        1.189 s           1.191 s
  | Charge density update                      :        0.395 s           0.396 s
  | Density mixing                             :        0.005 s           0.005 s
  | Hartree multipole update                   :        0.009 s           0.009 s
  | Hartree multipole summation                :        0.283 s           0.284 s
  | Integration                                :        0.494 s           0.495 s
  | Solution of K.-S. eqns.                    :        0.002 s           0.002 s
  | Total energy evaluation                    :        0.000 s           0.000 s

  Partial memory accounting:
  | Current value for overall tracked memory usage on task 0  :           0.165 MB
  | Peak value for overall tracked memory usage on task 0     :           0.691 MB after allocating gradient_basis_wave
  | Largest tracked array allocation on task 0 so far         :           0.394 MB  when allocating gradient_basis_wave
  Note:  These values currently only include a subset of arrays which are explicitly tracked.
  The "true" memory usage will be greater.
------------------------------------------------------------

------------------------------------------------------------
          Begin self-consistency iteration #    2

  Date     :  20200902, Time     :  105505.400
------------------------------------------------------------
  Evaluating new KS density.
  Integration grid: deviation in total charge (<rho> - N_e) =   7.105427E-15
  Pulay mixing of updated and previous charge densities.

  Evaluating partitioned Hartree potential by multipole expansion.
  | Analytical far-field extrapolation by fixed multipoles:
  | Hartree multipole sum: apparent total charge =  -0.401448E-03
  Summing up the Hartree potential.
  Time summed over all CPUs for potential: real work        0.282 s, elapsed        0.282 s
  | RMS charge density error from multipole expansion :   0.140462E-01

  Integrating Hamiltonian matrix: batch-based integration.
  Time summed over all CPUs for integration: real work        0.495 s, elapsed        0.495 s

  Updating Kohn-Sham eigenvalues and eigenvectors using ELSI and the ELPA eigensolver.
  Finished Cholesky decomposition
  | Time :     0.000 s
  Finished transformation to standard eigenproblem
  | Time :     0.000 s
  Starting LAPACK eigensolver
  Finished solving standard eigenproblem
  | Time :     0.001 s
  Finished back-transformation of eigenvectors
  | Time :     0.000 s

  Obtaining occupation numbers and chemical potential using ELSI.
  | Chemical potential (Fermi level):    -2.69776754eV
  Highest occupied state (VBM) at     -6.80784090 eV
  | Occupation number:      2.00000000

  Lowest unoccupied state (CBM) at    -1.73257272 eV
  | Occupation number:      0.00000000

  Overall HOMO-LUMO gap:      5.07526818 eV.

  Checking to see if s.c.f. parameters should be adjusted.

  Total energy components:
  | Sum of eigenvalues            :        -182.07763073 Ha       -4954.58441862 eV
  | XC energy correction          :         -42.48065234 Ha       -1155.95736452 eV
  | XC potential correction       :          54.61935691 Ha        1486.26832213 eV
  | Free-atom electrostatic energy:        -146.82608937 Ha       -3995.34117258 eV
  | Hartree energy correction     :          -6.73711658 Ha        -183.32626964 eV
  | vdW energy correction         :           0.00000000 Ha           0.00000000 eV
  | Entropy correction            :           0.00000000 Ha           0.00000000 eV
  | ---------------------------
  | Total energy                  :        -323.50213210 Ha       -8802.94090324 eV
  | Total energy, T -> 0          :        -323.50213210 Ha       -8802.94090324 eV  <-- do not rely on this value for anything but (periodic) metals
  | Electronic free energy        :        -323.50213210 Ha       -8802.94090324 eV

  Derived energy quantities:
  | Kinetic energy                :         323.59633128 Ha        8805.50419329 eV
  | Electrostatic energy          :        -604.61781105 Ha      -16452.48773201 eV
  | Energy correction for multipole
  | error in Hartree potential    :           0.02544802 Ha           0.69247582 eV
  | Sum of eigenvalues per atom                           :        -381.12187836 eV
  | Total energy (T->0) per atom                          :        -677.14930025 eV  <-- do not rely on this value for anything but (periodic) metals
  | Electronic free energy per atom                       :        -677.14930025 eV

  Self-consistency convergence accuracy:
  | Change of charge density      :  0.3621E+00
  | Change of sum of eigenvalues  :  0.9459E+02 eV
  | Change of total energy        :  0.2108E+01 eV

  End self-consistency iteration #     2       :  max(cpu_time)    wall_clock(cpu1)
  | Time for this iteration                    :        1.182 s           1.184 s
  | Charge density update                      :        0.387 s           0.388 s
  | Density mixing                             :        0.007 s           0.007 s
  | Hartree multipole update                   :        0.009 s           0.008 s
  | Hartree multipole summation                :        0.283 s           0.283 s
  | Integration                                :        0.495 s           0.496 s
  | Solution of K.-S. eqns.                    :        0.002 s           0.002 s
  | Total energy evaluation                    :        0.000 s           0.000 s

  Partial memory accounting:
  | Current value for overall tracked memory usage on task 0  :           0.166 MB
  | Peak value for overall tracked memory usage on task 0     :           0.691 MB after allocating gradient_basis_wave
  | Largest tracked array allocation on task 0 so far         :           0.394 MB  when allocating gradient_basis_wave
  Note:  These values currently only include a subset of arrays which are explicitly tracked.
  The "true" memory usage will be greater.
------------------------------------------------------------

------------------------------------------------------------
          Begin self-consistency iteration #    3

  Date     :  20200902, Time     :  105506.587
------------------------------------------------------------
  Evaluating new KS density.
  Integration grid: deviation in total charge (<rho> - N_e) =   6.394885E-14
  Pulay mixing of updated and previous charge densities.

  Evaluating partitioned Hartree potential by multipole expansion.
  | Analytical far-field extrapolation by fixed multipoles:
  | Hartree multipole sum: apparent total charge =  -0.496270E-03
  Summing up the Hartree potential.
  Time summed over all CPUs for potential: real work        0.282 s, elapsed        0.282 s
  | RMS charge density error from multipole expansion :   0.222356E-01

  Integrating Hamiltonian matrix: batch-based integration.
  Time summed over all CPUs for integration: real work        0.495 s, elapsed        0.495 s

  Updating Kohn-Sham eigenvalues and eigenvectors using ELSI and the ELPA eigensolver.
  Finished Cholesky decomposition
  | Time :     0.000 s
  Finished transformation to standard eigenproblem
  | Time :     0.000 s
  Starting LAPACK eigensolver
  Finished solving standard eigenproblem
  | Time :     0.001 s
  Finished back-transformation of eigenvectors
  | Time :     0.000 s

  Obtaining occupation numbers and chemical potential using ELSI.
  | Chemical potential (Fermi level):    -2.12181349eV
  Highest occupied state (VBM) at     -6.17916908 eV
  | Occupation number:      2.00000000

  Lowest unoccupied state (CBM) at    -1.04041670 eV
  | Occupation number:      0.00000000

  Overall HOMO-LUMO gap:      5.13875238 eV.

  Total energy components:
  | Sum of eigenvalues            :        -180.78198236 Ha       -4919.32803273 eV
  | XC energy correction          :         -42.63251655 Ha       -1160.08980002 eV
  | XC potential correction       :          54.81271101 Ha        1491.52975481 eV
  | Free-atom electrostatic energy:        -146.82608937 Ha       -3995.34117258 eV
  | Hartree energy correction     :          -8.06191854 Ha        -219.37596525 eV
  | vdW energy correction         :           0.00000000 Ha           0.00000000 eV
  | Entropy correction            :           0.00000000 Ha           0.00000000 eV
  | ---------------------------
  | Total energy                  :        -323.48979582 Ha       -8802.60521578 eV
  | Total energy, T -> 0          :        -323.48979582 Ha       -8802.60521578 eV  <-- do not rely on this value for anything but (periodic) metals
  | Electronic free energy        :        -323.48979582 Ha       -8802.60521578 eV

  Derived energy quantities:
  | Kinetic energy                :         323.19945362 Ha        8794.70460262 eV
  | Electrostatic energy          :        -604.05673289 Ha      -16437.22001838 eV
  | Energy correction for multipole
  | error in Hartree potential    :           0.03603952 Ha           0.98068525 eV
  | Sum of eigenvalues per atom                           :        -378.40984867 eV
  | Total energy (T->0) per atom                          :        -677.12347814 eV  <-- do not rely on this value for anything but (periodic) metals
  | Electronic free energy per atom                       :        -677.12347814 eV

  Self-consistency convergence accuracy:
  | Change of charge density      :  0.2034E+00
  | Change of sum of eigenvalues  :  0.3526E+02 eV
  | Change of total energy        :  0.3357E+00 eV

  End self-consistency iteration #     3       :  max(cpu_time)    wall_clock(cpu1)
  | Time for this iteration                    :        1.184 s           1.186 s
  | Charge density update                      :        0.388 s           0.388 s
  | Density mixing                             :        0.008 s           0.008 s
  | Hartree multipole update                   :        0.009 s           0.009 s
  | Hartree multipole summation                :        0.282 s           0.283 s
  | Integration                                :        0.495 s           0.495 s
  | Solution of K.-S. eqns.                    :        0.002 s           0.003 s
  | Total energy evaluation                    :        0.000 s           0.000 s

  Partial memory accounting:
  | Current value for overall tracked memory usage on task 0  :           0.166 MB
  | Peak value for overall tracked memory usage on task 0     :           0.692 MB after allocating gradient_basis_wave
  | Largest tracked array allocation on task 0 so far         :           0.394 MB  when allocating gradient_basis_wave
  Note:  These values currently only include a subset of arrays which are explicitly tracked.
  The "true" memory usage will be greater.
------------------------------------------------------------

------------------------------------------------------------
          Begin self-consistency iteration #    4

  Date     :  20200902, Time     :  105507.774
------------------------------------------------------------
  Evaluating new KS density.
  Integration grid: deviation in total charge (<rho> - N_e) =   2.842171E-14
  Pulay mixing of updated and previous charge densities.

  Evaluating partitioned Hartree potential by multipole expansion.
  | Analytical far-field extrapolation by fixed multipoles:
  | Hartree multipole sum: apparent total charge =  -0.527230E-03
  Summing up the Hartree potential.
  Time summed over all CPUs for potential: real work        0.282 s, elapsed        0.282 s
  | RMS charge density error from multipole expansion :   0.257647E-01

  Integrating Hamiltonian matrix: batch-based integration.
  Time summed over all CPUs for integration: real work        0.496 s, elapsed        0.496 s

  Updating Kohn-Sham eigenvalues and eigenvectors using ELSI and the ELPA eigensolver.
  Finished Cholesky decomposition
  | Time :     0.000 s
  Finished transformation to standard eigenproblem
  | Time :     0.000 s
  Starting LAPACK eigensolver
  Finished solving standard eigenproblem
  | Time :     0.002 s
  Finished back-transformation of eigenvectors
  | Time :     0.000 s

  Obtaining occupation numbers and chemical potential using ELSI.
  | Chemical potential (Fermi level):    -2.02960927eV
  Highest occupied state (VBM) at     -5.95354495 eV
  | Occupation number:      2.00000000

  Lowest unoccupied state (CBM) at    -0.96639981 eV
  | Occupation number:      0.00000000

  Overall HOMO-LUMO gap:      4.98714514 eV.

  Total energy components:
  | Sum of eigenvalues            :        -180.68430280 Ha       -4916.67003648 eV
  | XC energy correction          :         -42.66925758 Ha       -1161.08957438 eV
  | XC potential correction       :          54.85866802 Ha        1492.78030865 eV
  | Free-atom electrostatic energy:        -146.82608937 Ha       -3995.34117258 eV
  | Hartree energy correction     :          -8.16781406 Ha        -222.25752880 eV
  | vdW energy correction         :           0.00000000 Ha           0.00000000 eV
  | Entropy correction            :           0.00000000 Ha           0.00000000 eV
  | ---------------------------
  | Total energy                  :        -323.48879579 Ha       -8802.57800360 eV
  | Total energy, T -> 0          :        -323.48879579 Ha       -8802.57800360 eV  <-- do not rely on this value for anything but (periodic) metals
  | Electronic free energy        :        -323.48879579 Ha       -8802.57800360 eV

  Derived energy quantities:
  | Kinetic energy                :         322.80328598 Ha        8783.92433268 eV
  | Electrostatic energy          :        -603.62282419 Ha      -16425.41276190 eV
  | Energy correction for multipole
  | error in Hartree potential    :           0.04014309 Ha           1.09234915 eV
  | Sum of eigenvalues per atom                           :        -378.20538742 eV
  | Total energy (T->0) per atom                          :        -677.12138489 eV  <-- do not rely on this value for anything but (periodic) metals
  | Electronic free energy per atom                       :        -677.12138489 eV

  Self-consistency convergence accuracy:
  | Change of charge density      :  0.6650E-01
  | Change of sum of eigenvalues  :  0.2658E+01 eV
  | Change of total energy        :  0.2721E-01 eV

  End self-consistency iteration #     4       :  max(cpu_time)    wall_clock(cpu1)
  | Time for this iteration                    :        1.185 s           1.187 s
  | Charge density update                      :        0.387 s           0.388 s
  | Density mixing                             :        0.009 s           0.009 s
  | Hartree multipole update                   :        0.009 s           0.009 s
  | Hartree multipole summation                :        0.282 s           0.283 s
  | Integration                                :        0.495 s           0.496 s
  | Solution of K.-S. eqns.                    :        0.002 s           0.002 s
  | Total energy evaluation                    :        0.000 s           0.000 s

  Partial memory accounting:
  | Current value for overall tracked memory usage on task 0  :           0.166 MB
  | Peak value for overall tracked memory usage on task 0     :           0.692 MB after allocating gradient_basis_wave
  | Largest tracked array allocation on task 0 so far         :           0.394 MB  when allocating gradient_basis_wave
  Note:  These values currently only include a subset of arrays which are explicitly tracked.
  The "true" memory usage will be greater.
------------------------------------------------------------

------------------------------------------------------------
          Begin self-consistency iteration #    5

  Date     :  20200902, Time     :  105508.964
------------------------------------------------------------
  Evaluating new KS density.
  Integration grid: deviation in total charge (<rho> - N_e) =   9.237056E-14
  Pulay mixing of updated and previous charge densities.

  Evaluating partitioned Hartree potential by multipole expansion.
  | Analytical far-field extrapolation by fixed multipoles:
  | Hartree multipole sum: apparent total charge =  -0.522105E-03
  Summing up the Hartree potential.
  Time summed over all CPUs for potential: real work        0.282 s, elapsed        0.282 s
  | RMS charge density error from multipole expansion :   0.254945E-01

  Integrating Hamiltonian matrix: batch-based integration.
  Time summed over all CPUs for integration: real work        0.495 s, elapsed        0.495 s

  Updating Kohn-Sham eigenvalues and eigenvectors using ELSI and the ELPA eigensolver.
  Finished Cholesky decomposition
  | Time :     0.000 s
  Finished transformation to standard eigenproblem
  | Time :     0.000 s
  Starting LAPACK eigensolver
  Finished solving standard eigenproblem
  | Time :     0.001 s
  Finished back-transformation of eigenvectors
  | Time :     0.000 s

  Obtaining occupation numbers and chemical potential using ELSI.
  | Chemical potential (Fermi level):    -2.07521262eV
  Highest occupied state (VBM) at     -6.06208294 eV
  | Occupation number:      2.00000000

  Lowest unoccupied state (CBM) at    -1.02958518 eV
  | Occupation number:      0.00000000

  Overall HOMO-LUMO gap:      5.03249775 eV.

  Total energy components:
  | Sum of eigenvalues            :        -180.82615334 Ha       -4920.52998628 eV
  | XC energy correction          :         -42.65060548 Ha       -1160.58202498 eV
  | XC potential correction       :          54.83450108 Ha        1492.12269283 eV
  | Free-atom electrostatic energy:        -146.82608937 Ha       -3995.34117258 eV
  | Hartree energy correction     :          -8.02013618 Ha        -218.23900928 eV
  | vdW energy correction         :           0.00000000 Ha           0.00000000 eV
  | Entropy correction            :           0.00000000 Ha           0.00000000 eV
  | ---------------------------
  | Total energy                  :        -323.48848330 Ha       -8802.56950030 eV
  | Total energy, T -> 0          :        -323.48848330 Ha       -8802.56950030 eV  <-- do not rely on this value for anything but (periodic) metals
  | Electronic free energy        :        -323.48848330 Ha       -8802.56950030 eV

  Derived energy quantities:
  | Kinetic energy                :         322.72988464 Ha        8781.92698066 eV
  | Electrostatic energy          :        -603.56776246 Ha      -16423.91445598 eV
  | Energy correction for multipole
  | error in Hartree potential    :           0.03957832 Ha           1.07698076 eV
  | Sum of eigenvalues per atom                           :        -378.50230664 eV
  | Total energy (T->0) per atom                          :        -677.12073079 eV  <-- do not rely on this value for anything but (periodic) metals
  | Electronic free energy per atom                       :        -677.12073079 eV

  Self-consistency convergence accuracy:
  | Change of charge density      :  0.2280E-01
  | Change of sum of eigenvalues  : -0.3860E+01 eV
  | Change of total energy        :  0.8503E-02 eV

  End self-consistency iteration #     5       :  max(cpu_time)    wall_clock(cpu1)
  | Time for this iteration                    :        1.187 s           1.189 s
  | Charge density update                      :        0.388 s           0.388 s
  | Density mixing                             :        0.011 s           0.011 s
  | Hartree multipole update                   :        0.009 s           0.009 s
  | Hartree multipole summation                :        0.282 s           0.283 s
  | Integration                                :        0.495 s           0.495 s
  | Solution of K.-S. eqns.                    :        0.002 s           0.003 s
  | Total energy evaluation                    :        0.000 s           0.000 s

  Partial memory accounting:
  | Current value for overall tracked memory usage on task 0  :           0.166 MB
  | Peak value for overall tracked memory usage on task 0     :           0.692 MB after allocating gradient_basis_wave
  | Largest tracked array allocation on task 0 so far         :           0.394 MB  when allocating gradient_basis_wave
  Note:  These values currently only include a subset of arrays which are explicitly tracked.
  The "true" memory usage will be greater.
------------------------------------------------------------

------------------------------------------------------------
          Begin self-consistency iteration #    6

  Date     :  20200902, Time     :  105510.154
------------------------------------------------------------
  Evaluating new KS density.
  Integration grid: deviation in total charge (<rho> - N_e) =   7.105427E-15
  Pulay mixing of updated and previous charge densities.

  Evaluating partitioned Hartree potential by multipole expansion.
  | Analytical far-field extrapolation by fixed multipoles:
  | Hartree multipole sum: apparent total charge =  -0.523233E-03
  Summing up the Hartree potential.
  Time summed over all CPUs for potential: real work        0.282 s, elapsed        0.282 s
  | RMS charge density error from multipole expansion :   0.257734E-01

  Integrating Hamiltonian matrix: batch-based integration.
  Time summed over all CPUs for integration: real work        0.495 s, elapsed        0.495 s

  Updating Kohn-Sham eigenvalues and eigenvectors using ELSI and the ELPA eigensolver.
  Finished Cholesky decomposition
  | Time :     0.000 s
  Finished transformation to standard eigenproblem
  | Time :     0.000 s
  Starting LAPACK eigensolver
  Finished solving standard eigenproblem
  | Time :     0.002 s
  Finished back-transformation of eigenvectors
  | Time :     0.000 s

  Obtaining occupation numbers and chemical potential using ELSI.
  | Chemical potential (Fermi level):    -2.08674319eV
  Highest occupied state (VBM) at     -6.07612578 eV
  | Occupation number:      2.00000000

  Lowest unoccupied state (CBM) at    -1.06433080 eV
  | Occupation number:      0.00000000

  Overall HOMO-LUMO gap:      5.01179498 eV.

  Total energy components:
  | Sum of eigenvalues            :        -180.87946639 Ha       -4921.98070813 eV
  | XC energy correction          :         -42.64362640 Ha       -1160.39211448 eV
  | XC potential correction       :          54.82542221 Ha        1491.87564404 eV
  | Free-atom electrostatic energy:        -146.82608937 Ha       -3995.34117258 eV
  | Hartree energy correction     :          -7.96464839 Ha        -216.72910986 eV
  | vdW energy correction         :           0.00000000 Ha           0.00000000 eV
  | Entropy correction            :           0.00000000 Ha           0.00000000 eV
  | ---------------------------
  | Total energy                  :        -323.48840835 Ha       -8802.56746101 eV
  | Total energy, T -> 0          :        -323.48840835 Ha       -8802.56746101 eV  <-- do not rely on this value for anything but (periodic) metals
  | Electronic free energy        :        -323.48840835 Ha       -8802.56746101 eV

  Derived energy quantities:
  | Kinetic energy                :         322.63954231 Ha        8779.46864074 eV
  | Electrostatic energy          :        -603.48432426 Ha      -16421.64398728 eV
  | Energy correction for multipole
  | error in Hartree potential    :           0.03969010 Ha           1.08002259 eV
  | Sum of eigenvalues per atom                           :        -378.61390063 eV
  | Total energy (T->0) per atom                          :        -677.12057392 eV  <-- do not rely on this value for anything but (periodic) metals
  | Electronic free energy per atom                       :        -677.12057392 eV

  Self-consistency convergence accuracy:
  | Change of charge density      :  0.1092E-01
  | Change of sum of eigenvalues  : -0.1451E+01 eV
  | Change of total energy        :  0.2039E-02 eV

  End self-consistency iteration #     6       :  max(cpu_time)    wall_clock(cpu1)
  | Time for this iteration                    :        1.188 s           1.189 s
  | Charge density update                      :        0.387 s           0.387 s
  | Density mixing                             :        0.012 s           0.013 s
  | Hartree multipole update                   :        0.009 s           0.008 s
  | Hartree multipole summation                :        0.283 s           0.283 s
  | Integration                                :        0.495 s           0.496 s
  | Solution of K.-S. eqns.                    :        0.002 s           0.002 s
  | Total energy evaluation                    :        0.000 s           0.000 s

  Partial memory accounting:
  | Current value for overall tracked memory usage on task 0  :           0.166 MB
  | Peak value for overall tracked memory usage on task 0     :           0.692 MB after allocating gradient_basis_wave
  | Largest tracked array allocation on task 0 so far         :           0.394 MB  when allocating gradient_basis_wave
  Note:  These values currently only include a subset of arrays which are explicitly tracked.
  The "true" memory usage will be greater.
------------------------------------------------------------

------------------------------------------------------------
          Begin self-consistency iteration #    7

  Date     :  20200902, Time     :  105511.345
------------------------------------------------------------
  Evaluating new KS density.
  Integration grid: deviation in total charge (<rho> - N_e) =   2.842171E-14
  Pulay mixing of updated and previous charge densities.

  Evaluating partitioned Hartree potential by multipole expansion.
  | Analytical far-field extrapolation by fixed multipoles:
  | Hartree multipole sum: apparent total charge =  -0.524392E-03
  Summing up the Hartree potential.
  Time summed over all CPUs for potential: real work        0.282 s, elapsed        0.282 s
  | RMS charge density error from multipole expansion :   0.259136E-01

  Integrating Hamiltonian matrix: batch-based integration.
  Time summed over all CPUs for integration: real work        0.495 s, elapsed        0.495 s

  Updating Kohn-Sham eigenvalues and eigenvectors using ELSI and the ELPA eigensolver.
  Finished Cholesky decomposition
  | Time :     0.000 s
  Finished transformation to standard eigenproblem
  | Time :     0.000 s
  Starting LAPACK eigensolver
  Finished solving standard eigenproblem
  | Time :     0.002 s
  Finished back-transformation of eigenvectors
  | Time :     0.000 s

[...]
  |   Hirshfeld dipole moment :      0.06071019
  |   Hirshfeld second moments:     -0.00054679      -0.02664643      -0.01750531
  |                                 -0.02664643      -0.02253924       0.00874533
  |                                 -0.01750531       0.00874533      -0.01778889
  ----------------------------------------------------------------------
  | Atom    12: O
  |   Hirshfeld charge        :     -0.14035405
  |   Free atom volume        :     23.61338643
  |   Hirshfeld volume        :     21.13481246
  |   Hirshfeld dipole vector :      0.01231758       0.03701540      -0.00534830
  |   Hirshfeld dipole moment :      0.03937597
  |   Hirshfeld second moments:      0.07375081      -0.01859062       0.02569642
  |                                 -0.01859062       0.03364964       0.00385810
  |                                  0.02569642       0.00385810       0.05508998
  ----------------------------------------------------------------------
  | Atom    13: H
  |   Hirshfeld charge        :      0.14610386
  |   Free atom volume        :      9.95071624
  |   Hirshfeld volume        :      6.90586456
  |   Hirshfeld dipole vector :     -0.07536273       0.04068796      -0.04847957
  |   Hirshfeld dipole moment :      0.09841402
  |   Hirshfeld second moments:      0.10828319      -0.00865364       0.01312659
  |                                 -0.00865364       0.08053583       0.02298709
  |                                  0.01312659       0.02298709       0.08973477
  ----------------------------------------------------------------------


  Total energy components:
  | Sum of eigenvalues            :        -180.87166733 Ha       -4921.76848483 eV
  | XC energy correction          :         -42.64153855 Ha       -1160.33530123 eV
  | XC potential correction       :          54.82278570 Ha        1491.80390091 eV
  | Free-atom electrostatic energy:        -146.82608937 Ha       -3995.34117258 eV
  | Hartree energy correction     :          -7.97187748 Ha        -216.92582334 eV
  | vdW energy correction         :          -0.00331729 Ha          -0.09026792 eV
  | Entropy correction            :           0.00000000 Ha           0.00000000 eV
  | ---------------------------
  | Total energy                  :        -323.49170433 Ha       -8802.65714900 eV
  | Total energy, T -> 0          :        -323.49170433 Ha       -8802.65714900 eV  <-- do not rely on this value for anything but (periodic) metals
  | Electronic free energy        :        -323.49170433 Ha       -8802.65714900 eV

  Derived energy quantities:
  | Kinetic energy                :         322.60299749 Ha        8778.47420553 eV
  | Electrostatic energy          :        -603.44984598 Ha      -16420.70578538 eV
  | Energy correction for multipole
  | error in Hartree potential    :           0.03977918 Ha           1.08244658 eV
  | Sum of eigenvalues per atom                           :        -378.59757576 eV
  | Total energy (T->0) per atom                          :        -677.12747300 eV  <-- do not rely on this value for anything but (periodic) metals
  | Electronic free energy per atom                       :        -677.12747300 eV

  atomic forces [eV/Ang]:
  -----------------------
  atom #    1
   Hellmann-Feynman              :  0.963795E-01  0.774632E+00  0.154892E+01
   Ionic forces                  :  0.000000E+00  0.000000E+00  0.000000E+00
   Multipole                     : -0.935867E-01  0.324145E+00 -0.256013E+00
   Pulay + GGA                   : -0.579393E+00 -0.319226E+00 -0.157242E+01
   Van der Waals                 :  0.245930E-02  0.883456E-03 -0.121337E-02
   ----------------------------------------------------------------
   Total forces(   1)            : -0.574141E+00  0.780434E+00 -0.280726E+00
  atom #    2
   Hellmann-Feynman              :  0.242894E+00 -0.382831E-01 -0.144507E+00
   Ionic forces                  :  0.000000E+00  0.000000E+00  0.000000E+00
   Multipole                     :  0.185750E+00  0.153070E-01 -0.149854E-01
   Pulay + GGA                   : -0.161275E+00 -0.108114E-01  0.296567E-01
   Van der Waals                 :  0.272892E-02 -0.685801E-02 -0.593851E-02
   ----------------------------------------------------------------
   Total forces(   2)            :  0.270098E+00 -0.406454E-01 -0.135774E+00
  atom #    3
   Hellmann-Feynman              :  0.468068E+01 -0.101678E+02 -0.415768E+01
   Ionic forces                  :  0.000000E+00  0.000000E+00  0.000000E+00
   Multipole                     : -0.159478E+00 -0.130415E-02 -0.725998E+00
   Pulay + GGA                   : -0.386449E+01  0.929769E+01  0.545615E+01
   Van der Waals                 :  0.373544E-02 -0.518649E-02 -0.852702E-02
   ----------------------------------------------------------------
   Total forces(   3)            :  0.660446E+00 -0.876623E+00  0.563953E+00
  atom #    4
   Hellmann-Feynman              : -0.285321E+00  0.608582E+00 -0.150294E+00
   Ionic forces                  :  0.000000E+00  0.000000E+00  0.000000E+00
   Multipole                     : -0.113718E+00  0.310225E-01 -0.606025E-01
   Pulay + GGA                   :  0.235788E+00  0.515562E-01 -0.105317E+00
   Van der Waals                 : -0.137149E-02  0.347786E-02 -0.128377E-01
   ----------------------------------------------------------------
   Total forces(   4)            : -0.164623E+00  0.694639E+00 -0.329052E+00
  atom #    5
   Hellmann-Feynman              : -0.217929E+00  0.291357E+00 -0.130572E+00
   Ionic forces                  :  0.000000E+00  0.000000E+00  0.000000E+00
   Multipole                     : -0.322076E-01  0.535784E-01 -0.639516E-01
   Pulay + GGA                   : -0.130593E-01 -0.241218E+00  0.442699E-01
   Van der Waals                 : -0.514965E-02 -0.820925E-02 -0.439586E-02
   ----------------------------------------------------------------
   Total forces(   5)            : -0.268346E+00  0.955085E-01 -0.154649E+00
  atom #    6
   Hellmann-Feynman              :  0.440713E+00 -0.914270E+00  0.645207E+00
   Ionic forces                  :  0.000000E+00  0.000000E+00  0.000000E+00
   Multipole                     : -0.140210E+00  0.632377E+00  0.191903E+00
   Pulay + GGA                   :  0.413019E-02 -0.129873E+00 -0.467186E+00
   Van der Waals                 : -0.193324E-02  0.995398E-02  0.747131E-02
   ----------------------------------------------------------------
   Total forces(   6)            :  0.302700E+00 -0.401813E+00  0.377395E+00
  atom #    7
   Hellmann-Feynman              : -0.241947E+00 -0.500327E-01 -0.453116E-01
   Ionic forces                  :  0.000000E+00  0.000000E+00  0.000000E+00
   Multipole                     : -0.120388E+00  0.489511E-01  0.322355E-01
   Pulay + GGA                   :  0.111809E+00  0.289108E-01  0.342581E-01
   Van der Waals                 : -0.122853E-02  0.308845E-02  0.612631E-02
   ----------------------------------------------------------------
   Total forces(   7)            : -0.251754E+00  0.309177E-01  0.273083E-01
  atom #    8
   Hellmann-Feynman              :  0.487549E-01  0.401918E-01  0.226326E+00
   Ionic forces                  :  0.000000E+00  0.000000E+00  0.000000E+00
   Multipole                     :  0.157420E-01  0.652286E-01  0.127459E+00
   Pulay + GGA                   : -0.489946E-01 -0.459440E-01 -0.108514E+00
   Van der Waals                 : -0.315352E-02  0.110908E-01  0.355349E-03
   ----------------------------------------------------------------
   Total forces(   8)            :  0.123488E-01  0.705673E-01  0.245627E+00
  atom #    9
   Hellmann-Feynman              :  0.997988E-01  0.593945E-01 -0.184025E+00
   Ionic forces                  :  0.000000E+00  0.000000E+00  0.000000E+00
   Multipole                     :  0.218682E-01  0.132426E+00 -0.708746E-02
   Pulay + GGA                   : -0.438222E-01 -0.670739E-01  0.772961E-01
   Van der Waals                 : -0.337999E-02  0.548247E-02  0.818615E-02
   ----------------------------------------------------------------
   Total forces(   9)            :  0.744648E-01  0.130229E+00 -0.105630E+00
  atom #   10
   Hellmann-Feynman              :  0.238241E+01  0.393828E+01  0.194860E+01
   Ionic forces                  :  0.000000E+00  0.000000E+00  0.000000E+00
   Multipole                     :  0.386094E-01 -0.117266E+00  0.212282E+00
   Pulay + GGA                   : -0.103725E+01 -0.279268E+01 -0.338826E+00
   Van der Waals                 :  0.542695E-02 -0.123784E-01  0.467579E-03
   ----------------------------------------------------------------
   Total forces(  10)            :  0.138920E+01  0.101595E+01  0.182253E+01
  atom #   11
   Hellmann-Feynman              :  0.402885E+01 -0.233474E+01  0.141346E+02
   Ionic forces                  :  0.000000E+00  0.000000E+00  0.000000E+00
   Multipole                     : -0.113362E-01 -0.483406E+00  0.930627E+00
   Pulay + GGA                   : -0.303147E+01  0.337595E+01 -0.141897E+02
   Van der Waals                 : -0.622989E-03 -0.122283E-01  0.717917E-02
   ----------------------------------------------------------------
   Total forces(  11)            :  0.985418E+00  0.545580E+00  0.882724E+00
  atom #   12
   Hellmann-Feynman              : -0.354991E+01 -0.143221E+02 -0.317545E+00
   Ionic forces                  :  0.000000E+00  0.000000E+00  0.000000E+00
   Multipole                     : -0.780977E+00 -0.144392E+01  0.270977E-01
   Pulay + GGA                   :  0.224176E+01  0.147032E+02 -0.137666E+01
   Van der Waals                 :  0.162752E-02  0.249777E-02  0.666290E-02
   ----------------------------------------------------------------
   Total forces(  12)            : -0.208751E+01 -0.106038E+01 -0.166045E+01
  atom #   13
   Hellmann-Feynman              : -0.570176E+00 -0.731644E+00 -0.144492E+01
   Ionic forces                  :  0.000000E+00  0.000000E+00  0.000000E+00
   Multipole                     : -0.389791E-01  0.696130E-01 -0.639644E-01
   Pulay + GGA                   :  0.256635E+00 -0.327966E+00  0.253237E+00
   Van der Waals                 :  0.861267E-03  0.838572E-02 -0.353633E-02
   ----------------------------------------------------------------
   Total forces(  13)            : -0.351658E+00 -0.981612E+00 -0.125918E+01

  Timings for VdW correction (Tkatchenko-Scheffler 2009 or later):
  | CPU time:        0.090 s, Wall clock time:        0.091 s.
  Removing unitary transformations (pure translations, rotations) from forces on atoms.
  Atomic forces before filtering:
  | Net force on center of mass :  -0.335380E-02  0.275764E-02 -0.592839E-02 eV/A
  | Net torque on center of mass:   0.175438E-02  0.285921E-03 -0.663142E-02 eV
  Atomic forces after filtering:
  | Net force on center of mass :  -0.446015E-16  0.000000E+00 -0.178406E-15 eV/A
  | Net torque on center of mass:  -0.755268E-15  0.000000E+00  0.944085E-16 eV

  Energy and forces in a compact form:
  | Total energy uncorrected      :         -0.880265714899666E+04 eV
  | Total energy corrected        :         -0.880265714899666E+04 eV  <-- do not rely on this value for anything but (periodic) metals
  | Electronic free energy        :         -0.880265714899666E+04 eV
  Total atomic forces (unitary forces cleaned) [eV/Ang]:
  |   1         -0.573876468366773E+00          0.780336300079520E+00         -0.280260021271232E+00
  |   2          0.270362787923109E+00         -0.404886506293057E-01         -0.135288419616181E+00
  |   3          0.660735810996993E+00         -0.876882568449364E+00          0.564410037329574E+00
  |   4         -0.164324163081134E+00          0.694141952523314E+00         -0.328611448529955E+00
  |   5         -0.268246030799775E+00          0.953069722456930E-01         -0.154216836925178E+00
  |   6          0.302658081511399E+00         -0.401999799427651E+00          0.377807204300594E+00
  |   7         -0.251802482628571E+00          0.304769075395104E-01          0.276996572046111E-01
  |   8          0.122850544987149E-01          0.705010989854009E-01          0.246044874021753E+00
  |   9          0.742223569444091E-01          0.130107899360973E+00         -0.105243704654033E+00
  |  10          0.138974954911258E+01          0.101578853664113E+01          0.182302999284233E+01
  |  11          0.986013266195898E+00          0.545525486108843E+00          0.883244047066868E+00
  |  12         -0.208674561345197E+01         -0.106072761942945E+01         -0.165992293896766E+01
  |  13         -0.351032148854881E+00         -0.982086515548615E+00         -0.125869244280149E+01

  ------------------------------------ 
  Start decomposition of the XC Energy 
  ------------------------------------ 
  X and C from original XC functional choice 
  Hartree-Fock Energy :          0.000000000 Ha              0.000000000 eV
  X Energy            :        -41.039506271 Ha          -1116.741784828 eV
  C Energy            :         -1.602032282 Ha            -43.593516402 eV
  Total XC Energy     :        -42.641538553 Ha          -1160.335301230 eV
  ------------------------------------ 
  LDA X and C from self-consistent density 
  X Energy LDA        :        -37.260057272 Ha          -1013.897744914 eV
  C Energy LDA        :         -3.139019810 Ha            -85.417075005 eV
  ------------------------------------ 
  End decomposition of the XC Energy 
  ------------------------------------ 

------------------------------------------------------------

------------------------------------------------------------------------------
  Final output of selected total energy values:

  The following output summarizes some interesting total energy values
  at the end of a run (AFTER all relaxation, molecular dynamics, etc.).

  | Total energy of the DFT / Hartree-Fock s.c.f. calculation      :          -8802.657148997 eV
  | Final zero-broadening corrected energy (caution - metals only) :          -8802.657148997 eV
  | For reference only, the value of 1 Hartree used in FHI-aims is :             27.211384500 eV

  Before relying on these values, please be sure to understand exactly which
  total energy value is referred to by a given number. Different objects may
  all carry the same name 'total energy'. Definitions:

  Total energy of the DFT / Hartree-Fock s.c.f. calculation:
  | Note that this energy does not include ANY quantities calculated after the
  | s.c.f. cycle, in particular not ANY RPA, MP2, etc. many-body perturbation terms.

  Final zero-broadening corrected energy:
  | For metallic systems only, a broadening of the occupation numbers at the Fermi
  | level can be extrapolated back to zero broadening by an electron-gas inspired
  | formula. For all systems that are not real metals, this value can be
  | meaningless and should be avoided.

------------------------------------------------------------------------------
  Methods described in the following list of references were used in this FHI-aims run.
  If you publish the results, please make sure to cite these reference if they apply.
  FHI-aims is an academic code, and for our developers (often, Ph.D. students
  and postdocs), scientific credit in the community is essential.
  Thank you for helping us!

  For any use of FHI-aims, please cite:

    Volker Blum, Ralf Gehrke, Felix Hanke, Paula Havu, Ville Havu,
    Xinguo Ren, Karsten Reuter, and Matthias Scheffler
    'Ab initio molecular simulations with numeric atom-centered orbitals'
    Computer Physics Communications 180, 2175-2196 (2009)
    http://dx.doi.org/10.1016/j.cpc.2009.06.022


  The scalable eigensolver library ELPA was used in your run.
  ELPA is essential especially for large systems on hundreds or thousands of CPUs.
  For ELPA, please cite:

    Andreas Marek, Volker Blum, Rainer Johanni, Ville Havu, Bruno Lang,
    Thomas Auckenthaler, Alexander Heinecke, Hans-Joachim Bungartz, and Hermann Lederer,
    'The ELPA Library - Scalable Parallel Eigenvalue Solutions
    for Electronic Structure Theory and Computational Science'
    The Journal of Physics: Condensed Matter 26, 213201 (2014).
    http://dx.doi.org/10.1088/0953-8984/26/21/213201


  The ELSI infrastructure was used in your run to solve the Kohn-Sham electronic structure.
  Please check out http://elsi-interchange.org to learn more.
  If scalability is important for your project, please acknowledge ELSI by citing:

    V. W-z. Yu, F. Corsetti, A. Garcia, W. P. Huhn, M. Jacquelin, W. Jia,
    B. Lange, L. Lin, J. Lu, W. Mi, A. Seifitokaldani, A. Vazquez-Mayagoitia,
    C. Yang, H. Yang, and V. Blum
    'ELSI: A unified software interface for Kohn-Sham electronic structure solvers'
    Computer Physics Communications 222, 267-285 (2018).
    http://dx.doi.org/10.1016/j.cpc.2017.09.007


  For the real-space grid partitioning and parallelization used in this calculation, please cite:

    Ville Havu, Volker Blum, Paula Havu, and Matthias Scheffler,
    'Efficient O(N) integration for all-electron electronic structure calculation'
    'using numerically tabulated basis functions'
    Journal of Computational Physics 228, 8367-8379 (2009).
    http://dx.doi.org/10.1016/j.jcp.2009.08.008

  Of course, there are many other important community references, e.g., those cited in the
  above references. Our list is limited to references that describe implementations in the
  FHI-aims code. The reason is purely practical (length of this list) - please credit others as well.

------------------------------------------------------------
          Leaving FHI-aims.
          Date     :  20200902, Time     :  105525.648

          Computational steps:
          | Number of self-consistency cycles          :           16
          | Number of SCF (re)initializations          :            1

          Detailed time accounting                     :  max(cpu_time)    wall_clock(cpu1)
          | Total time                                 :       22.681 s          22.766 s
          | Preparation time                           :        0.148 s           0.150 s
          | Boundary condition initalization           :        0.000 s           0.000 s
          | Grid partitioning                          :        0.111 s           0.118 s
          | Preloading free-atom quantities on grid    :        0.002 s           0.003 s
          | Free-atom superposition energy             :        0.085 s           0.085 s
          | Total time for integrations                :        8.627 s           8.638 s
          | Total time for solution of K.-S. equations :        0.037 s           0.040 s
          | Total time for density & force components  :        7.161 s           7.181 s
          | Total time for mixing                      :        0.216 s           0.217 s
          | Total time for Hartree multipole update    :        0.140 s           0.141 s
          | Total time for Hartree multipole sum       :        5.754 s           5.770 s
          | Total time for total energy evaluation     :        0.003 s           0.004 s
          | Total time for vdW correction              :        0.090 s           0.091 s

          Partial memory accounting:
          | Residual value for overall tracked memory usage across tasks :           0.000 MB (should be 0.000 MB)
          | Peak values for overall tracked memory usage (after allocating hessian_basis_wave):
          |   Minimum:        1.612 MB (on task 1)
          |   Maximum:        1.612 MB (on task 1)
          |   Average:        1.612 MB
          | Largest tracked array allocation (hessian_basis_wave):
          |   Minimum:        0.788 MB (on task 1)
          |   Maximum:        0.788 MB (on task 1)
          |   Average:        0.788 MB
          Note:  These values currently only include a subset of arrays which are explicitly tracked.
          The "true" memory usage will be greater.

          Have a nice day.
------------------------------------------------------------
