  MPI-parallelism will be employed.
------------------------------------------------------------
          Invoking FHI-aims ...
          Version 171221_1
          Compiled on 2019/09/09 at 14:39:39 on host puhti-login2.bullx.

          When using FHI-aims, please cite the following reference:

          Volker Blum, Ralf Gehrke, Felix Hanke, Paula Havu,
          Ville Havu, Xinguo Ren, Karsten Reuter, and Matthias Scheffler,
          'Ab Initio Molecular Simulations with Numeric Atom-Centered Orbitals',
          Computer Physics Communications 180, 2175-2196 (2009)

          For any questions about FHI-aims, please visit the aimsclub website
          with its forums and wiki. Contributions to both the forums and the
          wiki are warmly encouraged - they are for you, and everyone is welcome there.

------------------------------------------------------------



  Date     :  20200710, Time     :  151611.313
  Time zero on CPU 1             :   0.117450000000000E-01  s.
  Internal wall clock time zero  :           363626171.313  s.

  FHI-aims created a unique identifier for this run for later identification
  aims_uuid : 141F01B0-7BC8-4849-A4E4-79A0CDC4D885

  Using        1 parallel tasks.
  Task        0 on host r18c41.bullx reporting.

  Performing system and environment tests:
  | Environment variable OMP_NUM_THREADS correctly set to 1.
  | Stacksize not measured: no C compiler
  | Checking for scalapack...
  | Testing pdtran()...
  | All pdtran() tests passed.

  Obtaining array dimensions for all initial allocations:
  
  -----------------------------------------------------------------------
  Parsing control.in (first pass over file, find array dimensions only).
  The contents of control.in will be repeated verbatim below
  unless switched off by setting 'verbatim_writeout .false.' .
  in the first line of control.in .
  -----------------------------------------------------------------------
  
  #########################################################################################
  #
  #  Volker Blum, FHI 2009 : Test run input file control.in for simple H2O
  #
  #########################################################################################
  #
  #  Physical model
  #
    xc                 pbe
    vdw_correction_hirshfeld
    spin               none
    relativistic       none
    charge             0.
  #
  #  SCF convergence
  #
    occupation_type    gaussian 0.01
    mixer              pulay
      n_max_pulay        10
      charge_mix_param   0.2
    sc_accuracy_rho    1E-5
    sc_accuracy_eev    1E-3
    sc_accuracy_etot   1E-6
    sc_accuracy_forces 1E-4
    sc_iter_limit      100
  #
  #  Relaxation
  #
  #  relax_geometry   bfgs 1.e-3
  #
  ################################################################################
  #
  #  FHI-aims code project
  #  VB, Fritz-Haber Institut, 2009
  #
  #  Suggested "light" defaults for H atom (to be pasted into control.in file)
  #  Be sure to double-check any results obtained with these settings for post-processing,
  #  e.g., with the "tight" defaults and larger basis sets.
  #
  ################################################################################
    species        H
  #     global species definitions
      nucleus             1
      mass                1.00794
  #
      l_hartree           4
  #
      cut_pot             3.5  1.5  1.0
      basis_dep_cutoff    1e-4
  #
      radial_base         24 5.0
      radial_multiplier   1
      angular_grids       specified
        division   0.2421   50
        division   0.3822  110
        division   0.4799  194
        division   0.5341  302
  #      division   0.5626  434
  #      division   0.5922  590
  #      division   0.6542  770
  #      division   0.6868 1202
  #      outer_grid  770
        outer_grid  302
  ################################################################################
  #
  #  Definition of "minimal" basis
  #
  ################################################################################
  #     valence basis states
      valence      1  s   1.
  #     ion occupancy
      ion_occ      1  s   0.5
  ################################################################################
  #
  #  Suggested additional basis functions. For production calculations,
  #  uncomment them one after another (the most important basis functions are
  #  listed first).
  #
  #  Basis constructed for dimers: 0.5 A, 0.7 A, 1.0 A, 1.5 A, 2.5 A
  #
  ################################################################################
  #  "First tier" - improvements: -1014.90 meV to -62.69 meV
       hydro 2 s 2.1
       hydro 2 p 3.5
  #  "Second tier" - improvements: -12.89 meV to -1.83 meV
  #     hydro 1 s 0.85
  #     hydro 2 p 3.7
  #     hydro 2 s 1.2
  #     hydro 3 d 7
  #  "Third tier" - improvements: -0.25 meV to -0.12 meV
  #     hydro 4 f 11.2
  #     hydro 3 p 4.8
  #     hydro 4 d 9
  #     hydro 3 s 3.2
  ################################################################################
  #
  #  FHI-aims code project
  #  VB, Fritz-Haber Institut, 2009
  #
  #  Suggested "light" defaults for C atom (to be pasted into control.in file)
  #  Be sure to double-check any results obtained with these settings for post-processing,
  #  e.g., with the "tight" defaults and larger basis sets.
  #
  ################################################################################
    species        C
  #     global species definitions
      nucleus             6
      mass                12.0107
  #
      l_hartree           4
  #
      cut_pot             3.5  1.5  1.0
      basis_dep_cutoff    1e-4
  #
      radial_base         34 5.0
      radial_multiplier   1
      angular_grids specified
        division   0.3326   50
        division   0.5710  110
        division   0.7727  194
        division   0.8772  302
  #      division   0.9334  434
  #      division   0.9625  590
  #      division   0.9924  770
  #      division   1.0230  974
  #      division   1.4589 1202
  #     outer_grid  974
       outer_grid 302
  ################################################################################
  #
  #  Definition of "minimal" basis
  #
  ################################################################################
  #     valence basis states
      valence      2  s   2.
      valence      2  p   2.
  #     ion occupancy
      ion_occ      2  s   1.
      ion_occ      2  p   1.
  ################################################################################
  #
  #  Suggested additional basis functions. For production calculations,
  #  uncomment them one after another (the most important basis functions are
  #  listed first).
  #
  #  Constructed for dimers: 1.0 A, 1.25 A, 1.5 A, 2.0 A, 3.0 A
  #
  ################################################################################
  #  "First tier" - improvements: -1214.57 meV to -155.61 meV
       hydro 2 p 1.7
       hydro 3 d 6
       hydro 2 s 4.9
  #  "Second tier" - improvements: -67.75 meV to -5.23 meV
  #     hydro 4 f 9.8
  #     hydro 3 p 5.2
  #     hydro 3 s 4.3
  #     hydro 5 g 14.4
  #     hydro 3 d 6.2
  #  "Third tier" - improvements: -2.43 meV to -0.60 meV
  #     hydro 2 p 5.6
  #     hydro 2 s 1.4
  #     hydro 3 d 4.9
  #     hydro 4 f 11.2
  #  "Fourth tier" - improvements: -0.39 meV to -0.18 meV
  #     hydro 2 p 2.1
  #     hydro 5 g 16.4
  #     hydro 4 d 13.2
  #     hydro 3 s 13.6
  #     hydro 4 f 17.6
  #  Further basis functions - improvements: -0.08 meV and below
  #     hydro 3 s 2
  #     hydro 3 p 6
  #     hydro 4 d 20
  ################################################################################
  #
  #  FHI-aims code project
  #  VB, Fritz-Haber Institut, 2009
  #
  #  Suggested "light" defaults for N atom (to be pasted into control.in file)
  #  Be sure to double-check any results obtained with these settings for post-processing,
  #  e.g., with the "tight" defaults and larger basis sets.
  #
  ################################################################################
    species        N
  #     global species definitions
      nucleus             7
      mass                14.0067
  #
      l_hartree           4
  #
      cut_pot             3.5  1.5  1.0
      basis_dep_cutoff    1e-4
  #
      radial_base         35 5.0
      radial_multiplier   1
      angular_grids       specified
        division   0.2599   50
        division   0.4601  110
        division   0.5885  194
        division   0.6503  302
  #      division   0.6939  434
  #      division   0.7396  590
  #      division   0.7632  770
  #      division   0.8122  974
  #      division   1.1604 1202
  #      outer_grid  974
        outer_grid  302
  ################################################################################
  #
  #  Definition of "minimal" basis
  #
  ################################################################################
  #     valence basis states
      valence      2  s   2.
      valence      2  p   3.
  #     ion occupancy
      ion_occ      2  s   1.
      ion_occ      2  p   2.
  ################################################################################
  #
  #  Suggested additional basis functions. For production calculations,
  #  uncomment them one after another (the most important basis functions are
  #  listed first).
  #
  #  Constructed for dimers: 1.0 A, 1.1 A, 1.5 A, 2.0 A, 3.0 A
  #
  ################################################################################
  #  "First tier" - improvements: -1193.42 meV to -220.60 meV
       hydro 2 p 1.8
       hydro 3 d 6.8
       hydro 3 s 5.8
  #  "Second tier" - improvements: -80.21 meV to -6.86 meV
  #     hydro 4 f 10.8
  #     hydro 3 p 5.8
  #     hydro 1 s 0.8
  #     hydro 5 g 16
  #     hydro 3 d 4.9
  #  "Third tier" - improvements: -4.29 meV to -0.53 meV
  #     hydro 3 s 16
  #     ionic 2 p auto
  #     hydro 3 d 6.6
  #     hydro 4 f 11.6
  #  "Fourth tier" - improvements: -0.75 meV to -0.25 meV
  #     hydro 2 p 4.5
  #     hydro 2 s 2.4
  #     hydro 5 g 14.4
  #     hydro 4 d 14.4
  #     hydro 4 f 16.8
  # Further basis functions - -0.21 meV and below
  #     hydro 3 p 14.8
  #     hydro 3 s 4.4
  #     hydro 3 d 19.6
  #     hydro 5 g 12.8
  ################################################################################
  #
  #  FHI-aims code project
  #  VB, Fritz-Haber Institut, 2009
  #
  #  Suggested "light" defaults for O atom (to be pasted into control.in file)
  #  Be sure to double-check any results obtained with these settings for post-processing,
  #  e.g., with the "tight" defaults and larger basis sets.
  #
  ################################################################################
    species        O
  #     global species definitions
      nucleus             8
      mass                15.9994
  #
      l_hartree           4
  #
      cut_pot             3.5  1.5  1.0
      basis_dep_cutoff    1e-4
  #
      radial_base         36 5.0
      radial_multiplier   1
       angular_grids specified
        division   0.2659   50
        division   0.4451  110
        division   0.6052  194
        division   0.7543  302
  #      division   0.8014  434
  #      division   0.8507  590
  #      division   0.8762  770
  #      division   0.9023  974
  #      division   1.2339 1202
  #      outer_grid 974
        outer_grid 302
  ################################################################################
  #
  #  Definition of "minimal" basis
  #
  ################################################################################
  #     valence basis states
      valence      2  s   2.
      valence      2  p   4.
  #     ion occupancy
      ion_occ      2  s   1.
      ion_occ      2  p   3.
  ################################################################################
  #
  #  Suggested additional basis functions. For production calculations,
  #  uncomment them one after another (the most important basis functions are
  #  listed first).
  #
  #  Constructed for dimers: 1.0 A, 1.208 A, 1.5 A, 2.0 A, 3.0 A
  #
  ################################################################################
  #  "First tier" - improvements: -699.05 meV to -159.38 meV
       hydro 2 p 1.8
       hydro 3 d 7.6
       hydro 3 s 6.4
  #  "Second tier" - improvements: -49.91 meV to -5.39 meV
  #     hydro 4 f 11.6
  #     hydro 3 p 6.2
  #     hydro 3 d 5.6
  #     hydro 5 g 17.6
  #     hydro 1 s 0.75
  #  "Third tier" - improvements: -2.83 meV to -0.50 meV
  #     ionic 2 p auto
  #     hydro 4 f 10.8
  #     hydro 4 d 4.7
  #     hydro 2 s 6.8
  #  "Fourth tier" - improvements: -0.40 meV to -0.12 meV
  #     hydro 3 p 5
  #     hydro 3 s 3.3
  #     hydro 5 g 15.6
  #     hydro 4 f 17.6
  #     hydro 4 d 14
  # Further basis functions - -0.08 meV and below
  #     hydro 3 s 2.1
  #     hydro 4 d 11.6
  #     hydro 3 p 16
  #     hydro 2 s 17.2
  
  -----------------------------------------------------------------------
  Completed first pass over input file control.in .
  -----------------------------------------------------------------------
  
  
  -----------------------------------------------------------------------
  Parsing geometry.in (first pass over file, find array dimensions only).
  The contents of geometry.in will be repeated verbatim below
  unless switched off by setting 'verbatim_writeout .false.' .
  in the first line of geometry.in .
  -----------------------------------------------------------------------
  
  atom  0.00000 0.00000 0.00000 C
  atom  1.09300 0.00000 0.00000 H
  atom  -0.47961 0.00000 -1.41207 N
  atom  -0.87422 -0.91729 -1.62348 H
  atom  -1.19040 0.72120 -1.51585 H
  atom  -0.49584 1.26211 0.72868 C
  atom  -1.58789 1.28919 0.74431 H
  atom  -0.13407 1.27425 1.75947 H
  atom  -0.13407 2.16087 0.22380 H
  atom  -0.39425 -1.28861 0.74398 C
  atom  -0.10189 -1.56493 1.88303 O
  atom  -1.10210 -2.13717 0.06896 O
  atom  -1.75458 -1.51719 -0.29829 H
  
  -----------------------------------------------------------------------
  Completed first pass over input file geometry.in .
  -----------------------------------------------------------------------
  

  Basic array size parameters:
  | Number of species                 :        4
  | Number of atoms                   :       13
  | Max. basis fn. angular momentum   :        2
  | Max. atomic/ionic basis occupied n:        2
  | Max. number of basis fn. types    :        2
  | Max. radial fns per species/type  :        3
  | Max. logarithmic grid size        :     1301
  | Max. radial integration grid size :       36
  | Max. angular integration grid size:      302
  | Max. angular grid division number :        8
  | Radial grid for Hartree potential :     1301
  | Number of spin channels           :        1

------------------------------------------------------------
          Reading file control.in.
------------------------------------------------------------
  XC: Using PBE gradient-corrected functionals.
  Spin treatment: No spin polarisation.
  Non-relativistic treatment of kinetic energy.
  Charge =   0.000000E+00: Neutral system requested explicitly.
  Occupation type: Gaussian broadening, width =   0.100000E-01 eV.
  Using pulay charge density mixing.
  Pulay mixing - number of memorized iterations:   10
  Charge density mixing - mixing parameter:     0.2000
  Convergence accuracy of self-consistent charge density:  0.1000E-04
  Convergence accuracy of sum of eigenvalues:  0.1000E-02
  Convergence accuracy of total energy:  0.1000E-05
  Convergence accuracy of forces:  0.1000E-03
  Maximum number of s.-c. iterations  :   100
 
  Reading configuration options for species H                   .
  | Found nuclear charge :   1.0000
  | Found atomic mass :    1.00794000000000      amu
  | Found l_max for Hartree potential  :   4
  | Found cutoff potl. onset [A], width [A], scale factor :    3.50000    1.50000    1.00000
  | Threshold for basis-dependent cutoff potential is   0.100000E-03
  | Found data for basic radial integration grid :    24 points, outermost radius =    5.000 A
  | Found multiplier for basic radial grid :   1
  | Found angular grid specification: user-specified.
  | Specified grid contains     5 separate shells.
  | Check grid settings after all constraints further below.
  | Found free-atom valence shell :  1 s   1.000
  | No ionic wave fns used. Skipping ion_occ.
  | Found hydrogenic basis function :  2 s   2.100
  | Found hydrogenic basis function :  2 p   3.500
  Species H                   : Missing cutoff potential type.
  Defaulting to exp(1/x)/(1-x)^2 type cutoff potential.
  Species H : No 'logarithmic' tag. Using default grid for free atom:
  | Default logarithmic grid data [bohr] : 0.1000E-03 0.1000E+03 0.1012E+01
  Species H : On-site basis accuracy parameter (for Gram-Schmidt orthonormalisation) not specified.
  Using default value basis_acc =  0.1000000E-03.
  Species H                   : Using default innermost maximum threshold i_radial=  2 for radial functions.
  Species H                   : Default cutoff onset for free atom density etc. : 0.35000000E+01 AA.
  Species H                   : Basic radial grid will be enhanced according to radial_multiplier =   1, to contain    24 grid points.
 
  Reading configuration options for species C                   .
  | Found nuclear charge :   6.0000
  | Found atomic mass :    12.0107000000000      amu
  | Found l_max for Hartree potential  :   4
  | Found cutoff potl. onset [A], width [A], scale factor :    3.50000    1.50000    1.00000
  | Threshold for basis-dependent cutoff potential is   0.100000E-03
  | Found data for basic radial integration grid :    34 points, outermost radius =    5.000 A
  | Found multiplier for basic radial grid :   1
  | Found angular grid specification: user-specified.
  | Specified grid contains     5 separate shells.
  | Check grid settings after all constraints further below.
  | Found free-atom valence shell :  2 s   2.000
  | Found free-atom valence shell :  2 p   2.000
  | No ionic wave fns used. Skipping ion_occ.
  | No ionic wave fns used. Skipping ion_occ.
  | Found hydrogenic basis function :  2 p   1.700
  | Found hydrogenic basis function :  3 d   6.000
  | Found hydrogenic basis function :  2 s   4.900
  Species C                   : Missing cutoff potential type.
  Defaulting to exp(1/x)/(1-x)^2 type cutoff potential.
  Species C : No 'logarithmic' tag. Using default grid for free atom:
  | Default logarithmic grid data [bohr] : 0.1000E-03 0.1000E+03 0.1012E+01
  Species C : On-site basis accuracy parameter (for Gram-Schmidt orthonormalisation) not specified.
  Using default value basis_acc =  0.1000000E-03.
  Species C                   : Using default innermost maximum threshold i_radial=  2 for radial functions.
  Species C                   : Default cutoff onset for free atom density etc. : 0.35000000E+01 AA.
  Species C                   : Basic radial grid will be enhanced according to radial_multiplier =   1, to contain    34 grid points.
 
  Reading configuration options for species N                   .
  | Found nuclear charge :   7.0000
  | Found atomic mass :    14.0067000000000      amu
  | Found l_max for Hartree potential  :   4
  | Found cutoff potl. onset [A], width [A], scale factor :    3.50000    1.50000    1.00000
  | Threshold for basis-dependent cutoff potential is   0.100000E-03
  | Found data for basic radial integration grid :    35 points, outermost radius =    5.000 A
  | Found multiplier for basic radial grid :   1
  | Found angular grid specification: user-specified.
  | Specified grid contains     5 separate shells.
  | Check grid settings after all constraints further below.
  | Found free-atom valence shell :  2 s   2.000
  | Found free-atom valence shell :  2 p   3.000
  | No ionic wave fns used. Skipping ion_occ.
  | No ionic wave fns used. Skipping ion_occ.
  | Found hydrogenic basis function :  2 p   1.800
  | Found hydrogenic basis function :  3 d   6.800
  | Found hydrogenic basis function :  3 s   5.800
  Species N                   : Missing cutoff potential type.
  Defaulting to exp(1/x)/(1-x)^2 type cutoff potential.
  Species N : No 'logarithmic' tag. Using default grid for free atom:
  | Default logarithmic grid data [bohr] : 0.1000E-03 0.1000E+03 0.1012E+01
  Species N : On-site basis accuracy parameter (for Gram-Schmidt orthonormalisation) not specified.
  Using default value basis_acc =  0.1000000E-03.
  Species N                   : Using default innermost maximum threshold i_radial=  2 for radial functions.
  Species N                   : Default cutoff onset for free atom density etc. : 0.35000000E+01 AA.
  Species N                   : Basic radial grid will be enhanced according to radial_multiplier =   1, to contain    35 grid points.
 
  Reading configuration options for species O                   .
  | Found nuclear charge :   8.0000
  | Found atomic mass :    15.9994000000000      amu
  | Found l_max for Hartree potential  :   4
  | Found cutoff potl. onset [A], width [A], scale factor :    3.50000    1.50000    1.00000
  | Threshold for basis-dependent cutoff potential is   0.100000E-03
  | Found data for basic radial integration grid :    36 points, outermost radius =    5.000 A
  | Found multiplier for basic radial grid :   1
  | Found angular grid specification: user-specified.
  | Specified grid contains     5 separate shells.
  | Check grid settings after all constraints further below.
  | Found free-atom valence shell :  2 s   2.000
  | Found free-atom valence shell :  2 p   4.000
  | No ionic wave fns used. Skipping ion_occ.
  | No ionic wave fns used. Skipping ion_occ.
  | Found hydrogenic basis function :  2 p   1.800
  | Found hydrogenic basis function :  3 d   7.600
  | Found hydrogenic basis function :  3 s   6.400
  Species O                   : Missing cutoff potential type.
  Defaulting to exp(1/x)/(1-x)^2 type cutoff potential.
  Species O : No 'logarithmic' tag. Using default grid for free atom:
  | Default logarithmic grid data [bohr] : 0.1000E-03 0.1000E+03 0.1012E+01
  Species O : On-site basis accuracy parameter (for Gram-Schmidt orthonormalisation) not specified.
  Using default value basis_acc =  0.1000000E-03.
  Species O                   : Using default innermost maximum threshold i_radial=  2 for radial functions.
  Species O                   : Default cutoff onset for free atom density etc. : 0.35000000E+01 AA.
  Species O                   : Basic radial grid will be enhanced according to radial_multiplier =   1, to contain    36 grid points.
 
  Finished reading input file 'control.in'. Consistency checks are next.
 
  MPI_IN_PLACE appears to work with this MPI implementation.
  | Keeping use_mpi_in_place .true. (see manual).
  Target number of points in a grid batch is not set. Defaulting to  100
  Method for grid partitioning is not set. Defaulting to parallel hash+maxmin partitioning.
  Batch size limit is not set. Defaulting to    200
  By default, will store active basis functions for each batch.
  If in need of memory, prune_basis_once .false. can be used to disable this option.
  communication_type for Hartree potential was not specified.
  Defaulting to calc_hartree .
  Pulay mixer: Number of initial linear mixing iterations not set.
  Defaulting to    0 iterations.
  Work space size for distributed Hartree potential not set.
  Defaulting to   0.200000E+03 MB.
  Algorithm-dependent basis array size parameters:
  | n_max_pulay                         :       10
  Presetting      1001 iterations before the initial mixing cycle
  is restarted anyway using the sc_init_iter criterion / keyword.
  Presetting a factor      1.000 between actual scf density residual
  and density convergence criterion sc_accuracy_rho below which sc_init_iter
  takes no effect.
  Geometry relaxation not requested: no relaxation will be performed.
  Handling of forces: Unphysical translation and rotation will be removed from forces.
  No accuracy limit for integral partition fn. given. Defaulting to  0.1000E-14.
  No threshold value for u(r) in integrations given. Defaulting to  0.1000E-05.
  No accuracy for occupation numbers given. Defaulting to  0.1000E-12.
  No threshold value for occupation numbers given. Defaulting to  0.0000E+00.
  No accuracy for fermi level given. Defaulting to  0.1000E-19.
  Maximum # of iterations to find E_F not set. Defaulting to  200.
  Preferred method for the eigenvalue solver ('KS_method') not specified in 'control.in'.
  Defaulting to serial version, 'lapack_fast'.
  Will not use alltoall communication since running on < 1024 CPUs.
  Threshold for basis singularities not set.
  Default threshold for basis singularities:  0.1000E-04
  partition_type (choice of integration weights) for integrals was not specified.
  | Using a version of the partition function of Stratmann and coworkers ('stratmann_smoother').
  | At each grid point, the set of atoms used to build the partition table is smoothly restricted to
  | only those atoms whose free-atom density would be non-zero at that grid point.
  Partitioning for Hartree potential was not defined. Using partition_type for integrals.
  | Adjusted default value of keyword multip_moments_threshold to:       0.10000000E-11
  | This value may affect high angular momentum components of the Hartree potential in periodic systems.
  No q(lm)/r^(l+1) cutoff set for long-range Hartree potential.
  | Using default value of  0.100000E-09 .
  | Verify using the multipole_threshold keyword.
  Defaulting to new monopole extrapolation.
  Density update method: automatic selection selected.
------------------------------------------------------------


------------------------------------------------------------
          Reading geometry description geometry.in.
------------------------------------------------------------
  Input structure read successfully.
  The structure contains       13 atoms,  and a total of         48.000 electrons.

  Input geometry:
  | No unit cell requested.
  | Atomic structure:
  |       Atom                x [A]            y [A]            z [A]
  |    1: Species C             0.00000000        0.00000000        0.00000000
  |    2: Species H             1.09300000        0.00000000        0.00000000
  |    3: Species N            -0.47961000        0.00000000       -1.41207000
  |    4: Species H            -0.87422000       -0.91729000       -1.62348000
  |    5: Species H            -1.19040000        0.72120000       -1.51585000
  |    6: Species C            -0.49584000        1.26211000        0.72868000
  |    7: Species H            -1.58789000        1.28919000        0.74431000
  |    8: Species H            -0.13407000        1.27425000        1.75947000
  |    9: Species H            -0.13407000        2.16087000        0.22380000
  |   10: Species C            -0.39425000       -1.28861000        0.74398000
  |   11: Species O            -0.10189000       -1.56493000        1.88303000
  |   12: Species O            -1.10210000       -2.13717000        0.06896000
  |   13: Species H            -1.75458000       -1.51719000       -0.29829000
  |

  | The smallest distance between any two atoms is         0.97209974 AA.
  |
  | The first atom of this pair is atom number                     12 .
  | The second atom of this pair is atom number                    13 .

  Number of empty states per atom not set in control.in - providing a guess from actual geometry.
  | Total number of empty states used during s.c.f. cycle:       29
  If you use a very high smearing, use empty_states (per atom!) in control.in to increase this value.

  Structure-dependent array size parameters: 
  | Maximum number of distinct radial functions  :       21
  | Maximum number of basis functions            :      119
  | Number of Kohn-Sham states (occupied + empty):       53
------------------------------------------------------------

------------------------------------------------------------
          Preparing all fixed parts of the calculation.
------------------------------------------------------------
  Determining machine precision:
    2.225073858507201E-308
  Setting up grids for atomic and cluster calculations.

  Creating wave function, potential, and density for free atoms.

  Species: H

  List of occupied orbitals and eigenvalues:
    n    l              occ      energy [Ha]    energy [eV]
    1    0           1.0000        -0.237589        -6.4651


  Species: C

  List of occupied orbitals and eigenvalues:
    n    l              occ      energy [Ha]    energy [eV]
    1    0           2.0000       -10.038835      -273.1706
    2    0           2.0000        -0.502696       -13.6791
    2    1           2.0000        -0.191971        -5.2238


  Species: N

  List of occupied orbitals and eigenvalues:
    n    l              occ      energy [Ha]    energy [eV]
    1    0           2.0000       -14.128000      -384.4424
    2    0           2.0000        -0.681077       -18.5330
    2    1           3.0000        -0.259788        -7.0692


  Species: O

  List of occupied orbitals and eigenvalues:
    n    l              occ      energy [Ha]    energy [eV]
    1    0           2.0000       -18.898188      -514.2459
    2    0           2.0000        -0.878505       -23.9053
    2    1           4.0000        -0.331779        -9.0282

  Creating fixed part of basis set: Ionic, confined, hydrogenic.
 
  H                    hydrogenic:
 
  List of hydrogenic basis orbitals: 
    n    l      effective z      eigenvalue [eV]  inner max. [A]     outer max. [A]     outer radius [A]   
    2    0         2.100000       -14.9728           0.193243           1.317208           4.583499
    2    1         3.500000       -41.6669           0.602369           0.602369           3.723403
 
 
  C                    hydrogenic:
 
  List of hydrogenic basis orbitals: 
    n    l      effective z      eigenvalue [eV]  inner max. [A]     outer max. [A]     outer radius [A]   
    2    1         1.700000        -9.7616           1.230570           1.230570           4.607917
    3    2         6.000000       -54.4224           0.792453           0.792453           3.883070
    2    0         4.900000       -81.6679           0.082559           0.562749           3.078220
 
 
  N                    hydrogenic:
 
  List of hydrogenic basis orbitals: 
    n    l      effective z      eigenvalue [eV]  inner max. [A]     outer max. [A]     outer radius [A]   
    2    1         1.800000       -10.9749           1.177451           1.177451           4.573712
    3    2         6.800000       -69.9026           0.704619           0.704619           3.538137
    3    0         5.800000       -50.8545           0.067388           1.191934           4.250239
 
 
  O                    hydrogenic:
 
  List of hydrogenic basis orbitals: 
    n    l      effective z      eigenvalue [eV]  inner max. [A]     outer max. [A]     outer radius [A]   
    2    1         1.800000       -10.9749           1.164242           1.164242           4.578029
    3    2         7.600000       -87.3180           0.624125           0.624125           3.251020
    3    0         6.400000       -61.9207           0.061167           1.081902           4.001998
 

  Adding cutoff potential to free-atom effective potential.
  Creating atomic-like basis functions for current effective potential.

  Species H                   :

  List of atomic basis orbitals and eigenvalues:
    n    l      energy [Ha]    energy [eV]    outer radius [A]
    1    0        -0.237589        -6.4651       4.527807


  Species C                   :

  List of atomic basis orbitals and eigenvalues:
    n    l      energy [Ha]    energy [eV]    outer radius [A]
    1    0       -10.038835      -273.1706       1.934409
    2    0        -0.502696       -13.6791       4.496620
    2    1        -0.191971        -5.2238       4.551928


  Species N                   :

  List of atomic basis orbitals and eigenvalues:
    n    l      energy [Ha]    energy [eV]    outer radius [A]
    1    0       -14.128000      -384.4424       1.637919
    2    0        -0.681077       -18.5330       4.463241
    2    1        -0.259788        -7.0692       4.518138


  Species O                   :

  List of atomic basis orbitals and eigenvalues:
    n    l      energy [Ha]    energy [eV]    outer radius [A]
    1    0       -18.898188      -514.2459       1.415765
    2    0        -0.878505       -23.9053       4.413171
    2    1        -0.331779        -9.0282       4.522403

  Assembling full basis from fixed parts.
  | Species H :   atomic orbital   1 s accepted.
  | Species H :    hydro orbital   2 s accepted.
  | Species H :    hydro orbital   2 p accepted.
  | Species C :   atomic orbital   1 s accepted.
  | Species C :    hydro orbital   2 s accepted.
  | Species C :   atomic orbital   2 s accepted.
  | Species C :   atomic orbital   2 p accepted.
  | Species C :    hydro orbital   2 p accepted.
  | Species C :    hydro orbital   3 d accepted.
  | Species N :   atomic orbital   1 s accepted.
  | Species N :    hydro orbital   3 s accepted.
  | Species N :   atomic orbital   2 s accepted.
  | Species N :   atomic orbital   2 p accepted.
  | Species N :    hydro orbital   2 p accepted.
  | Species N :    hydro orbital   3 d accepted.
  | Species O :   atomic orbital   1 s accepted.
  | Species O :    hydro orbital   3 s accepted.
  | Species O :   atomic orbital   2 s accepted.
  | Species O :   atomic orbital   2 p accepted.
  | Species O :    hydro orbital   2 p accepted.
  | Species O :    hydro orbital   3 d accepted.
 
  Basis size parameters after reduction:
  | Total number of radial functions:       21
  | Total number of basis functions :      119
 
  Per-task memory consumption for arrays in subroutine allocate_ext:
  |           5.250512MB.
  Testing on-site integration grid accuracy.
  |  Species  Function  <phi|h_atom|phi> (log., in eV)  <phi|h_atom|phi> (rad., in eV)
           1        1                 -6.4663192853                 -6.4651273558
           1        2                 13.7111246313                 13.7170609718
           1        3                 25.2673269279                 25.2674696378
           2        4               -273.1705927641               -273.1705631568
           2        5                -10.7109323383                -10.7107120029
           2        6                 17.4381822266                 17.4352413244
           2        7                 -5.2255326521                 -5.2270484734
           2        8                  8.6835629259                  8.6603288385
           2        9                 27.4952418996                 27.4953360207
           3       10               -384.4424306495               -384.4423701208
           3       11                 12.5842251816                 12.5842222903
           3       12                -15.7264628251                -15.7264433455
           3       13                 -7.0696854293                 -7.0701769954
           3       14                  8.8090390882                  8.7901077751
           3       15                 35.9586762123                 35.9588528632
           4       16               -514.2458688638               -514.2457643834
           4       17                 15.1795651126                 15.1795290741
           4       18                -21.5359799773                -21.5360846186
           4       19                 -9.0283069236                 -9.0284644067
           4       20                  8.3027758564                  8.2834874195
           4       21                 45.8339351984                 45.8338762259

  Preparing densities etc. for the partition functions (integrals / Hartree potential).

  Preparations completed.
  max(cpu_time)          :      0.146 s.
  Wall clock time (cpu1) :      0.147 s.
------------------------------------------------------------

------------------------------------------------------------
          Begin self-consistency loop: Initialization.

          Date     :  20200710, Time     :  151611.473
------------------------------------------------------------

  Initializing index lists of integration centers etc. from given atomic structure:
  | Number of centers in hartree potential         :        13
  | Number of centers in hartree multipole         :        13
  | Number of centers in electron density summation:        13
  | Number of centers in basis integrals           :        13
  | Number of centers in integrals                 :        13
  | Number of centers in hamiltonian               :        13
  Partitioning the integration grid into batches with parallel hashing+maxmin method.
  | Number of batches:      960
  | Maximal batch size:     139
  | Minimal batch size:      66
  | Average batch size:      72.548
  | Standard deviation of batch sizes:      17.026

  Integration load balanced across     1 MPI tasks.
  Work distribution over tasks is as follows:
  Task     0 has      69646 integration points.
  Initializing partition tables, free-atom densities, potentials, etc. across the integration grid (initialize_grid_storage).
  | initialize_grid_storage: Actual outermost partition radius vs. multipole_radius_free
  | (-- VB: in principle, multipole_radius_free should be larger, hence this output)
  | Species        1: Confinement radius =              4.999999999999999 AA, multipole_radius_free =              5.054417573612229 AA.
  | Species        1: outer_partition_radius set to              5.054417573612229 AA .
  | Species        2: Confinement radius =              4.999999999999999 AA, multipole_radius_free =              5.019602836301480 AA.
  | Species        2: outer_partition_radius set to              5.019602836301480 AA .
  | Species        3: Confinement radius =              4.999999999999999 AA, multipole_radius_free =              5.043624274424571 AA.
  | Species        3: outer_partition_radius set to              5.043624274424571 AA .
  | Species        4: Confinement radius =              4.999999999999999 AA, multipole_radius_free =              5.048384829883283 AA.
  | Species        4: outer_partition_radius set to              5.048384829883283 AA .
  | Original list of interatomic distances with          13 x         13 entries is created.
  | Net number of integration points:    69646
  | of which are non-zero points    :    59313
  Renormalizing the initial density to the exact electron count on the 3D integration grid.
  | Initial density: Formal number of electrons (from input files) :      48.0000000000
  | Integrated number of electrons on 3D grid     :      47.9999656148
  | Charge integration error                      :      -0.0000343852
  | Normalization factor for density and gradient :       1.0000007164
  Obtaining max. number of non-zero basis functions in each batch (get_n_compute_maxes).
  | Maximal number of non-zero basis functions:      119 in task     0
  Selecting the method for density update.
  Loop over occupied states selected for charge density update.
  Allocating        0.050 MB for KS_eigenvector
  Integrating Hamiltonian matrix: batch-based integration.
  Time summed over all CPUs for integration: real work        0.494 s, elapsed        0.494 s
  Integrating overlap matrix.
  Time summed over all CPUs for integration: real work        0.211 s, elapsed        0.211 s

  Updating Kohn-Sham eigenvalues and eigenvectors using ELSI and the ELPA eigensolver.
  Overlap matrix is nonsingular
  | Lowest eigenvalue of overlap  :  0.51E-02
  | Highest eigenvalue of overlap :  0.64E+01
  Finished singularity check of overlap matrix
  | Time :     0.002 s
  Finished Cholesky decomposition
  | Time :     0.000 s
  Finished transformation to standard eigenproblem
  | Time :     0.000 s
  Starting LAPACK eigensolver
  Finished solving standard eigenproblem
  | Time :     0.002 s
  Finished back-transformation of eigenvectors
  | Time :     0.000 s

  Obtaining occupation numbers and chemical potential using ELSI.
  | Chemical potential (Fermi level):    -9.50579689eV
  Writing Kohn-Sham eigenvalues.

  State    Occupation    Eigenvalue [Ha]    Eigenvalue [eV]
      1       2.00000         -19.008445         -517.24611
      2       2.00000         -18.977150         -516.39453
      3       2.00000         -14.246306         -387.66171
      4       2.00000         -10.166893         -276.65524
      5       2.00000         -10.141639         -275.96804
      6       2.00000         -10.132155         -275.70997
      7       2.00000          -1.183358          -32.20081
      8       2.00000          -1.101234          -29.96609
      9       2.00000          -0.992722          -27.01335
     10       2.00000          -0.859972          -23.40104
     11       2.00000          -0.755776          -20.56572
     12       2.00000          -0.680724          -18.52345
     13       2.00000          -0.642284          -17.47745
     14       2.00000          -0.606794          -16.51171
     15       2.00000          -0.586281          -15.95351
     16       2.00000          -0.559265          -15.21839
     17       2.00000          -0.547400          -14.89550
     18       2.00000          -0.537486          -14.62574
     19       2.00000          -0.519599          -14.13901
     20       2.00000          -0.494749          -13.46281
     21       2.00000          -0.468859          -12.75829
     22       2.00000          -0.431073          -11.73010
     23       2.00000          -0.413959          -11.26441
     24       2.00000          -0.380682          -10.35889
     25       0.00000          -0.155386           -4.22828
     26       0.00000          -0.069854           -1.90082
     27       0.00000          -0.029061           -0.79078
     28       0.00000          -0.020260           -0.55130
     29       0.00000          -0.000142           -0.00386
     30       0.00000           0.009827            0.26740
     31       0.00000           0.018162            0.49422
     32       0.00000           0.029659            0.80706
     33       0.00000           0.052692            1.43382
     34       0.00000           0.058647            1.59586
     35       0.00000           0.099976            2.72048
     36       0.00000           0.132206            3.59752
     37       0.00000           0.154541            4.20529
     38       0.00000           0.203578            5.53963
     39       0.00000           0.221509            6.02756
     40       0.00000           0.234492            6.38086
     41       0.00000           0.253469            6.89724
     42       0.00000           0.274676            7.47430
     43       0.00000           0.293442            7.98496
     44       0.00000           0.296712            8.07395
     45       0.00000           0.314128            8.54785
     46       0.00000           0.357602            9.73084
     47       0.00000           0.364944            9.93062
     48       0.00000           0.392993           10.69389
     49       0.00000           0.427432           11.63102
     50       0.00000           0.484089           13.17273
     51       0.00000           0.522680           14.22284
     52       0.00000           0.532897           14.50086
     53       0.00000           0.568330           15.46504

  Highest occupied state (VBM) at    -10.35889466 eV
  | Occupation number:      2.00000000

  Lowest unoccupied state (CBM) at    -4.22827745 eV
  | Occupation number:      0.00000000

  Overall HOMO-LUMO gap:      6.13061721 eV.
  Calculating total energy contributions from superposition of free atom densities.

  Total energy components:
  | Sum of eigenvalues            :        -188.86961572 Ha       -5139.40373362 eV
  | XC energy correction          :         -41.80646019 Ha       -1137.61166280 eV
  | XC potential correction       :          53.74465461 Ha        1462.46646146 eV
  | Free-atom electrostatic energy:        -146.82091767 Ha       -3995.20044323 eV
  | Hartree energy correction     :           0.00000000 Ha           0.00000000 eV
  | vdW energy correction         :           0.00000000 Ha           0.00000000 eV
  | Entropy correction            :           0.00000000 Ha           0.00000000 eV
  | ---------------------------
  | Total energy                  :        -323.75233896 Ha       -8809.74937820 eV
  | Total energy, T -> 0          :        -323.75233896 Ha       -8809.74937820 eV  <-- do not rely on this value for anything but (periodic) metals
  | Electronic free energy        :        -323.75233896 Ha       -8809.74937820 eV

  Derived energy quantities:
  | Kinetic energy                :         320.53917226 Ha        8722.31466372 eV
  | Electrostatic energy          :        -602.48505103 Ha      -16394.45237912 eV
  | Energy correction for multipole
  | error in Hartree potential    :           0.00000000 Ha           0.00000000 eV
  | Sum of eigenvalues per atom                           :        -395.33874874 eV
  | Total energy (T->0) per atom                          :        -677.67302909 eV  <-- do not rely on this value for anything but (periodic) metals
  | Electronic free energy per atom                       :        -677.67302909 eV
  Initialize hartree_potential_storage
  Max. number of atoms included in rho_multipole:           13

  End scf initialization - timings             :  max(cpu_time)    wall_clock(cpu1)
  | Time for scf. initialization               :        1.150 s           1.157 s
  | Boundary condition initialization          :        0.000 s           0.000 s
  | Integration                                :        0.706 s           0.706 s
  | Solution of K.-S. eqns.                    :        0.004 s           0.005 s
  | Grid partitioning                          :        0.111 s           0.112 s
  | Preloading free-atom quantities on grid    :        0.002 s           0.002 s
  | Free-atom superposition energy             :        0.085 s           0.085 s
  | Total energy evaluation                    :        0.000 s           0.000 s

  Partial memory accounting:
  | Current value for overall tracked memory usage on task 0  :           0.165 MB
  | Peak value for overall tracked memory usage on task 0     :           0.678 MB after allocating wave
  | Largest tracked array allocation on task 0 so far         :           0.132 MB  when allocating H_times_psi
  Note:  These values currently only include a subset of arrays which are explicitly tracked.
  The "true" memory usage will be greater.
------------------------------------------------------------

------------------------------------------------------------
          Begin self-consistency iteration #    1

  Date     :  20200710, Time     :  151612.630
------------------------------------------------------------
  Evaluating new KS density.
  Integration grid: deviation in total charge (<rho> - N_e) =   1.421085E-14
  Pulay mixing of updated and previous charge densities.

  Evaluating partitioned Hartree potential by multipole expansion.
  | Analytical far-field extrapolation by fixed multipoles:
  | Hartree multipole sum: apparent total charge =  -0.139123E-03
  Summing up the Hartree potential.
  Time summed over all CPUs for potential: real work        0.280 s, elapsed        0.280 s
  | RMS charge density error from multipole expansion :   0.590067E-02

  Integrating Hamiltonian matrix: batch-based integration.
  Time summed over all CPUs for integration: real work        0.494 s, elapsed        0.494 s

  Updating Kohn-Sham eigenvalues and eigenvectors using ELSI and the ELPA eigensolver.
  Finished Cholesky decomposition
  | Time :     0.000 s
  Finished transformation to standard eigenproblem
  | Time :     0.000 s
  Starting LAPACK eigensolver
  Finished solving standard eigenproblem
  | Time :     0.002 s
  Finished back-transformation of eigenvectors
  | Time :     0.000 s

  Obtaining occupation numbers and chemical potential using ELSI.
  | Chemical potential (Fermi level):    -4.42378329eV
  Writing Kohn-Sham eigenvalues.

  State    Occupation    Eigenvalue [Ha]    Eigenvalue [eV]
      1       2.00000         -18.908885         -514.53693
      2       2.00000         -18.834622         -512.51615
      3       2.00000         -14.103507         -383.77596
      4       2.00000         -10.117471         -275.31041
      5       2.00000         -10.066520         -273.92394
      6       2.00000         -10.036175         -273.09821
      7       2.00000          -1.137337          -30.94851
      8       2.00000          -1.038165          -28.24992
      9       2.00000          -0.928530          -25.26658
     10       2.00000          -0.797787          -21.70889
     11       2.00000          -0.706246          -19.21794
     12       2.00000          -0.640184          -17.42030
     13       2.00000          -0.590948          -16.08050
     14       2.00000          -0.554261          -15.08221
     15       2.00000          -0.527378          -14.35070
     16       2.00000          -0.499920          -13.60350
     17       2.00000          -0.490699          -13.35261
     18       2.00000          -0.481890          -13.11289
     19       2.00000          -0.457484          -12.44878
     20       2.00000          -0.441062          -12.00191
     21       2.00000          -0.412296          -11.21913
     22       2.00000          -0.373013          -10.15021
     23       2.00000          -0.343113           -9.33658
     24       2.00000          -0.311444           -8.47482
     25       0.00000          -0.119615           -3.25490
     26       0.00000          -0.051351           -1.39732
     27       0.00000           0.007559            0.20569
     28       0.00000           0.010894            0.29644
     29       0.00000           0.027298            0.74282
     30       0.00000           0.044407            1.20837
     31       0.00000           0.051882            1.41178
     32       0.00000           0.067228            1.82938
     33       0.00000           0.083600            2.27488
     34       0.00000           0.095412            2.59629
     35       0.00000           0.140174            3.81432
     36       0.00000           0.160598            4.37010
     37       0.00000           0.176442            4.80124
     38       0.00000           0.231131            6.28939
     39       0.00000           0.249475            6.78857
     40       0.00000           0.264745            7.20409
     41       0.00000           0.286100            7.78516
     42       0.00000           0.309630            8.42545
     43       0.00000           0.328630            8.94247
     44       0.00000           0.331830            9.02956
     45       0.00000           0.349464            9.50939
     46       0.00000           0.399460           10.86985
     47       0.00000           0.400208           10.89021
     48       0.00000           0.430798           11.72261
     49       0.00000           0.459004           12.49012
     50       0.00000           0.519024           14.12336
     51       0.00000           0.554252           15.08197
     52       0.00000           0.563799           15.34175
     53       0.00000           0.599474           16.31252

  Highest occupied state (VBM) at     -8.47481819 eV
  | Occupation number:      2.00000000

  Lowest unoccupied state (CBM) at    -3.25490176 eV
  | Occupation number:      0.00000000

  Overall HOMO-LUMO gap:      5.21991643 eV.

  Total energy components:
  | Sum of eigenvalues            :        -185.59787398 Ha       -5050.37511136 eV
  | XC energy correction          :         -42.13011839 Ha       -1146.41885049 eV
  | XC potential correction       :          54.16547254 Ha        1473.91749987 eV
  | Free-atom electrostatic energy:        -146.82091767 Ha       -3995.20044323 eV
  | Hartree energy correction     :          -3.18952431 Ha         -86.79137230 eV
  | vdW energy correction         :           0.00000000 Ha           0.00000000 eV
  | Entropy correction            :           0.00000000 Ha           0.00000000 eV
  | ---------------------------
  | Total energy                  :        -323.57296181 Ha       -8804.86827750 eV
  | Total energy, T -> 0          :        -323.57296181 Ha       -8804.86827750 eV  <-- do not rely on this value for anything but (periodic) metals
  | Electronic free energy        :        -323.57296181 Ha       -8804.86827750 eV

  Derived energy quantities:
  | Kinetic energy                :         322.30923132 Ha        8770.48042142 eV
  | Electrostatic energy          :        -603.75207474 Ha      -16428.92984843 eV
  | Energy correction for multipole
  | error in Hartree potential    :           0.01180952 Ha           0.32135344 eV
  | Sum of eigenvalues per atom                           :        -388.49039318 eV
  | Total energy (T->0) per atom                          :        -677.29755981 eV  <-- do not rely on this value for anything but (periodic) metals
  | Electronic free energy per atom                       :        -677.29755981 eV

  Self-consistency convergence accuracy:
  | Change of charge density      :  0.5816E+00
  | Change of sum of eigenvalues  :  0.8903E+02 eV
  | Change of total energy        :  0.4881E+01 eV

  End self-consistency iteration #     1       :  max(cpu_time)    wall_clock(cpu1)
  | Time for this iteration                    :        1.187 s           1.189 s
  | Charge density update                      :        0.396 s           0.397 s
  | Density mixing                             :        0.005 s           0.005 s
  | Hartree multipole update                   :        0.009 s           0.009 s
  | Hartree multipole summation                :        0.281 s           0.281 s
  | Integration                                :        0.494 s           0.494 s
  | Solution of K.-S. eqns.                    :        0.002 s           0.002 s
  | Total energy evaluation                    :        0.000 s           0.000 s

  Partial memory accounting:
  | Current value for overall tracked memory usage on task 0  :           0.165 MB
  | Peak value for overall tracked memory usage on task 0     :           0.695 MB after allocating gradient_basis_wave
  | Largest tracked array allocation on task 0 so far         :           0.397 MB  when allocating gradient_basis_wave
  Note:  These values currently only include a subset of arrays which are explicitly tracked.
  The "true" memory usage will be greater.
------------------------------------------------------------

------------------------------------------------------------
          Begin self-consistency iteration #    2

  Date     :  20200710, Time     :  151613.819
------------------------------------------------------------
  Evaluating new KS density.
  Integration grid: deviation in total charge (<rho> - N_e) =   5.684342E-14
  Pulay mixing of updated and previous charge densities.

  Evaluating partitioned Hartree potential by multipole expansion.
  | Analytical far-field extrapolation by fixed multipoles:
  | Hartree multipole sum: apparent total charge =  -0.270043E-03
  Summing up the Hartree potential.
  Time summed over all CPUs for potential: real work        0.279 s, elapsed        0.279 s
  | RMS charge density error from multipole expansion :   0.139523E-01

  Integrating Hamiltonian matrix: batch-based integration.
  Time summed over all CPUs for integration: real work        0.493 s, elapsed        0.493 s

  Updating Kohn-Sham eigenvalues and eigenvectors using ELSI and the ELPA eigensolver.
  Finished Cholesky decomposition
  | Time :     0.000 s
  Finished transformation to standard eigenproblem
  | Time :     0.000 s
  Starting LAPACK eigensolver
  Finished solving standard eigenproblem
  | Time :     0.002 s
  Finished back-transformation of eigenvectors
  | Time :     0.000 s

  Obtaining occupation numbers and chemical potential using ELSI.
  | Chemical potential (Fermi level):    -3.36206674eV
  Highest occupied state (VBM) at     -6.62765780 eV
  | Occupation number:      2.00000000

  Lowest unoccupied state (CBM) at    -2.01193878 eV
  | Occupation number:      0.00000000

  Overall HOMO-LUMO gap:      4.61571902 eV.

  Checking to see if s.c.f. parameters should be adjusted.

  Total energy components:
  | Sum of eigenvalues            :        -182.17880917 Ha       -4957.33762411 eV
  | XC energy correction          :         -42.48101948 Ha       -1155.96735510 eV
  | XC potential correction       :          54.62008933 Ha        1486.28825209 eV
  | Free-atom electrostatic energy:        -146.82091767 Ha       -3995.20044323 eV
  | Hartree energy correction     :          -6.63562709 Ha        -180.56460019 eV
  | vdW energy correction         :           0.00000000 Ha           0.00000000 eV
  | Entropy correction            :           0.00000000 Ha           0.00000000 eV
  | ---------------------------
  | Total energy                  :        -323.49628408 Ha       -8802.78177053 eV
  | Total energy, T -> 0          :        -323.49628408 Ha       -8802.78177053 eV  <-- do not rely on this value for anything but (periodic) metals
  | Electronic free energy        :        -323.49628408 Ha       -8802.78177053 eV

  Derived energy quantities:
  | Kinetic energy                :         323.60337297 Ha        8805.69580735 eV
  | Electrostatic energy          :        -604.61863757 Ha      -16452.51022278 eV
  | Energy correction for multipole
  | error in Hartree potential    :           0.02577579 Ha           0.70139491 eV
  | Sum of eigenvalues per atom                           :        -381.33366339 eV
  | Total energy (T->0) per atom                          :        -677.13705927 eV  <-- do not rely on this value for anything but (periodic) metals
  | Electronic free energy per atom                       :        -677.13705927 eV

  Self-consistency convergence accuracy:
  | Change of charge density      :  0.3637E+00
  | Change of sum of eigenvalues  :  0.9304E+02 eV
  | Change of total energy        :  0.2087E+01 eV

  End self-consistency iteration #     2       :  max(cpu_time)    wall_clock(cpu1)
  | Time for this iteration                    :        1.180 s           1.181 s
  | Charge density update                      :        0.389 s           0.389 s
  | Density mixing                             :        0.007 s           0.007 s
  | Hartree multipole update                   :        0.009 s           0.009 s
  | Hartree multipole summation                :        0.280 s           0.280 s
  | Integration                                :        0.493 s           0.493 s
  | Solution of K.-S. eqns.                    :        0.002 s           0.002 s
  | Total energy evaluation                    :        0.000 s           0.000 s

  Partial memory accounting:
  | Current value for overall tracked memory usage on task 0  :           0.166 MB
  | Peak value for overall tracked memory usage on task 0     :           0.695 MB after allocating gradient_basis_wave
  | Largest tracked array allocation on task 0 so far         :           0.397 MB  when allocating gradient_basis_wave
  Note:  These values currently only include a subset of arrays which are explicitly tracked.
  The "true" memory usage will be greater.
------------------------------------------------------------

------------------------------------------------------------
          Begin self-consistency iteration #    3

  Date     :  20200710, Time     :  151615.000
------------------------------------------------------------
  Evaluating new KS density.
  Integration grid: deviation in total charge (<rho> - N_e) =   4.263256E-14
  Pulay mixing of updated and previous charge densities.

  Evaluating partitioned Hartree potential by multipole expansion.
  | Analytical far-field extrapolation by fixed multipoles:
  | Hartree multipole sum: apparent total charge =  -0.359596E-03
  Summing up the Hartree potential.
  Time summed over all CPUs for potential: real work        0.280 s, elapsed        0.280 s
  | RMS charge density error from multipole expansion :   0.219740E-01

  Integrating Hamiltonian matrix: batch-based integration.
  Time summed over all CPUs for integration: real work        0.494 s, elapsed        0.494 s

  Updating Kohn-Sham eigenvalues and eigenvectors using ELSI and the ELPA eigensolver.
  Finished Cholesky decomposition
  | Time :     0.000 s
  Finished transformation to standard eigenproblem
  | Time :     0.000 s
  Starting LAPACK eigensolver
  Finished solving standard eigenproblem
  | Time :     0.001 s
  Finished back-transformation of eigenvectors
  | Time :     0.000 s

  Obtaining occupation numbers and chemical potential using ELSI.
  | Chemical potential (Fermi level):    -2.80976791eV
  Highest occupied state (VBM) at     -5.99924800 eV
  | Occupation number:      2.00000000

  Lowest unoccupied state (CBM) at    -1.30603961 eV
  | Occupation number:      0.00000000

  Overall HOMO-LUMO gap:      4.69320839 eV.

  Total energy components:
  | Sum of eigenvalues            :        -180.86331225 Ha       -4921.54113160 eV
  | XC energy correction          :         -42.63540966 Ha       -1160.16852560 eV
  | XC potential correction       :          54.81687471 Ha        1491.64305477 eV
  | Free-atom electrostatic energy:        -146.82091767 Ha       -3995.20044323 eV
  | Hartree energy correction     :          -7.98096665 Ha        -217.17315213 eV
  | vdW energy correction         :           0.00000000 Ha           0.00000000 eV
  | Entropy correction            :           0.00000000 Ha           0.00000000 eV
  | ---------------------------
  | Total energy                  :        -323.48373152 Ha       -8802.44019778 eV
  | Total energy, T -> 0          :        -323.48373152 Ha       -8802.44019778 eV  <-- do not rely on this value for anything but (periodic) metals
  | Electronic free energy        :        -323.48373152 Ha       -8802.44019778 eV

  Derived energy quantities:
  | Kinetic energy                :         323.24979608 Ha        8796.07449074 eV
  | Electrostatic energy          :        -604.09811794 Ha      -16438.34616293 eV
  | Energy correction for multipole
  | error in Hartree potential    :           0.03627027 Ha           0.98696426 eV
  | Sum of eigenvalues per atom                           :        -378.58008705 eV
  | Total energy (T->0) per atom                          :        -677.11078444 eV  <-- do not rely on this value for anything but (periodic) metals
  | Electronic free energy per atom                       :        -677.11078444 eV

  Self-consistency convergence accuracy:
  | Change of charge density      :  0.2046E+00
  | Change of sum of eigenvalues  :  0.3580E+02 eV
  | Change of total energy        :  0.3416E+00 eV

  End self-consistency iteration #     3       :  max(cpu_time)    wall_clock(cpu1)
  | Time for this iteration                    :        1.181 s           1.182 s
  | Charge density update                      :        0.388 s           0.388 s
  | Density mixing                             :        0.008 s           0.009 s
  | Hartree multipole update                   :        0.009 s           0.009 s
  | Hartree multipole summation                :        0.280 s           0.280 s
  | Integration                                :        0.494 s           0.494 s
  | Solution of K.-S. eqns.                    :        0.002 s           0.002 s
  | Total energy evaluation                    :        0.000 s           0.000 s

  Partial memory accounting:
  | Current value for overall tracked memory usage on task 0  :           0.166 MB
  | Peak value for overall tracked memory usage on task 0     :           0.695 MB after allocating gradient_basis_wave
  | Largest tracked array allocation on task 0 so far         :           0.397 MB  when allocating gradient_basis_wave
  Note:  These values currently only include a subset of arrays which are explicitly tracked.
  The "true" memory usage will be greater.
------------------------------------------------------------

------------------------------------------------------------
          Begin self-consistency iteration #    4

  Date     :  20200710, Time     :  151616.183
------------------------------------------------------------
  Evaluating new KS density.
  Integration grid: deviation in total charge (<rho> - N_e) =  -7.105427E-15
  Pulay mixing of updated and previous charge densities.

  Evaluating partitioned Hartree potential by multipole expansion.
  | Analytical far-field extrapolation by fixed multipoles:
  | Hartree multipole sum: apparent total charge =  -0.388728E-03
  Summing up the Hartree potential.
  Time summed over all CPUs for potential: real work        0.280 s, elapsed        0.280 s
  | RMS charge density error from multipole expansion :   0.255234E-01

  Integrating Hamiltonian matrix: batch-based integration.
  Time summed over all CPUs for integration: real work        0.494 s, elapsed        0.494 s

  Updating Kohn-Sham eigenvalues and eigenvectors using ELSI and the ELPA eigensolver.
  Finished Cholesky decomposition
  | Time :     0.000 s
  Finished transformation to standard eigenproblem
  | Time :     0.000 s
  Starting LAPACK eigensolver
  Finished solving standard eigenproblem
  | Time :     0.001 s
  Finished back-transformation of eigenvectors
  | Time :     0.000 s

  Obtaining occupation numbers and chemical potential using ELSI.
  | Chemical potential (Fermi level):    -2.71694093eV
  Highest occupied state (VBM) at     -5.79541355 eV
  | Occupation number:      2.00000000

  Lowest unoccupied state (CBM) at    -1.22103730 eV
  | Occupation number:      0.00000000

  Overall HOMO-LUMO gap:      4.57437625 eV.

  Total energy components:
  | Sum of eigenvalues            :        -180.75759579 Ha       -4918.66444038 eV
  | XC energy correction          :         -42.67247414 Ha       -1161.17710132 eV
  | XC potential correction       :          54.86326183 Ha        1492.90531253 eV
  | Free-atom electrostatic energy:        -146.82091767 Ha       -3995.20044323 eV
  | Hartree energy correction     :          -8.09493907 Ha        -220.27449966 eV
  | vdW energy correction         :           0.00000000 Ha           0.00000000 eV
  | Entropy correction            :           0.00000000 Ha           0.00000000 eV
  | ---------------------------
  | Total energy                  :        -323.48266484 Ha       -8802.41117206 eV
  | Total energy, T -> 0          :        -323.48266484 Ha       -8802.41117206 eV  <-- do not rely on this value for anything but (periodic) metals
  | Electronic free energy        :        -323.48266484 Ha       -8802.41117206 eV

  Derived energy quantities:
  | Kinetic energy                :         322.84892119 Ha        8785.16612987 eV
  | Electrostatic energy          :        -603.65911189 Ha      -16426.40020061 eV
  | Energy correction for multipole
  | error in Hartree potential    :           0.04036476 Ha           1.09838090 eV
  | Sum of eigenvalues per atom                           :        -378.35880311 eV
  | Total energy (T->0) per atom                          :        -677.10855170 eV  <-- do not rely on this value for anything but (periodic) metals
  | Electronic free energy per atom                       :        -677.10855170 eV

  Self-consistency convergence accuracy:
  | Change of charge density      :  0.6825E-01
  | Change of sum of eigenvalues  :  0.2877E+01 eV
  | Change of total energy        :  0.2903E-01 eV

  End self-consistency iteration #     4       :  max(cpu_time)    wall_clock(cpu1)
  | Time for this iteration                    :        1.183 s           1.183 s
  | Charge density update                      :        0.388 s           0.388 s
  | Density mixing                             :        0.009 s           0.009 s
  | Hartree multipole update                   :        0.009 s           0.008 s
  | Hartree multipole summation                :        0.280 s           0.281 s
  | Integration                                :        0.494 s           0.494 s
  | Solution of K.-S. eqns.                    :        0.002 s           0.002 s
  | Total energy evaluation                    :        0.000 s           0.000 s

  Partial memory accounting:
  | Current value for overall tracked memory usage on task 0  :           0.166 MB
  | Peak value for overall tracked memory usage on task 0     :           0.696 MB after allocating gradient_basis_wave
  | Largest tracked array allocation on task 0 so far         :           0.397 MB  when allocating gradient_basis_wave
  Note:  These values currently only include a subset of arrays which are explicitly tracked.
  The "true" memory usage will be greater.
------------------------------------------------------------

------------------------------------------------------------
          Begin self-consistency iteration #    5

  Date     :  20200710, Time     :  151617.367
------------------------------------------------------------
  Evaluating new KS density.
  Integration grid: deviation in total charge (<rho> - N_e) =  -2.842171E-14
  Pulay mixing of updated and previous charge densities.

  Evaluating partitioned Hartree potential by multipole expansion.
  | Analytical far-field extrapolation by fixed multipoles:
  | Hartree multipole sum: apparent total charge =  -0.383268E-03
  Summing up the Hartree potential.
  Time summed over all CPUs for potential: real work        0.280 s, elapsed        0.280 s
  | RMS charge density error from multipole expansion :   0.252923E-01

  Integrating Hamiltonian matrix: batch-based integration.
  Time summed over all CPUs for integration: real work        0.494 s, elapsed        0.494 s

  Updating Kohn-Sham eigenvalues and eigenvectors using ELSI and the ELPA eigensolver.
  Finished Cholesky decomposition
  | Time :     0.000 s
  Finished transformation to standard eigenproblem
  | Time :     0.000 s
  Starting LAPACK eigensolver
  Finished solving standard eigenproblem
  | Time :     0.002 s
  Finished back-transformation of eigenvectors
  | Time :     0.000 s

  Obtaining occupation numbers and chemical potential using ELSI.
  | Chemical potential (Fermi level):    -2.76181161eV
  Highest occupied state (VBM) at     -5.89767094 eV
  | Occupation number:      2.00000000

  Lowest unoccupied state (CBM) at    -1.30139125 eV
  | Occupation number:      0.00000000

  Overall HOMO-LUMO gap:      4.59627969 eV.

  Total energy components:
  | Sum of eigenvalues            :        -180.92378391 Ha       -4923.18664929 eV
  | XC energy correction          :         -42.65121918 Ha       -1160.59872458 eV
  | XC potential correction       :          54.83569647 Ha        1492.15522095 eV
  | Free-atom electrostatic energy:        -146.82091767 Ha       -3995.20044323 eV
  | Hartree energy correction     :          -7.92215012 Ha        -215.57267295 eV
  | vdW energy correction         :           0.00000000 Ha           0.00000000 eV
  | Entropy correction            :           0.00000000 Ha           0.00000000 eV
  | ---------------------------
  | Total energy                  :        -323.48237441 Ha       -8802.40326910 eV
  | Total energy, T -> 0          :        -323.48237441 Ha       -8802.40326910 eV  <-- do not rely on this value for anything but (periodic) metals
  | Electronic free energy        :        -323.48237441 Ha       -8802.40326910 eV

  Derived energy quantities:
  | Kinetic energy                :         322.75206855 Ha        8782.53063542 eV
  | Electrostatic energy          :        -603.58322378 Ha      -16424.33517993 eV
  | Energy correction for multipole
  | error in Hartree potential    :           0.03977230 Ha           1.08225927 eV
  | Sum of eigenvalues per atom                           :        -378.70666533 eV
  | Total energy (T->0) per atom                          :        -677.10794378 eV  <-- do not rely on this value for anything but (periodic) metals
  | Electronic free energy per atom                       :        -677.10794378 eV

  Self-consistency convergence accuracy:
  | Change of charge density      :  0.2174E-01
  | Change of sum of eigenvalues  : -0.4522E+01 eV
  | Change of total energy        :  0.7903E-02 eV

  End self-consistency iteration #     5       :  max(cpu_time)    wall_clock(cpu1)
  | Time for this iteration                    :        1.183 s           1.184 s
  | Charge density update                      :        0.388 s           0.388 s
  | Density mixing                             :        0.011 s           0.010 s
  | Hartree multipole update                   :        0.009 s           0.009 s
  | Hartree multipole summation                :        0.280 s           0.280 s
  | Integration                                :        0.494 s           0.494 s
  | Solution of K.-S. eqns.                    :        0.002 s           0.003 s
  | Total energy evaluation                    :        0.000 s           0.000 s

  Partial memory accounting:
  | Current value for overall tracked memory usage on task 0  :           0.166 MB
  | Peak value for overall tracked memory usage on task 0     :           0.696 MB after allocating gradient_basis_wave
  | Largest tracked array allocation on task 0 so far         :           0.397 MB  when allocating gradient_basis_wave
  Note:  These values currently only include a subset of arrays which are explicitly tracked.
  The "true" memory usage will be greater.
------------------------------------------------------------

------------------------------------------------------------
          Begin self-consistency iteration #    6

  Date     :  20200710, Time     :  151618.552
------------------------------------------------------------
  Evaluating new KS density.
  Integration grid: deviation in total charge (<rho> - N_e) =   1.421085E-14
  Pulay mixing of updated and previous charge densities.

  Evaluating partitioned Hartree potential by multipole expansion.
  | Analytical far-field extrapolation by fixed multipoles:
  | Hartree multipole sum: apparent total charge =  -0.385343E-03
  Summing up the Hartree potential.
  Time summed over all CPUs for potential: real work        0.280 s, elapsed        0.280 s
  | RMS charge density error from multipole expansion :   0.256805E-01

  Integrating Hamiltonian matrix: batch-based integration.
  Time summed over all CPUs for integration: real work        0.494 s, elapsed        0.494 s

  Updating Kohn-Sham eigenvalues and eigenvectors using ELSI and the ELPA eigensolver.
  Finished Cholesky decomposition
  | Time :     0.000 s
  Finished transformation to standard eigenproblem
  | Time :     0.000 s
  Starting LAPACK eigensolver
  Finished solving standard eigenproblem
  | Time :     0.001 s
  Finished back-transformation of eigenvectors
  | Time :     0.000 s

  Obtaining occupation numbers and chemical potential using ELSI.
  | Chemical potential (Fermi level):    -2.76484752eV
  Highest occupied state (VBM) at     -5.88763446 eV
  | Occupation number:      2.00000000

  Lowest unoccupied state (CBM) at    -1.32970785 eV
  | Occupation number:      0.00000000

  Overall HOMO-LUMO gap:      4.55792661 eV.

  Total energy components:
  | Sum of eigenvalues            :        -180.95202405 Ha       -4923.95510245 eV
  | XC energy correction          :         -42.64787234 Ha       -1160.50765240 eV
  | XC potential correction       :          54.83131262 Ha        1492.03593043 eV
  | Free-atom electrostatic energy:        -146.82091767 Ha       -3995.20044323 eV
  | Hartree energy correction     :          -7.89281783 Ha        -214.77450078 eV
  | vdW energy correction         :           0.00000000 Ha           0.00000000 eV
  | Entropy correction            :           0.00000000 Ha           0.00000000 eV
  | ---------------------------
  | Total energy                  :        -323.48231926 Ha       -8802.40176843 eV
  | Total energy, T -> 0          :        -323.48231926 Ha       -8802.40176843 eV  <-- do not rely on this value for anything but (periodic) metals
  | Electronic free energy        :        -323.48231926 Ha       -8802.40176843 eV

  Derived energy quantities:
  | Kinetic energy                :         322.66635816 Ha        8780.19833722 eV
  | Electrostatic energy          :        -603.50080509 Ha      -16422.09245325 eV
  | Energy correction for multipole
  | error in Hartree potential    :           0.04002258 Ha           1.08906986 eV
  | Sum of eigenvalues per atom                           :        -378.76577711 eV
  | Total energy (T->0) per atom                          :        -677.10782834 eV  <-- do not rely on this value for anything but (periodic) metals
  | Electronic free energy per atom                       :        -677.10782834 eV

  Self-consistency convergence accuracy:
  | Change of charge density      :  0.1070E-01
  | Change of sum of eigenvalues  : -0.7685E+00 eV
  | Change of total energy        :  0.1501E-02 eV

  End self-consistency iteration #     6       :  max(cpu_time)    wall_clock(cpu1)
  | Time for this iteration                    :        1.185 s           1.185 s
  | Charge density update                      :        0.388 s           0.387 s
  | Density mixing                             :        0.012 s           0.012 s
  | Hartree multipole update                   :        0.009 s           0.009 s
  | Hartree multipole summation                :        0.280 s           0.281 s
  | Integration                                :        0.494 s           0.494 s
  | Solution of K.-S. eqns.                    :        0.002 s           0.002 s
  | Total energy evaluation                    :        0.000 s           0.000 s

  Partial memory accounting:
  | Current value for overall tracked memory usage on task 0  :           0.166 MB
  | Peak value for overall tracked memory usage on task 0     :           0.696 MB after allocating gradient_basis_wave
  | Largest tracked array allocation on task 0 so far         :           0.397 MB  when allocating gradient_basis_wave
  Note:  These values currently only include a subset of arrays which are explicitly tracked.
  The "true" memory usage will be greater.
------------------------------------------------------------

------------------------------------------------------------
          Begin self-consistency iteration #    7

  Date     :  20200710, Time     :  151619.738
------------------------------------------------------------
  Evaluating new KS density.
  Integration grid: deviation in total charge (<rho> - N_e) =  -4.973799E-14
  Pulay mixing of updated and previous charge densities.

  Evaluating partitioned Hartree potential by multipole expansion.
  | Analytical far-field extrapolation by fixed multipoles:
  | Hartree multipole sum: apparent total charge =  -0.385978E-03
  Summing up the Hartree potential.
  Time summed over all CPUs for potential: real work        0.280 s, elapsed        0.280 s
  | RMS charge density error from multipole expansion :   0.258134E-01

  Integrating Hamiltonian matrix: batch-based integration.
  Time summed over all CPUs for integration: real work        0.493 s, elapsed        0.493 s

  Updating Kohn-Sham eigenvalues and eigenvectors using ELSI and the ELPA eigensolver.
  Finished Cholesky decomposition
  | Time :     0.000 s
  Finished transformation to standard eigenproblem
  | Time :     0.000 s
  Starting LAPACK eigensolver
  Finished solving standard eigenproblem
  | Time :     0.002 s
  Finished back-transformation of eigenvectors
  | Time :     0.000 s

[...]
  |   Hirshfeld dipole moment :      0.05815363
  |   Hirshfeld second moments:      0.00454189      -0.02961138      -0.01927607
  |                                 -0.02961138      -0.02127686       0.00991923
  |                                 -0.01927607       0.00991923      -0.01436106
  ----------------------------------------------------------------------
  | Atom    12: O
  |   Hirshfeld charge        :     -0.14315810
  |   Free atom volume        :     23.61338643
  |   Hirshfeld volume        :     20.89688544
  |   Hirshfeld dipole vector :      0.01221851       0.04167971      -0.00582696
  |   Hirshfeld dipole moment :      0.04382287
  |   Hirshfeld second moments:      0.09388121      -0.01827784       0.01683839
  |                                 -0.01827784       0.03141556       0.00641453
  |                                  0.01683839       0.00641453       0.05315687
  ----------------------------------------------------------------------
  | Atom    13: H
  |   Hirshfeld charge        :      0.16135682
  |   Free atom volume        :      9.95071624
  |   Hirshfeld volume        :      6.45433899
  |   Hirshfeld dipole vector :     -0.09188587       0.04638155      -0.03171429
  |   Hirshfeld dipole moment :      0.10770357
  |   Hirshfeld second moments:      0.11815667      -0.00439745       0.00265283
  |                                 -0.00439745       0.08885213       0.02020324
  |                                  0.00265283       0.02020324       0.10789420
  ----------------------------------------------------------------------


  Total energy components:
  | Sum of eigenvalues            :        -180.94917713 Ha       -4923.87763381 eV
  | XC energy correction          :         -42.64506562 Ha       -1160.43127762 eV
  | XC potential correction       :          54.82775399 Ha        1491.93909498 eV
  | Free-atom electrostatic energy:        -146.82091767 Ha       -3995.20044323 eV
  | Hartree energy correction     :          -7.89489011 Ha        -214.83089046 eV
  | vdW energy correction         :          -0.00331019 Ha          -0.09007491 eV
  | Entropy correction            :           0.00000000 Ha           0.00000000 eV
  | ---------------------------
  | Total energy                  :        -323.48560673 Ha       -8802.49122506 eV
  | Total energy, T -> 0          :        -323.48560673 Ha       -8802.49122506 eV  <-- do not rely on this value for anything but (periodic) metals
  | Electronic free energy        :        -323.48560673 Ha       -8802.49122506 eV

  Derived energy quantities:
  | Kinetic energy                :         322.62734581 Ha        8779.13675707 eV
  | Electrostatic energy          :        -603.46457673 Ha      -16421.10662959 eV
  | Energy correction for multipole
  | error in Hartree potential    :           0.04006316 Ha           1.09017413 eV
  | Sum of eigenvalues per atom                           :        -378.75981799 eV
  | Total energy (T->0) per atom                          :        -677.11470962 eV  <-- do not rely on this value for anything but (periodic) metals
  | Electronic free energy per atom                       :        -677.11470962 eV

  atomic forces [eV/Ang]:
  -----------------------
  atom #    1
   Hellmann-Feynman              :  0.315710E+00 -0.109199E+00  0.142241E+01
   Ionic forces                  :  0.000000E+00  0.000000E+00  0.000000E+00
   Multipole                     : -0.142476E+00  0.309887E+00 -0.250568E+00
   Pulay + GGA                   : -0.736017E+00  0.943659E-01 -0.153767E+01
   Van der Waals                 :  0.309363E-02  0.154056E-02 -0.132526E-02
   ----------------------------------------------------------------
   Total forces(   1)            : -0.559689E+00  0.296595E+00 -0.367146E+00
  atom #    2
   Hellmann-Feynman              :  0.349893E+00 -0.605142E-01  0.100504E+00
   Ionic forces                  :  0.000000E+00  0.000000E+00  0.000000E+00
   Multipole                     :  0.174262E+00  0.309625E-01 -0.369218E-01
   Pulay + GGA                   : -0.164429E+00  0.265420E-01 -0.184411E-01
   Van der Waals                 :  0.453217E-02 -0.355954E-02 -0.652941E-02
   ----------------------------------------------------------------
   Total forces(   2)            :  0.364257E+00 -0.656920E-02  0.386112E-01
  atom #    3
   Hellmann-Feynman              :  0.881589E+01  0.184503E+01 -0.530729E+01
   Ionic forces                  :  0.000000E+00  0.000000E+00  0.000000E+00
   Multipole                     : -0.303561E+00  0.160524E+00 -0.116039E+01
   Pulay + GGA                   : -0.822850E+01 -0.194511E+01  0.706444E+01
   Van der Waals                 :  0.431859E-02 -0.454171E-02 -0.895312E-02
   ----------------------------------------------------------------
   Total forces(   3)            :  0.288143E+00  0.559038E-01  0.587809E+00
  atom #    4
   Hellmann-Feynman              : -0.109246E-01  0.882590E-01 -0.414979E+00
   Ionic forces                  :  0.000000E+00  0.000000E+00  0.000000E+00
   Multipole                     : -0.613937E-01 -0.661488E-01 -0.658789E-01
   Pulay + GGA                   :  0.235882E+00  0.181426E+00 -0.595243E-01
   Van der Waals                 : -0.184141E-02  0.342427E-02  0.199951E-02
   ----------------------------------------------------------------
   Total forces(   4)            :  0.161723E+00  0.206961E+00 -0.538383E+00
  atom #    5
   Hellmann-Feynman              : -0.321255E+00  0.322172E-01 -0.108072E+00
   Ionic forces                  :  0.000000E+00  0.000000E+00  0.000000E+00
   Multipole                     : -0.826016E-01  0.319232E-01 -0.510491E-01
   Pulay + GGA                   :  0.213294E+00 -0.894520E-01 -0.373185E-01
   Van der Waals                 : -0.291646E-03 -0.327269E-02 -0.833767E-02
   ----------------------------------------------------------------
   Total forces(   5)            : -0.190855E+00 -0.285842E-01 -0.204777E+00
  atom #    6
   Hellmann-Feynman              :  0.198202E+00 -0.469060E+00  0.159913E+00
   Ionic forces                  :  0.000000E+00  0.000000E+00  0.000000E+00
   Multipole                     : -0.150046E+00  0.565715E+00  0.282734E+00
   Pulay + GGA                   :  0.249887E+00 -0.501877E+00 -0.382130E+00
   Van der Waals                 : -0.369637E-02  0.383433E-02 -0.341948E-02
   ----------------------------------------------------------------
   Total forces(   6)            :  0.294347E+00 -0.401387E+00  0.570971E-01
  atom #    7
   Hellmann-Feynman              : -0.258956E+00 -0.593884E-01 -0.279107E-01
   Ionic forces                  :  0.000000E+00  0.000000E+00  0.000000E+00
   Multipole                     : -0.116669E+00  0.503638E-01  0.277448E-01
   Pulay + GGA                   :  0.101778E+00  0.245577E-01  0.359623E-01
   Van der Waals                 : -0.292329E-02  0.316888E-03  0.672451E-02
   ----------------------------------------------------------------
   Total forces(   7)            : -0.276770E+00  0.158500E-01  0.425208E-01
  atom #    8
   Hellmann-Feynman              :  0.797814E-01 -0.218042E-01  0.146497E+00
   Ionic forces                  :  0.000000E+00  0.000000E+00  0.000000E+00
   Multipole                     :  0.111001E-01  0.653118E-01  0.123371E+00
   Pulay + GGA                   : -0.468911E-01 -0.455823E-01 -0.118647E+00
   Van der Waals                 : -0.332483E-02  0.110739E-01  0.524646E-03
   ----------------------------------------------------------------
   Total forces(   8)            :  0.406655E-01  0.899923E-02  0.151746E+00
  atom #    9
   Hellmann-Feynman              :  0.997521E-01  0.730177E-01 -0.170976E+00
   Ionic forces                  :  0.000000E+00  0.000000E+00  0.000000E+00
   Multipole                     :  0.189642E-01  0.132307E+00 -0.111355E-01
   Pulay + GGA                   : -0.281397E-01 -0.903435E-01  0.544145E-01
   Van der Waals                 : -0.111557E-03  0.702114E-02  0.844765E-02
   ----------------------------------------------------------------
   Total forces(   9)            :  0.904650E-01  0.122002E+00 -0.119250E+00
  atom #   10
   Hellmann-Feynman              :  0.272784E+01  0.487446E+01  0.245358E+01
   Ionic forces                  :  0.000000E+00  0.000000E+00  0.000000E+00
   Multipole                     :  0.578221E-01 -0.115094E-01  0.226961E+00
   Pulay + GGA                   : -0.991350E+00 -0.329548E+01 -0.424936E+00
   Van der Waals                 :  0.339171E-02 -0.135813E-01  0.177719E-02
   ----------------------------------------------------------------
   Total forces(  10)            :  0.179770E+01  0.155389E+01  0.225739E+01
  atom #   11
   Hellmann-Feynman              :  0.388980E+01 -0.241430E+01  0.141407E+02
   Ionic forces                  :  0.000000E+00  0.000000E+00  0.000000E+00
   Multipole                     :  0.275833E-03 -0.463508E+00  0.783405E+00
   Pulay + GGA                   : -0.284180E+01  0.333205E+01 -0.141220E+02
   Van der Waals                 : -0.160133E-03 -0.121152E-01  0.547923E-02
   ----------------------------------------------------------------
   Total forces(  11)            :  0.104812E+01  0.442134E+00  0.807638E+00
  atom #   12
   Hellmann-Feynman              : -0.130167E+01 -0.149767E+02 -0.236123E+01
   Ionic forces                  :  0.000000E+00  0.000000E+00  0.000000E+00
   Multipole                     : -0.832511E+00 -0.154720E+01  0.148357E-01
   Pulay + GGA                   : -0.156382E+00  0.146582E+02  0.709269E+00
   Van der Waals                 : -0.277736E-04  0.819452E-02  0.327871E-02
   ----------------------------------------------------------------
   Total forces(  12)            : -0.229059E+01 -0.185746E+01 -0.163385E+01
  atom #   13
   Hellmann-Feynman              : -0.915562E+00 -0.188316E+00 -0.127454E+01
   Ionic forces                  :  0.000000E+00  0.000000E+00  0.000000E+00
   Multipole                     : -0.858146E-01  0.635480E-01 -0.221964E-01
   Pulay + GGA                   :  0.232856E+00 -0.283864E+00  0.211703E+00
   Van der Waals                 : -0.295909E-02  0.166489E-02  0.333482E-03
   ----------------------------------------------------------------
   Total forces(  13)            : -0.771480E+00 -0.406967E+00 -0.108470E+01

  Timings for VdW correction (Tkatchenko-Scheffler 2009 or later):
  | CPU time:        0.090 s, Wall clock time:        0.090 s.
  Removing unitary transformations (pure translations, rotations) from forces on atoms.
  Atomic forces before filtering:
  | Net force on center of mass :  -0.396098E-02  0.136372E-02 -0.529485E-02 eV/A
  | Net torque on center of mass:   0.525227E-03  0.603231E-03 -0.522153E-02 eV
  Atomic forces after filtering:
  | Net force on center of mass :  -0.267609E-15  0.267609E-15  0.178406E-15 eV/A
  | Net torque on center of mass:  -0.283225E-15 -0.132172E-14  0.000000E+00 eV

  Energy and forces in a compact form:
  | Total energy uncorrected      :         -0.880249122505584E+04 eV
  | Total energy corrected        :         -0.880249122505584E+04 eV  <-- do not rely on this value for anything but (periodic) metals
  | Electronic free energy        :         -0.880249122505584E+04 eV
  Total atomic forces (unitary forces cleaned) [eV/Ang]:
  |   1         -0.559392729769783E+00          0.296588872633512E+00         -0.366730022037813E+00
  |   2          0.364553681989554E+00         -0.637760137301051E-02          0.390437319901707E-01
  |   3          0.288460631611681E+00          0.558093195931549E-01          0.588217278642553E+00
  |   4          0.162209439244145E+00          0.206794876145355E+00         -0.537979063084018E+00
  |   5         -0.190665323186588E+00         -0.288071316020596E-01         -0.204381206292672E+00
  |   6          0.294403969356396E+00         -0.401481291547200E+00          0.575031737277774E-01
  |   7         -0.276718099101200E+00          0.155588684028573E-01          0.429101088767567E-01
  |   8          0.407046970622784E-01          0.897205146962157E-02          0.152157456457028E+00
  |   9          0.903677854018434E-01          0.121972374493571E+00         -0.118839499372270E+00
  |  10          0.179821627364919E+01          0.155381484102936E+01          0.225779820877392E+01
  |  11          0.104867012384879E+01          0.442112966715145E+00          0.808054901882355E+00
  |  12         -0.228990526791155E+01         -0.185766844955767E+01         -0.163344465774396E+01
  |  13         -0.770905182194755E+00         -0.407289696402637E+00         -0.108431041181983E+01

  ------------------------------------ 
  Start decomposition of the XC Energy 
  ------------------------------------ 
  X and C from original XC functional choice 
  Hartree-Fock Energy :          0.000000000 Ha              0.000000000 eV
  X Energy            :        -41.042181368 Ha          -1116.814577924 eV
  C Energy            :         -1.602884252 Ha            -43.616699701 eV
  Total XC Energy     :        -42.645065620 Ha          -1160.431277625 eV
  ------------------------------------ 
  LDA X and C from self-consistent density 
  X Energy LDA        :        -37.264049749 Ha          -1014.006385750 eV
  C Energy LDA        :         -3.139259683 Ha            -85.423602279 eV
  ------------------------------------ 
  End decomposition of the XC Energy 
  ------------------------------------ 

------------------------------------------------------------

------------------------------------------------------------------------------
  Final output of selected total energy values:

  The following output summarizes some interesting total energy values
  at the end of a run (AFTER all relaxation, molecular dynamics, etc.).

  | Total energy of the DFT / Hartree-Fock s.c.f. calculation      :          -8802.491225056 eV
  | Final zero-broadening corrected energy (caution - metals only) :          -8802.491225056 eV
  | For reference only, the value of 1 Hartree used in FHI-aims is :             27.211384500 eV

  Before relying on these values, please be sure to understand exactly which
  total energy value is referred to by a given number. Different objects may
  all carry the same name 'total energy'. Definitions:

  Total energy of the DFT / Hartree-Fock s.c.f. calculation:
  | Note that this energy does not include ANY quantities calculated after the
  | s.c.f. cycle, in particular not ANY RPA, MP2, etc. many-body perturbation terms.

  Final zero-broadening corrected energy:
  | For metallic systems only, a broadening of the occupation numbers at the Fermi
  | level can be extrapolated back to zero broadening by an electron-gas inspired
  | formula. For all systems that are not real metals, this value can be
  | meaningless and should be avoided.

------------------------------------------------------------------------------
  Methods described in the following list of references were used in this FHI-aims run.
  If you publish the results, please make sure to cite these reference if they apply.
  FHI-aims is an academic code, and for our developers (often, Ph.D. students
  and postdocs), scientific credit in the community is essential.
  Thank you for helping us!

  For any use of FHI-aims, please cite:

    Volker Blum, Ralf Gehrke, Felix Hanke, Paula Havu, Ville Havu,
    Xinguo Ren, Karsten Reuter, and Matthias Scheffler
    'Ab initio molecular simulations with numeric atom-centered orbitals'
    Computer Physics Communications 180, 2175-2196 (2009)
    http://dx.doi.org/10.1016/j.cpc.2009.06.022


  The scalable eigensolver library ELPA was used in your run.
  ELPA is essential especially for large systems on hundreds or thousands of CPUs.
  For ELPA, please cite:

    Andreas Marek, Volker Blum, Rainer Johanni, Ville Havu, Bruno Lang,
    Thomas Auckenthaler, Alexander Heinecke, Hans-Joachim Bungartz, and Hermann Lederer,
    'The ELPA Library - Scalable Parallel Eigenvalue Solutions
    for Electronic Structure Theory and Computational Science'
    The Journal of Physics: Condensed Matter 26, 213201 (2014).
    http://dx.doi.org/10.1088/0953-8984/26/21/213201


  The ELSI infrastructure was used in your run to solve the Kohn-Sham electronic structure.
  Please check out http://elsi-interchange.org to learn more.
  If scalability is important for your project, please acknowledge ELSI by citing:

    V. W-z. Yu, F. Corsetti, A. Garcia, W. P. Huhn, M. Jacquelin, W. Jia,
    B. Lange, L. Lin, J. Lu, W. Mi, A. Seifitokaldani, A. Vazquez-Mayagoitia,
    C. Yang, H. Yang, and V. Blum
    'ELSI: A unified software interface for Kohn-Sham electronic structure solvers'
    Computer Physics Communications 222, 267-285 (2018).
    http://dx.doi.org/10.1016/j.cpc.2017.09.007


  For the real-space grid partitioning and parallelization used in this calculation, please cite:

    Ville Havu, Volker Blum, Paula Havu, and Matthias Scheffler,
    'Efficient O(N) integration for all-electron electronic structure calculation'
    'using numerically tabulated basis functions'
    Journal of Computational Physics 228, 8367-8379 (2009).
    http://dx.doi.org/10.1016/j.jcp.2009.08.008

  Of course, there are many other important community references, e.g., those cited in the
  above references. Our list is limited to references that describe implementations in the
  FHI-aims code. The reason is purely practical (length of this list) - please credit others as well.

------------------------------------------------------------
          Leaving FHI-aims.
          Date     :  20200710, Time     :  151633.986

          Computational steps:
          | Number of self-consistency cycles          :           16
          | Number of SCF (re)initializations          :            1

          Detailed time accounting                     :  max(cpu_time)    wall_clock(cpu1)
          | Total time                                 :       22.624 s          22.673 s
          | Preparation time                           :        0.146 s           0.147 s
          | Boundary condition initalization           :        0.000 s           0.000 s
          | Grid partitioning                          :        0.111 s           0.112 s
          | Preloading free-atom quantities on grid    :        0.002 s           0.002 s
          | Free-atom superposition energy             :        0.085 s           0.085 s
          | Total time for integrations                :        8.599 s           8.608 s
          | Total time for solution of K.-S. equations :        0.037 s           0.041 s
          | Total time for density & force components  :        7.163 s           7.177 s
          | Total time for mixing                      :        0.211 s           0.214 s
          | Total time for Hartree multipole update    :        0.140 s           0.141 s
          | Total time for Hartree multipole sum       :        5.730 s           5.734 s
          | Total time for total energy evaluation     :        0.003 s           0.004 s
          | Total time for vdW correction              :        0.090 s           0.090 s

          Partial memory accounting:
          | Residual value for overall tracked memory usage across tasks :           0.000 MB (should be 0.000 MB)
          | Peak values for overall tracked memory usage (after allocating hessian_basis_wave):
          |   Minimum:        1.622 MB (on task 1)
          |   Maximum:        1.622 MB (on task 1)
          |   Average:        1.622 MB
          | Largest tracked array allocation (hessian_basis_wave):
          |   Minimum:        0.794 MB (on task 1)
          |   Maximum:        0.794 MB (on task 1)
          |   Average:        0.794 MB
          Note:  These values currently only include a subset of arrays which are explicitly tracked.
          The "true" memory usage will be greater.

          Have a nice day.
------------------------------------------------------------
