  MPI-parallelism will be employed.
------------------------------------------------------------
          Invoking FHI-aims ...
          Version 171221_1
          Compiled on 2019/09/09 at 14:39:39 on host puhti-login2.bullx.

          When using FHI-aims, please cite the following reference:

          Volker Blum, Ralf Gehrke, Felix Hanke, Paula Havu,
          Ville Havu, Xinguo Ren, Karsten Reuter, and Matthias Scheffler,
          'Ab Initio Molecular Simulations with Numeric Atom-Centered Orbitals',
          Computer Physics Communications 180, 2175-2196 (2009)

          For any questions about FHI-aims, please visit the aimsclub website
          with its forums and wiki. Contributions to both the forums and the
          wiki are warmly encouraged - they are for you, and everyone is welcome there.

------------------------------------------------------------



  Date     :  20200529, Time     :  123737.711
  Time zero on CPU 1             :   0.291130000000000E-01  s.
  Internal wall clock time zero  :           359987857.711  s.

  FHI-aims created a unique identifier for this run for later identification
  aims_uuid : 443CD75F-EDDE-4880-ADF9-5C8A22FAE40E

  Using       20 parallel tasks.
  Task        0 on host r07c54.bullx reporting.
  Task        1 on host r07c54.bullx reporting.
  Task        2 on host r07c54.bullx reporting.
  Task        3 on host r07c54.bullx reporting.
  Task        4 on host r07c54.bullx reporting.
  Task        5 on host r07c54.bullx reporting.
  Task        6 on host r07c54.bullx reporting.
  Task        7 on host r07c54.bullx reporting.
  Task        8 on host r07c54.bullx reporting.
  Task        9 on host r07c54.bullx reporting.
  Task       10 on host r07c54.bullx reporting.
  Task       11 on host r07c54.bullx reporting.
  Task       12 on host r07c54.bullx reporting.
  Task       13 on host r07c54.bullx reporting.
  Task       14 on host r07c54.bullx reporting.
  Task       15 on host r07c54.bullx reporting.
  Task       16 on host r07c54.bullx reporting.
  Task       17 on host r07c54.bullx reporting.
  Task       18 on host r07c54.bullx reporting.
  Task       19 on host r07c54.bullx reporting.

  Performing system and environment tests:
  | Environment variable OMP_NUM_THREADS correctly set to 1.
  | Stacksize not measured: no C compiler
  | Checking for scalapack...
  | Testing pdtran()...
  | All pdtran() tests passed.

  Obtaining array dimensions for all initial allocations:
  
  -----------------------------------------------------------------------
  Parsing control.in (first pass over file, find array dimensions only).
  The contents of control.in will be repeated verbatim below
  unless switched off by setting 'verbatim_writeout .false.' .
  in the first line of control.in .
  -----------------------------------------------------------------------
  
  #########################################################################################
  #
  #  Volker Blum, FHI 2009 : Test run input file control.in for simple H2O
  #
  #########################################################################################
  #
  #  Physical model
  #
    xc                 pbe
    vdw_correction_hirshfeld
    spin               none
    relativistic       none
    charge             0.
  #
  #  SCF convergence
  #
    occupation_type    gaussian 0.01
    mixer              pulay
      n_max_pulay        10
      charge_mix_param   0.2
    sc_accuracy_rho    1E-5
    sc_accuracy_eev    1E-3
    sc_accuracy_etot   1E-6
    sc_accuracy_forces 1E-4
    sc_iter_limit      100
  #
  #  Relaxation
  #
  #  relax_geometry   bfgs 1.e-3
  #
  ################################################################################
  #
  #  FHI-aims code project
  #  VB, Fritz-Haber Institut, 2009
  #
  #  Suggested "light" defaults for H atom (to be pasted into control.in file)
  #  Be sure to double-check any results obtained with these settings for post-processing,
  #  e.g., with the "tight" defaults and larger basis sets.
  #
  ################################################################################
    species        H
  #     global species definitions
      nucleus             1
      mass                1.00794
  #
      l_hartree           4
  #
      cut_pot             3.5  1.5  1.0
      basis_dep_cutoff    1e-4
  #
      radial_base         24 5.0
      radial_multiplier   1
      angular_grids       specified
        division   0.2421   50
        division   0.3822  110
        division   0.4799  194
        division   0.5341  302
  #      division   0.5626  434
  #      division   0.5922  590
  #      division   0.6542  770
  #      division   0.6868 1202
  #      outer_grid  770
        outer_grid  302
  ################################################################################
  #
  #  Definition of "minimal" basis
  #
  ################################################################################
  #     valence basis states
      valence      1  s   1.
  #     ion occupancy
      ion_occ      1  s   0.5
  ################################################################################
  #
  #  Suggested additional basis functions. For production calculations,
  #  uncomment them one after another (the most important basis functions are
  #  listed first).
  #
  #  Basis constructed for dimers: 0.5 A, 0.7 A, 1.0 A, 1.5 A, 2.5 A
  #
  ################################################################################
  #  "First tier" - improvements: -1014.90 meV to -62.69 meV
       hydro 2 s 2.1
       hydro 2 p 3.5
  #  "Second tier" - improvements: -12.89 meV to -1.83 meV
  #     hydro 1 s 0.85
  #     hydro 2 p 3.7
  #     hydro 2 s 1.2
  #     hydro 3 d 7
  #  "Third tier" - improvements: -0.25 meV to -0.12 meV
  #     hydro 4 f 11.2
  #     hydro 3 p 4.8
  #     hydro 4 d 9
  #     hydro 3 s 3.2
  ################################################################################
  #
  #  FHI-aims code project
  #  VB, Fritz-Haber Institut, 2009
  #
  #  Suggested "light" defaults for C atom (to be pasted into control.in file)
  #  Be sure to double-check any results obtained with these settings for post-processing,
  #  e.g., with the "tight" defaults and larger basis sets.
  #
  ################################################################################
    species        C
  #     global species definitions
      nucleus             6
      mass                12.0107
  #
      l_hartree           4
  #
      cut_pot             3.5  1.5  1.0
      basis_dep_cutoff    1e-4
  #
      radial_base         34 5.0
      radial_multiplier   1
      angular_grids specified
        division   0.3326   50
        division   0.5710  110
        division   0.7727  194
        division   0.8772  302
  #      division   0.9334  434
  #      division   0.9625  590
  #      division   0.9924  770
  #      division   1.0230  974
  #      division   1.4589 1202
  #     outer_grid  974
       outer_grid 302
  ################################################################################
  #
  #  Definition of "minimal" basis
  #
  ################################################################################
  #     valence basis states
      valence      2  s   2.
      valence      2  p   2.
  #     ion occupancy
      ion_occ      2  s   1.
      ion_occ      2  p   1.
  ################################################################################
  #
  #  Suggested additional basis functions. For production calculations,
  #  uncomment them one after another (the most important basis functions are
  #  listed first).
  #
  #  Constructed for dimers: 1.0 A, 1.25 A, 1.5 A, 2.0 A, 3.0 A
  #
  ################################################################################
  #  "First tier" - improvements: -1214.57 meV to -155.61 meV
       hydro 2 p 1.7
       hydro 3 d 6
       hydro 2 s 4.9
  #  "Second tier" - improvements: -67.75 meV to -5.23 meV
  #     hydro 4 f 9.8
  #     hydro 3 p 5.2
  #     hydro 3 s 4.3
  #     hydro 5 g 14.4
  #     hydro 3 d 6.2
  #  "Third tier" - improvements: -2.43 meV to -0.60 meV
  #     hydro 2 p 5.6
  #     hydro 2 s 1.4
  #     hydro 3 d 4.9
  #     hydro 4 f 11.2
  #  "Fourth tier" - improvements: -0.39 meV to -0.18 meV
  #     hydro 2 p 2.1
  #     hydro 5 g 16.4
  #     hydro 4 d 13.2
  #     hydro 3 s 13.6
  #     hydro 4 f 17.6
  #  Further basis functions - improvements: -0.08 meV and below
  #     hydro 3 s 2
  #     hydro 3 p 6
  #     hydro 4 d 20
  ################################################################################
  #
  #  FHI-aims code project
  #  VB, Fritz-Haber Institut, 2009
  #
  #  Suggested "light" defaults for N atom (to be pasted into control.in file)
  #  Be sure to double-check any results obtained with these settings for post-processing,
  #  e.g., with the "tight" defaults and larger basis sets.
  #
  ################################################################################
    species        N
  #     global species definitions
      nucleus             7
      mass                14.0067
  #
      l_hartree           4
  #
      cut_pot             3.5  1.5  1.0
      basis_dep_cutoff    1e-4
  #
      radial_base         35 5.0
      radial_multiplier   1
      angular_grids       specified
        division   0.2599   50
        division   0.4601  110
        division   0.5885  194
        division   0.6503  302
  #      division   0.6939  434
  #      division   0.7396  590
  #      division   0.7632  770
  #      division   0.8122  974
  #      division   1.1604 1202
  #      outer_grid  974
        outer_grid  302
  ################################################################################
  #
  #  Definition of "minimal" basis
  #
  ################################################################################
  #     valence basis states
      valence      2  s   2.
      valence      2  p   3.
  #     ion occupancy
      ion_occ      2  s   1.
      ion_occ      2  p   2.
  ################################################################################
  #
  #  Suggested additional basis functions. For production calculations,
  #  uncomment them one after another (the most important basis functions are
  #  listed first).
  #
  #  Constructed for dimers: 1.0 A, 1.1 A, 1.5 A, 2.0 A, 3.0 A
  #
  ################################################################################
  #  "First tier" - improvements: -1193.42 meV to -220.60 meV
       hydro 2 p 1.8
       hydro 3 d 6.8
       hydro 3 s 5.8
  #  "Second tier" - improvements: -80.21 meV to -6.86 meV
  #     hydro 4 f 10.8
  #     hydro 3 p 5.8
  #     hydro 1 s 0.8
  #     hydro 5 g 16
  #     hydro 3 d 4.9
  #  "Third tier" - improvements: -4.29 meV to -0.53 meV
  #     hydro 3 s 16
  #     ionic 2 p auto
  #     hydro 3 d 6.6
  #     hydro 4 f 11.6
  #  "Fourth tier" - improvements: -0.75 meV to -0.25 meV
  #     hydro 2 p 4.5
  #     hydro 2 s 2.4
  #     hydro 5 g 14.4
  #     hydro 4 d 14.4
  #     hydro 4 f 16.8
  # Further basis functions - -0.21 meV and below
  #     hydro 3 p 14.8
  #     hydro 3 s 4.4
  #     hydro 3 d 19.6
  #     hydro 5 g 12.8
  ################################################################################
  #
  #  FHI-aims code project
  #  VB, Fritz-Haber Institut, 2009
  #
  #  Suggested "light" defaults for O atom (to be pasted into control.in file)
  #  Be sure to double-check any results obtained with these settings for post-processing,
  #  e.g., with the "tight" defaults and larger basis sets.
  #
  ################################################################################
    species        O
  #     global species definitions
      nucleus             8
      mass                15.9994
  #
      l_hartree           4
  #
      cut_pot             3.5  1.5  1.0
      basis_dep_cutoff    1e-4
  #
      radial_base         36 5.0
      radial_multiplier   1
       angular_grids specified
        division   0.2659   50
        division   0.4451  110
        division   0.6052  194
        division   0.7543  302
  #      division   0.8014  434
  #      division   0.8507  590
  #      division   0.8762  770
  #      division   0.9023  974
  #      division   1.2339 1202
  #      outer_grid 974
        outer_grid 302
  ################################################################################
  #
  #  Definition of "minimal" basis
  #
  ################################################################################
  #     valence basis states
      valence      2  s   2.
      valence      2  p   4.
  #     ion occupancy
      ion_occ      2  s   1.
      ion_occ      2  p   3.
  ################################################################################
  #
  #  Suggested additional basis functions. For production calculations,
  #  uncomment them one after another (the most important basis functions are
  #  listed first).
  #
  #  Constructed for dimers: 1.0 A, 1.208 A, 1.5 A, 2.0 A, 3.0 A
  #
  ################################################################################
  #  "First tier" - improvements: -699.05 meV to -159.38 meV
       hydro 2 p 1.8
       hydro 3 d 7.6
       hydro 3 s 6.4
  #  "Second tier" - improvements: -49.91 meV to -5.39 meV
  #     hydro 4 f 11.6
  #     hydro 3 p 6.2
  #     hydro 3 d 5.6
  #     hydro 5 g 17.6
  #     hydro 1 s 0.75
  #  "Third tier" - improvements: -2.83 meV to -0.50 meV
  #     ionic 2 p auto
  #     hydro 4 f 10.8
  #     hydro 4 d 4.7
  #     hydro 2 s 6.8
  #  "Fourth tier" - improvements: -0.40 meV to -0.12 meV
  #     hydro 3 p 5
  #     hydro 3 s 3.3
  #     hydro 5 g 15.6
  #     hydro 4 f 17.6
  #     hydro 4 d 14
  # Further basis functions - -0.08 meV and below
  #     hydro 3 s 2.1
  #     hydro 4 d 11.6
  #     hydro 3 p 16
  #     hydro 2 s 17.2
  
  -----------------------------------------------------------------------
  Completed first pass over input file control.in .
  -----------------------------------------------------------------------
  
  
  -----------------------------------------------------------------------
  Parsing geometry.in (first pass over file, find array dimensions only).
  The contents of geometry.in will be repeated verbatim below
  unless switched off by setting 'verbatim_writeout .false.' .
  in the first line of geometry.in .
  -----------------------------------------------------------------------
  
  atom  0.00000 0.00000 0.00000 C
  atom  1.09300 0.00000 0.00000 H
  atom  -0.47961 0.00000 -1.41207 N
  atom  -1.48078 -0.19862 -1.41746 H
  atom  -0.30046 0.91605 -1.81812 H
  atom  -0.49584 1.26211 0.72868 C
  atom  -0.10544 2.16022 0.24439 H
  atom  -1.58732 1.30699 0.71387 H
  atom  -0.16326 1.25709 1.76931 H
  atom  -0.39425 -1.28861 0.74398 C
  atom  0.05841 -1.66197 1.79990 O
  atom  -1.29275 -2.02176 0.16783 O
  atom  -2.05712 -1.76049 0.70862 H
  
  -----------------------------------------------------------------------
  Completed first pass over input file geometry.in .
  -----------------------------------------------------------------------
  

  Basic array size parameters:
  | Number of species                 :        4
  | Number of atoms                   :       13
  | Max. basis fn. angular momentum   :        2
  | Max. atomic/ionic basis occupied n:        2
  | Max. number of basis fn. types    :        2
  | Max. radial fns per species/type  :        3
  | Max. logarithmic grid size        :     1301
  | Max. radial integration grid size :       36
  | Max. angular integration grid size:      302
  | Max. angular grid division number :        8
  | Radial grid for Hartree potential :     1301
  | Number of spin channels           :        1

------------------------------------------------------------
          Reading file control.in.
------------------------------------------------------------
  XC: Using PBE gradient-corrected functionals.
  Spin treatment: No spin polarisation.
  Non-relativistic treatment of kinetic energy.
  Charge =   0.000000E+00: Neutral system requested explicitly.
  Occupation type: Gaussian broadening, width =   0.100000E-01 eV.
  Using pulay charge density mixing.
  Pulay mixing - number of memorized iterations:   10
  Charge density mixing - mixing parameter:     0.2000
  Convergence accuracy of self-consistent charge density:  0.1000E-04
  Convergence accuracy of sum of eigenvalues:  0.1000E-02
  Convergence accuracy of total energy:  0.1000E-05
  Convergence accuracy of forces:  0.1000E-03
  Maximum number of s.-c. iterations  :   100
 
  Reading configuration options for species H                   .
  | Found nuclear charge :   1.0000
  | Found atomic mass :    1.00794000000000      amu
  | Found l_max for Hartree potential  :   4
  | Found cutoff potl. onset [A], width [A], scale factor :    3.50000    1.50000    1.00000
  | Threshold for basis-dependent cutoff potential is   0.100000E-03
  | Found data for basic radial integration grid :    24 points, outermost radius =    5.000 A
  | Found multiplier for basic radial grid :   1
  | Found angular grid specification: user-specified.
  | Specified grid contains     5 separate shells.
  | Check grid settings after all constraints further below.
  | Found free-atom valence shell :  1 s   1.000
  | No ionic wave fns used. Skipping ion_occ.
  | Found hydrogenic basis function :  2 s   2.100
  | Found hydrogenic basis function :  2 p   3.500
  Species H                   : Missing cutoff potential type.
  Defaulting to exp(1/x)/(1-x)^2 type cutoff potential.
  Species H : No 'logarithmic' tag. Using default grid for free atom:
  | Default logarithmic grid data [bohr] : 0.1000E-03 0.1000E+03 0.1012E+01
  Species H : On-site basis accuracy parameter (for Gram-Schmidt orthonormalisation) not specified.
  Using default value basis_acc =  0.1000000E-03.
  Species H                   : Using default innermost maximum threshold i_radial=  2 for radial functions.
  Species H                   : Default cutoff onset for free atom density etc. : 0.35000000E+01 AA.
  Species H                   : Basic radial grid will be enhanced according to radial_multiplier =   1, to contain    24 grid points.
 
  Reading configuration options for species C                   .
  | Found nuclear charge :   6.0000
  | Found atomic mass :    12.0107000000000      amu
  | Found l_max for Hartree potential  :   4
  | Found cutoff potl. onset [A], width [A], scale factor :    3.50000    1.50000    1.00000
  | Threshold for basis-dependent cutoff potential is   0.100000E-03
  | Found data for basic radial integration grid :    34 points, outermost radius =    5.000 A
  | Found multiplier for basic radial grid :   1
  | Found angular grid specification: user-specified.
  | Specified grid contains     5 separate shells.
  | Check grid settings after all constraints further below.
  | Found free-atom valence shell :  2 s   2.000
  | Found free-atom valence shell :  2 p   2.000
  | No ionic wave fns used. Skipping ion_occ.
  | No ionic wave fns used. Skipping ion_occ.
  | Found hydrogenic basis function :  2 p   1.700
  | Found hydrogenic basis function :  3 d   6.000
  | Found hydrogenic basis function :  2 s   4.900
  Species C                   : Missing cutoff potential type.
  Defaulting to exp(1/x)/(1-x)^2 type cutoff potential.
  Species C : No 'logarithmic' tag. Using default grid for free atom:
  | Default logarithmic grid data [bohr] : 0.1000E-03 0.1000E+03 0.1012E+01
  Species C : On-site basis accuracy parameter (for Gram-Schmidt orthonormalisation) not specified.
  Using default value basis_acc =  0.1000000E-03.
  Species C                   : Using default innermost maximum threshold i_radial=  2 for radial functions.
  Species C                   : Default cutoff onset for free atom density etc. : 0.35000000E+01 AA.
  Species C                   : Basic radial grid will be enhanced according to radial_multiplier =   1, to contain    34 grid points.
 
  Reading configuration options for species N                   .
  | Found nuclear charge :   7.0000
  | Found atomic mass :    14.0067000000000      amu
  | Found l_max for Hartree potential  :   4
  | Found cutoff potl. onset [A], width [A], scale factor :    3.50000    1.50000    1.00000
  | Threshold for basis-dependent cutoff potential is   0.100000E-03
  | Found data for basic radial integration grid :    35 points, outermost radius =    5.000 A
  | Found multiplier for basic radial grid :   1
  | Found angular grid specification: user-specified.
  | Specified grid contains     5 separate shells.
  | Check grid settings after all constraints further below.
  | Found free-atom valence shell :  2 s   2.000
  | Found free-atom valence shell :  2 p   3.000
  | No ionic wave fns used. Skipping ion_occ.
  | No ionic wave fns used. Skipping ion_occ.
  | Found hydrogenic basis function :  2 p   1.800
  | Found hydrogenic basis function :  3 d   6.800
  | Found hydrogenic basis function :  3 s   5.800
  Species N                   : Missing cutoff potential type.
  Defaulting to exp(1/x)/(1-x)^2 type cutoff potential.
  Species N : No 'logarithmic' tag. Using default grid for free atom:
  | Default logarithmic grid data [bohr] : 0.1000E-03 0.1000E+03 0.1012E+01
  Species N : On-site basis accuracy parameter (for Gram-Schmidt orthonormalisation) not specified.
  Using default value basis_acc =  0.1000000E-03.
  Species N                   : Using default innermost maximum threshold i_radial=  2 for radial functions.
  Species N                   : Default cutoff onset for free atom density etc. : 0.35000000E+01 AA.
  Species N                   : Basic radial grid will be enhanced according to radial_multiplier =   1, to contain    35 grid points.
 
  Reading configuration options for species O                   .
  | Found nuclear charge :   8.0000
  | Found atomic mass :    15.9994000000000      amu
  | Found l_max for Hartree potential  :   4
  | Found cutoff potl. onset [A], width [A], scale factor :    3.50000    1.50000    1.00000
  | Threshold for basis-dependent cutoff potential is   0.100000E-03
  | Found data for basic radial integration grid :    36 points, outermost radius =    5.000 A
  | Found multiplier for basic radial grid :   1
  | Found angular grid specification: user-specified.
  | Specified grid contains     5 separate shells.
  | Check grid settings after all constraints further below.
  | Found free-atom valence shell :  2 s   2.000
  | Found free-atom valence shell :  2 p   4.000
  | No ionic wave fns used. Skipping ion_occ.
  | No ionic wave fns used. Skipping ion_occ.
  | Found hydrogenic basis function :  2 p   1.800
  | Found hydrogenic basis function :  3 d   7.600
  | Found hydrogenic basis function :  3 s   6.400
  Species O                   : Missing cutoff potential type.
  Defaulting to exp(1/x)/(1-x)^2 type cutoff potential.
  Species O : No 'logarithmic' tag. Using default grid for free atom:
  | Default logarithmic grid data [bohr] : 0.1000E-03 0.1000E+03 0.1012E+01
  Species O : On-site basis accuracy parameter (for Gram-Schmidt orthonormalisation) not specified.
  Using default value basis_acc =  0.1000000E-03.
  Species O                   : Using default innermost maximum threshold i_radial=  2 for radial functions.
  Species O                   : Default cutoff onset for free atom density etc. : 0.35000000E+01 AA.
  Species O                   : Basic radial grid will be enhanced according to radial_multiplier =   1, to contain    36 grid points.
 
  Finished reading input file 'control.in'. Consistency checks are next.
 
  MPI_IN_PLACE appears to work with this MPI implementation.
  | Keeping use_mpi_in_place .true. (see manual).
  Target number of points in a grid batch is not set. Defaulting to  100
  Method for grid partitioning is not set. Defaulting to parallel hash+maxmin partitioning.
  Batch size limit is not set. Defaulting to    200
  By default, will store active basis functions for each batch.
  If in need of memory, prune_basis_once .false. can be used to disable this option.
  communication_type for Hartree potential was not specified.
  Defaulting to calc_hartree .
  Pulay mixer: Number of initial linear mixing iterations not set.
  Defaulting to    0 iterations.
  Work space size for distributed Hartree potential not set.
  Defaulting to   0.200000E+03 MB.
  Algorithm-dependent basis array size parameters:
  | n_max_pulay                         :       10
  Presetting      1001 iterations before the initial mixing cycle
  is restarted anyway using the sc_init_iter criterion / keyword.
  Presetting a factor      1.000 between actual scf density residual
  and density convergence criterion sc_accuracy_rho below which sc_init_iter
  takes no effect.
  Geometry relaxation not requested: no relaxation will be performed.
  Handling of forces: Unphysical translation and rotation will be removed from forces.
  No accuracy limit for integral partition fn. given. Defaulting to  0.1000E-14.
  No threshold value for u(r) in integrations given. Defaulting to  0.1000E-05.
  No accuracy for occupation numbers given. Defaulting to  0.1000E-12.
  No threshold value for occupation numbers given. Defaulting to  0.0000E+00.
  No accuracy for fermi level given. Defaulting to  0.1000E-19.
  Maximum # of iterations to find E_F not set. Defaulting to  200.
  Preferred method for the eigenvalue solver ('KS_method') not specified in 'control.in'.
  Calling BLACS routine to test compilation state
  Since ScaLAPACK support is enabled, defaulting to 'elsi'.
  Will not use alltoall communication since running on < 1024 CPUs.
  Threshold for basis singularities not set.
  Default threshold for basis singularities:  0.1000E-04
  partition_type (choice of integration weights) for integrals was not specified.
  | Using a version of the partition function of Stratmann and coworkers ('stratmann_smoother').
  | At each grid point, the set of atoms used to build the partition table is smoothly restricted to
  | only those atoms whose free-atom density would be non-zero at that grid point.
  Partitioning for Hartree potential was not defined. Using partition_type for integrals.
  | Adjusted default value of keyword multip_moments_threshold to:       0.10000000E-11
  | This value may affect high angular momentum components of the Hartree potential in periodic systems.
  No q(lm)/r^(l+1) cutoff set for long-range Hartree potential.
  | Using default value of  0.100000E-09 .
  | Verify using the multipole_threshold keyword.
  Defaulting to new monopole extrapolation.
  Density update method: automatic selection selected.
------------------------------------------------------------


------------------------------------------------------------
          Reading geometry description geometry.in.
------------------------------------------------------------
  Input structure read successfully.
  The structure contains       13 atoms,  and a total of         48.000 electrons.

  Input geometry:
  | No unit cell requested.
  | Atomic structure:
  |       Atom                x [A]            y [A]            z [A]
  |    1: Species C             0.00000000        0.00000000        0.00000000
  |    2: Species H             1.09300000        0.00000000        0.00000000
  |    3: Species N            -0.47961000        0.00000000       -1.41207000
  |    4: Species H            -1.48078000       -0.19862000       -1.41746000
  |    5: Species H            -0.30046000        0.91605000       -1.81812000
  |    6: Species C            -0.49584000        1.26211000        0.72868000
  |    7: Species H            -0.10544000        2.16022000        0.24439000
  |    8: Species H            -1.58732000        1.30699000        0.71387000
  |    9: Species H            -0.16326000        1.25709000        1.76931000
  |   10: Species C            -0.39425000       -1.28861000        0.74398000
  |   11: Species O             0.05841000       -1.66197000        1.79990000
  |   12: Species O            -1.29275000       -2.02176000        0.16783000
  |   13: Species H            -2.05712000       -1.76049000        0.70862000
  |

  | The smallest distance between any two atoms is         0.97209945 AA.
  |
  | The first atom of this pair is atom number                     12 .
  | The second atom of this pair is atom number                    13 .

  Number of empty states per atom not set in control.in - providing a guess from actual geometry.
  | Total number of empty states used during s.c.f. cycle:       29
  If you use a very high smearing, use empty_states (per atom!) in control.in to increase this value.

  Structure-dependent array size parameters: 
  | Maximum number of distinct radial functions  :       21
  | Maximum number of basis functions            :      119
  | Number of Kohn-Sham states (occupied + empty):       53
------------------------------------------------------------

------------------------------------------------------------
          Preparing all fixed parts of the calculation.
------------------------------------------------------------
  Determining machine precision:
    2.225073858507201E-308
  Setting up grids for atomic and cluster calculations.

  Creating wave function, potential, and density for free atoms.

  Species: H

  List of occupied orbitals and eigenvalues:
    n    l              occ      energy [Ha]    energy [eV]
    1    0           1.0000        -0.237589        -6.4651


  Species: C

  List of occupied orbitals and eigenvalues:
    n    l              occ      energy [Ha]    energy [eV]
    1    0           2.0000       -10.038835      -273.1706
    2    0           2.0000        -0.502696       -13.6791
    2    1           2.0000        -0.191971        -5.2238


  Species: N

  List of occupied orbitals and eigenvalues:
    n    l              occ      energy [Ha]    energy [eV]
    1    0           2.0000       -14.128000      -384.4424
    2    0           2.0000        -0.681077       -18.5330
    2    1           3.0000        -0.259788        -7.0692


  Species: O

  List of occupied orbitals and eigenvalues:
    n    l              occ      energy [Ha]    energy [eV]
    1    0           2.0000       -18.898188      -514.2459
    2    0           2.0000        -0.878505       -23.9053
    2    1           4.0000        -0.331779        -9.0282

  Creating fixed part of basis set: Ionic, confined, hydrogenic.
 
  H                    hydrogenic:
 
  List of hydrogenic basis orbitals: 
    n    l      effective z      eigenvalue [eV]  inner max. [A]     outer max. [A]     outer radius [A]   
    2    0         2.100000       -14.9728           0.193243           1.317208           4.583499
    2    1         3.500000       -41.6669           0.602369           0.602369           3.723403
 
 
  C                    hydrogenic:
 
  List of hydrogenic basis orbitals: 
    n    l      effective z      eigenvalue [eV]  inner max. [A]     outer max. [A]     outer radius [A]   
    2    1         1.700000        -9.7616           1.230570           1.230570           4.607917
    3    2         6.000000       -54.4224           0.792453           0.792453           3.883070
    2    0         4.900000       -81.6679           0.082559           0.562749           3.078220
 
 
  N                    hydrogenic:
 
  List of hydrogenic basis orbitals: 
    n    l      effective z      eigenvalue [eV]  inner max. [A]     outer max. [A]     outer radius [A]   
    2    1         1.800000       -10.9749           1.177451           1.177451           4.573712
    3    2         6.800000       -69.9026           0.704619           0.704619           3.538137
    3    0         5.800000       -50.8545           0.067388           1.191934           4.250239
 
 
  O                    hydrogenic:
 
  List of hydrogenic basis orbitals: 
    n    l      effective z      eigenvalue [eV]  inner max. [A]     outer max. [A]     outer radius [A]   
    2    1         1.800000       -10.9749           1.164242           1.164242           4.578029
    3    2         7.600000       -87.3180           0.624125           0.624125           3.251020
    3    0         6.400000       -61.9207           0.061167           1.081902           4.001998
 

  Adding cutoff potential to free-atom effective potential.
  Creating atomic-like basis functions for current effective potential.

  Species H                   :

  List of atomic basis orbitals and eigenvalues:
    n    l      energy [Ha]    energy [eV]    outer radius [A]
    1    0        -0.237589        -6.4651       4.527807


  Species C                   :

  List of atomic basis orbitals and eigenvalues:
    n    l      energy [Ha]    energy [eV]    outer radius [A]
    1    0       -10.038835      -273.1706       1.934409
    2    0        -0.502696       -13.6791       4.496620
    2    1        -0.191971        -5.2238       4.551928


  Species N                   :

  List of atomic basis orbitals and eigenvalues:
    n    l      energy [Ha]    energy [eV]    outer radius [A]
    1    0       -14.128000      -384.4424       1.637919
    2    0        -0.681077       -18.5330       4.463241
    2    1        -0.259788        -7.0692       4.518138


  Species O                   :

  List of atomic basis orbitals and eigenvalues:
    n    l      energy [Ha]    energy [eV]    outer radius [A]
    1    0       -18.898188      -514.2459       1.415765
    2    0        -0.878505       -23.9053       4.413171
    2    1        -0.331779        -9.0282       4.522403

  Assembling full basis from fixed parts.
  | Species H :   atomic orbital   1 s accepted.
  | Species H :    hydro orbital   2 s accepted.
  | Species H :    hydro orbital   2 p accepted.
  | Species C :   atomic orbital   1 s accepted.
  | Species C :    hydro orbital   2 s accepted.
  | Species C :   atomic orbital   2 s accepted.
  | Species C :   atomic orbital   2 p accepted.
  | Species C :    hydro orbital   2 p accepted.
  | Species C :    hydro orbital   3 d accepted.
  | Species N :   atomic orbital   1 s accepted.
  | Species N :    hydro orbital   3 s accepted.
  | Species N :   atomic orbital   2 s accepted.
  | Species N :   atomic orbital   2 p accepted.
  | Species N :    hydro orbital   2 p accepted.
  | Species N :    hydro orbital   3 d accepted.
  | Species O :   atomic orbital   1 s accepted.
  | Species O :    hydro orbital   3 s accepted.
  | Species O :   atomic orbital   2 s accepted.
  | Species O :   atomic orbital   2 p accepted.
  | Species O :    hydro orbital   2 p accepted.
  | Species O :    hydro orbital   3 d accepted.
 
  Basis size parameters after reduction:
  | Total number of radial functions:       21
  | Total number of basis functions :      119
 
  Per-task memory consumption for arrays in subroutine allocate_ext:
  |           5.250512MB.
  Testing on-site integration grid accuracy.
  |  Species  Function  <phi|h_atom|phi> (log., in eV)  <phi|h_atom|phi> (rad., in eV)
           1        1                 -6.4663192853                 -6.4651273558
           1        2                 13.7111246313                 13.7170609718
           1        3                 25.2673269279                 25.2674696378
           2        4               -273.1705927641               -273.1705631568
           2        5                -10.7109323383                -10.7107120029
           2        6                 17.4381822266                 17.4352413244
           2        7                 -5.2255326521                 -5.2270484734
           2        8                  8.6835629259                  8.6603288385
           2        9                 27.4952418996                 27.4953360207
           3       10               -384.4424306495               -384.4423701208
           3       11                 12.5842251816                 12.5842222903
           3       12                -15.7264628251                -15.7264433455
           3       13                 -7.0696854293                 -7.0701769954
           3       14                  8.8090390882                  8.7901077751
           3       15                 35.9586762123                 35.9588528632
           4       16               -514.2458688638               -514.2457643834
           4       17                 15.1795651126                 15.1795290741
           4       18                -21.5359799773                -21.5360846186
           4       19                 -9.0283069236                 -9.0284644067
           4       20                  8.3027758564                  8.2834874195
           4       21                 45.8339351984                 45.8338762259

  Preparing densities etc. for the partition functions (integrals / Hartree potential).

  Preparations completed.
  max(cpu_time)          :      0.165 s.
  Wall clock time (cpu1) :      0.165 s.
------------------------------------------------------------

------------------------------------------------------------
          Begin self-consistency loop: Initialization.

          Date     :  20200529, Time     :  123737.918
------------------------------------------------------------

  Initializing index lists of integration centers etc. from given atomic structure:
  | Number of centers in hartree potential         :        13
  | Number of centers in hartree multipole         :        13
  | Number of centers in electron density summation:        13
  | Number of centers in basis integrals           :        13
  | Number of centers in integrals                 :        13
  | Number of centers in hamiltonian               :        13
  * Using 20 tasks for Scalapack Eigenvalue solver.
  Detailed listing of tasks and assigned k-points:
  (for non-periodic systems, the "k-point" denotes an internal label only)
   Task     0 k-point     1 on r07c54.bullx
   Task     1 k-point     1 on r07c54.bullx
   Task     2 k-point     1 on r07c54.bullx
   Task     3 k-point     1 on r07c54.bullx
   Task     4 k-point     1 on r07c54.bullx
   Task     5 k-point     1 on r07c54.bullx
   Task     6 k-point     1 on r07c54.bullx
   Task     7 k-point     1 on r07c54.bullx
   Task     8 k-point     1 on r07c54.bullx
   Task     9 k-point     1 on r07c54.bullx
   Task    10 k-point     1 on r07c54.bullx
   Task    11 k-point     1 on r07c54.bullx
   Task    12 k-point     1 on r07c54.bullx
   Task    13 k-point     1 on r07c54.bullx
   Task    14 k-point     1 on r07c54.bullx
   Task    15 k-point     1 on r07c54.bullx
   Task    16 k-point     1 on r07c54.bullx
   Task    17 k-point     1 on r07c54.bullx
   Task    18 k-point     1 on r07c54.bullx
   Task    19 k-point     1 on r07c54.bullx
  Tasks:    20 split into      5 X      4 BLACS grid
  Calculating block size based on n_basis =          119  max_nprow =            5  max_npcol =            4
  ScaLAPACK block size set to:           16
  Allocating        0.008 MB for ovlp
  Allocating        0.008 MB for ham
  Allocating        0.008 MB for eigenvec
  Required Scalapack workspace - INTEGER:            1  REAL:             1
  Partitioning the integration grid into batches with parallel hashing+maxmin method.
  | Number of batches:      857
  | Maximal batch size:     184
  | Minimal batch size:      49
  | Average batch size:      81.267
  | Standard deviation of batch sizes:      19.296

  Integration load balanced across    20 MPI tasks.
  Work distribution over tasks is as follows:
  Task     0 has       3420 integration points.
  Task     1 has       3492 integration points.
  Task     2 has       3426 integration points.
  Task     3 has       3453 integration points.
  Task     4 has       3482 integration points.
  Task     5 has       3493 integration points.
  Task     6 has       3490 integration points.
  Task     7 has       3499 integration points.
  Task     8 has       3452 integration points.
  Task     9 has       3503 integration points.
  Task    10 has       3589 integration points.
  Task    11 has       3490 integration points.
  Task    12 has       3416 integration points.
  Task    13 has       3457 integration points.
  Task    14 has       3506 integration points.
  Task    15 has       3579 integration points.
  Task    16 has       3518 integration points.
  Task    17 has       3448 integration points.
  Task    18 has       3412 integration points.
  Task    19 has       3521 integration points.
  Initializing partition tables, free-atom densities, potentials, etc. across the integration grid (initialize_grid_storage).
  | initialize_grid_storage: Actual outermost partition radius vs. multipole_radius_free
  | (-- VB: in principle, multipole_radius_free should be larger, hence this output)
  | Species        1: Confinement radius =              4.999999999999999 AA, multipole_radius_free =              5.054417573612229 AA.
  | Species        1: outer_partition_radius set to              5.054417573612229 AA .
  | Species        2: Confinement radius =              4.999999999999999 AA, multipole_radius_free =              5.019602836301480 AA.
  | Species        2: outer_partition_radius set to              5.019602836301480 AA .
  | Species        3: Confinement radius =              4.999999999999999 AA, multipole_radius_free =              5.043624274424571 AA.
  | Species        3: outer_partition_radius set to              5.043624274424571 AA .
  | Species        4: Confinement radius =              4.999999999999999 AA, multipole_radius_free =              5.048384829883283 AA.
  | Species        4: outer_partition_radius set to              5.048384829883283 AA .
  | Original list of interatomic distances with          13 x         13 entries is created.
  | Net number of integration points:    69646
  | of which are non-zero points    :    59413
  Renormalizing the initial density to the exact electron count on the 3D integration grid.
  | Initial density: Formal number of electrons (from input files) :      48.0000000000
  | Integrated number of electrons on 3D grid     :      47.9997316938
  | Charge integration error                      :      -0.0002683062
  | Normalization factor for density and gradient :       1.0000055897
  Obtaining max. number of non-zero basis functions in each batch (get_n_compute_maxes).
  | Maximal number of non-zero basis functions:      118 in task     0
  | Maximal number of non-zero basis functions:      118 in task     1
  | Maximal number of non-zero basis functions:      118 in task     2
  | Maximal number of non-zero basis functions:      118 in task     3
  | Maximal number of non-zero basis functions:      118 in task     4
  | Maximal number of non-zero basis functions:      118 in task     5
  | Maximal number of non-zero basis functions:      118 in task     6
  | Maximal number of non-zero basis functions:      118 in task     7
  | Maximal number of non-zero basis functions:      118 in task     8
  | Maximal number of non-zero basis functions:      119 in task     9
  | Maximal number of non-zero basis functions:      117 in task    10
  | Maximal number of non-zero basis functions:      118 in task    11
  | Maximal number of non-zero basis functions:      118 in task    12
  | Maximal number of non-zero basis functions:      118 in task    13
  | Maximal number of non-zero basis functions:      118 in task    14
  | Maximal number of non-zero basis functions:      117 in task    15
  | Maximal number of non-zero basis functions:      119 in task    16
  | Maximal number of non-zero basis functions:      118 in task    17
  | Maximal number of non-zero basis functions:      119 in task    18
  | Maximal number of non-zero basis functions:      119 in task    19
  Selecting the method for density update.
  Loop over occupied states selected for charge density update.
  Allocating        0.050 MB for KS_eigenvector
  Integrating Hamiltonian matrix: batch-based integration.
  Time summed over all CPUs for integration: real work        0.517 s, elapsed        0.550 s
  Integrating overlap matrix.
  Time summed over all CPUs for integration: real work        0.216 s, elapsed        0.227 s
  Deallocating overlap matrix.

  Updating Kohn-Sham eigenvalues and eigenvectors using ELSI and the ELPA eigensolver.
  ELPA settings:
  | ELPA solver          1
  | Time full => band           :     0.001 s
  | Time band => tridiagonal    :     0.001 s
  | Time solve tridiagonal      :     0.001 s
  Overlap matrix is nonsingular
  | Lowest eigenvalue of overlap  :  0.52E-02
  | Highest eigenvalue of overlap :  0.62E+01
  Finished singularity check of overlap matrix
  | Time :     0.003 s
  Finished Cholesky decomposition
  | Time :     0.003 s
  Finished transformation to standard eigenproblem
  | Time :     0.001 s
  Starting ELPA eigensolver
  | Time full => tridiagonal    :     0.002 s
  | Time solve tridiagonal      :     0.000 s
  | Time ev tridiagonal => full :     0.001 s
  Finished solving standard eigenproblem
  | Time :     0.003 s
  Finished back-transformation of eigenvectors
  | Time :     0.000 s

  Obtaining occupation numbers and chemical potential using ELSI.
  | Chemical potential (Fermi level):    -9.25951122eV
  Writing Kohn-Sham eigenvalues.

  State    Occupation    Eigenvalue [Ha]    Eigenvalue [eV]
      1       2.00000         -19.007765         -517.22759
      2       2.00000         -18.977399         -516.40129
      3       2.00000         -14.245798         -387.64789
      4       2.00000         -10.166804         -276.65281
      5       2.00000         -10.141294         -275.95866
      6       2.00000         -10.131991         -275.70551
      7       2.00000          -1.184189          -32.22341
      8       2.00000          -1.096296          -29.83174
      9       2.00000          -0.991918          -26.99145
     10       2.00000          -0.858421          -23.35882
     11       2.00000          -0.759393          -20.66414
     12       2.00000          -0.680041          -18.50486
     13       2.00000          -0.631901          -17.19490
     14       2.00000          -0.601725          -16.37377
     15       2.00000          -0.583555          -15.87933
     16       2.00000          -0.560438          -15.25029
     17       2.00000          -0.551873          -15.01722
     18       2.00000          -0.546034          -14.85834
     19       2.00000          -0.524840          -14.28163
     20       2.00000          -0.495694          -13.48852
     21       2.00000          -0.458411          -12.47400
     22       2.00000          -0.425366          -11.57481
     23       2.00000          -0.400307          -10.89292
     24       2.00000          -0.391009          -10.63989
     25       0.00000          -0.164480           -4.47574
     26       0.00000          -0.065755           -1.78929
     27       0.00000          -0.031711           -0.86291
     28       0.00000          -0.019755           -0.53756
     29       0.00000           0.000772            0.02101
     30       0.00000           0.010561            0.28738
     31       0.00000           0.027180            0.73962
     32       0.00000           0.037723            1.02650
     33       0.00000           0.045785            1.24588
     34       0.00000           0.057101            1.55379
     35       0.00000           0.074979            2.04029
     36       0.00000           0.133727            3.63891
     37       0.00000           0.158176            4.30419
     38       0.00000           0.202408            5.50781
     39       0.00000           0.213741            5.81620
     40       0.00000           0.225843            6.14550
     41       0.00000           0.261854            7.12540
     42       0.00000           0.282742            7.69381
     43       0.00000           0.285494            7.76869
     44       0.00000           0.300962            8.18960
     45       0.00000           0.326347            8.88034
     46       0.00000           0.340937            9.27736
     47       0.00000           0.363036            9.87872
     48       0.00000           0.370822           10.09058
     49       0.00000           0.455687           12.39989
     50       0.00000           0.475135           12.92907
     51       0.00000           0.517225           14.07441
     52       0.00000           0.526260           14.32027
     53       0.00000           0.577792           15.72253

  Highest occupied state (VBM) at    -10.63988652 eV
  | Occupation number:      2.00000000

  Lowest unoccupied state (CBM) at    -4.47573548 eV
  | Occupation number:      0.00000000

  Overall HOMO-LUMO gap:      6.16415104 eV.
  Calculating total energy contributions from superposition of free atom densities.

  Total energy components:
  | Sum of eigenvalues            :        -188.82492166 Ha       -5138.18754644 eV
  | XC energy correction          :         -41.78602388 Ha       -1137.05556248 eV
  | XC potential correction       :          53.71638911 Ha        1461.69731802 eV
  | Free-atom electrostatic energy:        -146.86252475 Ha       -3996.33262953 eV
  | Hartree energy correction     :           0.00000000 Ha           0.00000000 eV
  | vdW energy correction         :           0.00000000 Ha           0.00000000 eV
  | Entropy correction            :           0.00000000 Ha           0.00000000 eV
  | ---------------------------
  | Total energy                  :        -323.75708117 Ha       -8809.87842043 eV
  | Total energy, T -> 0          :        -323.75708117 Ha       -8809.87842043 eV  <-- do not rely on this value for anything but (periodic) metals
  | Electronic free energy        :        -323.75708117 Ha       -8809.87842043 eV

  Derived energy quantities:
  | Kinetic energy                :         320.49305633 Ha        8721.05978544 eV
  | Electrostatic energy          :        -602.46411363 Ha      -16393.88264339 eV
  | Energy correction for multipole
  | error in Hartree potential    :           0.00000000 Ha           0.00000000 eV
  | Sum of eigenvalues per atom                           :        -395.24519588 eV
  | Total energy (T->0) per atom                          :        -677.68295542 eV  <-- do not rely on this value for anything but (periodic) metals
  | Electronic free energy per atom                       :        -677.68295542 eV
  Initialize hartree_potential_storage
  Max. number of atoms included in rho_multipole:           13

  End scf initialization - timings             :  max(cpu_time)    wall_clock(cpu1)
  | Time for scf. initialization               :        0.097 s           0.098 s
  | Boundary condition initialization          :        0.000 s           0.000 s
  | Integration                                :        0.040 s           0.040 s
  | Solution of K.-S. eqns.                    :        0.012 s           0.012 s
  | Grid partitioning                          :        0.022 s           0.022 s
  | Preloading free-atom quantities on grid    :        0.002 s           0.002 s
  | Free-atom superposition energy             :        0.005 s           0.005 s
  | Total energy evaluation                    :        0.000 s           0.000 s

  Partial memory accounting:
  | Current value for overall tracked memory usage on task 0  :           0.133 MB
  | Peak value for overall tracked memory usage on task 0     :           0.825 MB after allocating wave
  | Largest tracked array allocation on task 0 so far         :           0.174 MB  when allocating H_times_psi
  Note:  These values currently only include a subset of arrays which are explicitly tracked.
  The "true" memory usage will be greater.
------------------------------------------------------------

------------------------------------------------------------
          Begin self-consistency iteration #    1

  Date     :  20200529, Time     :  123738.016
------------------------------------------------------------
  Evaluating new KS density.
  Integration grid: deviation in total charge (<rho> - N_e) =  -7.105427E-15
  Pulay mixing of updated and previous charge densities.

  Evaluating partitioned Hartree potential by multipole expansion.
  | Analytical far-field extrapolation by fixed multipoles:
  | Hartree multipole sum: apparent total charge =  -0.379121E-03
  Summing up the Hartree potential.
  Time summed over all CPUs for potential: real work        0.420 s, elapsed        0.430 s
  | RMS charge density error from multipole expansion :   0.592590E-02

  Integrating Hamiltonian matrix: batch-based integration.
  Time summed over all CPUs for integration: real work        0.506 s, elapsed        0.541 s

  Updating Kohn-Sham eigenvalues and eigenvectors using ELSI and the ELPA eigensolver.
  ELPA settings:
  | ELPA solver          1
  Finished transformation to standard eigenproblem
  | Time :     0.000 s
  Starting ELPA eigensolver
  | Time full => tridiagonal    :     0.002 s
  | Time solve tridiagonal      :     0.000 s
  | Time ev tridiagonal => full :     0.000 s
  Finished solving standard eigenproblem
  | Time :     0.003 s
  Finished back-transformation of eigenvectors
  | Time :     0.000 s

  Obtaining occupation numbers and chemical potential using ELSI.
  | Chemical potential (Fermi level):    -8.08856068eV
  Writing Kohn-Sham eigenvalues.

  State    Occupation    Eigenvalue [Ha]    Eigenvalue [eV]
      1       2.00000         -18.895778         -514.18028
      2       2.00000         -18.840760         -512.68316
      3       2.00000         -14.095103         -383.54726
      4       2.00000         -10.118189         -275.32994
      5       2.00000         -10.062399         -273.81180
      6       2.00000         -10.034429         -273.05072
      7       2.00000          -1.133613          -30.84718
      8       2.00000          -1.033909          -28.13408
      9       2.00000          -0.921472          -25.07454
     10       2.00000          -0.793925          -21.60380
     11       2.00000          -0.708517          -19.27972
     12       2.00000          -0.633280          -17.23243
     13       2.00000          -0.579324          -15.76421
     14       2.00000          -0.539757          -14.68754
     15       2.00000          -0.528346          -14.37703
     16       2.00000          -0.495996          -13.49673
     17       2.00000          -0.491169          -13.36539
     18       2.00000          -0.484744          -13.19055
     19       2.00000          -0.466827          -12.70302
     20       2.00000          -0.439369          -11.95585
     21       2.00000          -0.398428          -10.84178
     22       2.00000          -0.369997          -10.06812
     23       2.00000          -0.329223           -8.95862
     24       2.00000          -0.314249           -8.55115
     25       0.00000          -0.129230           -3.51651
     26       0.00000          -0.045710           -1.24383
     27       0.00000          -0.004711           -0.12819
     28       0.00000           0.018525            0.50409
     29       0.00000           0.029859            0.81251
     30       0.00000           0.046261            1.25883
     31       0.00000           0.061834            1.68259
     32       0.00000           0.075336            2.04999
     33       0.00000           0.084601            2.30212
     34       0.00000           0.098540            2.68142
     35       0.00000           0.115154            3.13350
     36       0.00000           0.161627            4.39809
     37       0.00000           0.182872            4.97621
     38       0.00000           0.230359            6.26840
     39       0.00000           0.246636            6.71132
     40       0.00000           0.262143            7.13328
     41       0.00000           0.294591            8.01624
     42       0.00000           0.315843            8.59452
     43       0.00000           0.321388            8.74540
     44       0.00000           0.337727            9.19003
     45       0.00000           0.366273            9.96678
     46       0.00000           0.377442           10.27071
     47       0.00000           0.400370           10.89461
     48       0.00000           0.415326           11.30161
     49       0.00000           0.491449           13.37300
     50       0.00000           0.507158           13.80046
     51       0.00000           0.553573           15.06350
     52       0.00000           0.560200           15.24381
     53       0.00000           0.617433           16.80120

  Highest occupied state (VBM) at     -8.55114794 eV
  | Occupation number:      2.00000000

  Lowest unoccupied state (CBM) at    -3.51651422 eV
  | Occupation number:      0.00000000

  Overall HOMO-LUMO gap:      5.03463372 eV.

  Total energy components:
  | Sum of eigenvalues            :        -185.41760734 Ha       -5045.46980636 eV
  | XC energy correction          :         -42.11627397 Ha       -1146.04212463 eV
  | XC potential correction       :          54.14592591 Ha        1473.38560896 eV
  | Free-atom electrostatic energy:        -146.86252475 Ha       -3996.33262953 eV
  | Hartree energy correction     :          -3.32085834 Ha         -90.36515324 eV
  | vdW energy correction         :           0.00000000 Ha           0.00000000 eV
  | Entropy correction            :           0.00000000 Ha           0.00000000 eV
  | ---------------------------
  | Total energy                  :        -323.57133849 Ha       -8804.82410481 eV
  | Total energy, T -> 0          :        -323.57133849 Ha       -8804.82410481 eV  <-- do not rely on this value for anything but (periodic) metals
  | Electronic free energy        :        -323.57133849 Ha       -8804.82410481 eV

  Derived energy quantities:
  | Kinetic energy                :         322.29878177 Ha        8770.19607468 eV
  | Electrostatic energy          :        -603.75384629 Ha      -16428.97805486 eV
  | Energy correction for multipole
  | error in Hartree potential    :           0.01199714 Ha           0.32645880 eV
  | Sum of eigenvalues per atom                           :        -388.11306203 eV
  | Total energy (T->0) per atom                          :        -677.29416191 eV  <-- do not rely on this value for anything but (periodic) metals
  | Electronic free energy per atom                       :        -677.29416191 eV

  Self-consistency convergence accuracy:
  | Change of charge density      :  0.5898E+00
  | Change of sum of eigenvalues  :  0.9272E+02 eV
  | Change of total energy        :  0.5054E+01 eV

  End self-consistency iteration #     1       :  max(cpu_time)    wall_clock(cpu1)
  | Time for this iteration                    :        0.078 s           0.078 s
  | Charge density update                      :        0.022 s           0.022 s
  | Density mixing                             :        0.000 s           0.000 s
  | Hartree multipole update                   :        0.001 s           0.002 s
  | Hartree multipole summation                :        0.022 s           0.022 s
  | Integration                                :        0.027 s           0.027 s
  | Solution of K.-S. eqns.                    :        0.004 s           0.005 s
  | Total energy evaluation                    :        0.000 s           0.000 s

  Partial memory accounting:
  | Current value for overall tracked memory usage on task 0  :           0.133 MB
  | Peak value for overall tracked memory usage on task 0     :           0.828 MB after allocating gradient_basis_wave
  | Largest tracked array allocation on task 0 so far         :           0.521 MB  when allocating gradient_basis_wave
  Note:  These values currently only include a subset of arrays which are explicitly tracked.
  The "true" memory usage will be greater.
------------------------------------------------------------

------------------------------------------------------------
          Begin self-consistency iteration #    2

  Date     :  20200529, Time     :  123738.103
------------------------------------------------------------
  Evaluating new KS density.
  Integration grid: deviation in total charge (<rho> - N_e) =  -7.105427E-15
  Pulay mixing of updated and previous charge densities.

  Evaluating partitioned Hartree potential by multipole expansion.
  | Analytical far-field extrapolation by fixed multipoles:
  | Hartree multipole sum: apparent total charge =  -0.519102E-03
  Summing up the Hartree potential.
  Time summed over all CPUs for potential: real work        0.419 s, elapsed        0.429 s
  | RMS charge density error from multipole expansion :   0.140199E-01

  Integrating Hamiltonian matrix: batch-based integration.
  Time summed over all CPUs for integration: real work        0.506 s, elapsed        0.538 s

  Updating Kohn-Sham eigenvalues and eigenvectors using ELSI and the ELPA eigensolver.
  ELPA settings:
  | ELPA solver          1
  Finished transformation to standard eigenproblem
  | Time :     0.000 s
  Starting ELPA eigensolver
  | Time full => tridiagonal    :     0.002 s
  | Time solve tridiagonal      :     0.000 s
  | Time ev tridiagonal => full :     0.000 s
  Finished solving standard eigenproblem
  | Time :     0.003 s
  Finished back-transformation of eigenvectors
  | Time :     0.000 s

  Obtaining occupation numbers and chemical potential using ELSI.
  | Chemical potential (Fermi level):    -2.61909936eV
  Highest occupied state (VBM) at     -6.44703328 eV
  | Occupation number:      2.00000000

  Lowest unoccupied state (CBM) at    -2.31609169 eV
  | Occupation number:      0.00000000

  Overall HOMO-LUMO gap:      4.13094158 eV.

  Checking to see if s.c.f. parameters should be adjusted.

  Total energy components:
  | Sum of eigenvalues            :        -181.86308777 Ha       -4948.74640768 eV
  | XC energy correction          :         -42.47526994 Ha       -1155.81090200 eV
  | XC potential correction       :          54.61128642 Ha        1486.04871273 eV
  | Free-atom electrostatic energy:        -146.86252475 Ha       -3996.33262953 eV
  | Hartree energy correction     :          -6.90157261 Ha        -187.80134591 eV
  | vdW energy correction         :           0.00000000 Ha           0.00000000 eV
  | Entropy correction            :           0.00000000 Ha           0.00000000 eV
  | ---------------------------
  | Total energy                  :        -323.49116865 Ha       -8802.64257239 eV
  | Total energy, T -> 0          :        -323.49116865 Ha       -8802.64257239 eV  <-- do not rely on this value for anything but (periodic) metals
  | Electronic free energy        :        -323.49116865 Ha       -8802.64257239 eV

  Derived energy quantities:
  | Kinetic energy                :         323.61281990 Ha        8805.95287132 eV
  | Electrostatic energy          :        -604.62871861 Ha      -16452.78454171 eV
  | Energy correction for multipole
  | error in Hartree potential    :           0.02637465 Ha           0.71769078 eV
  | Sum of eigenvalues per atom                           :        -380.67280059 eV
  | Total energy (T->0) per atom                          :        -677.12635172 eV  <-- do not rely on this value for anything but (periodic) metals
  | Electronic free energy per atom                       :        -677.12635172 eV

  Self-consistency convergence accuracy:
  | Change of charge density      :  0.3687E+00
  | Change of sum of eigenvalues  :  0.9672E+02 eV
  | Change of total energy        :  0.2182E+01 eV

  End self-consistency iteration #     2       :  max(cpu_time)    wall_clock(cpu1)
  | Time for this iteration                    :        0.080 s           0.075 s
  | Charge density update                      :        0.024 s           0.019 s
  | Density mixing                             :        0.001 s           0.001 s
  | Hartree multipole update                   :        0.001 s           0.001 s
  | Hartree multipole summation                :        0.022 s           0.022 s
  | Integration                                :        0.027 s           0.027 s
  | Solution of K.-S. eqns.                    :        0.004 s           0.004 s
  | Total energy evaluation                    :        0.000 s           0.000 s

  Partial memory accounting:
  | Current value for overall tracked memory usage on task 0  :           0.134 MB
  | Peak value for overall tracked memory usage on task 0     :           0.828 MB after allocating gradient_basis_wave
  | Largest tracked array allocation on task 0 so far         :           0.521 MB  when allocating gradient_basis_wave
  Note:  These values currently only include a subset of arrays which are explicitly tracked.
  The "true" memory usage will be greater.
------------------------------------------------------------

------------------------------------------------------------
          Begin self-consistency iteration #    3

  Date     :  20200529, Time     :  123738.185
------------------------------------------------------------
  Evaluating new KS density.
  Integration grid: deviation in total charge (<rho> - N_e) =   2.842171E-14
  Pulay mixing of updated and previous charge densities.

  Evaluating partitioned Hartree potential by multipole expansion.
  | Analytical far-field extrapolation by fixed multipoles:
  | Hartree multipole sum: apparent total charge =  -0.615245E-03
  Summing up the Hartree potential.
  Time summed over all CPUs for potential: real work        0.419 s, elapsed        0.429 s
  | RMS charge density error from multipole expansion :   0.219793E-01

  Integrating Hamiltonian matrix: batch-based integration.
  Time summed over all CPUs for integration: real work        0.506 s, elapsed        0.538 s

  Updating Kohn-Sham eigenvalues and eigenvectors using ELSI and the ELPA eigensolver.
  ELPA settings:
  | ELPA solver          1
  Finished transformation to standard eigenproblem
  | Time :     0.000 s
  Starting ELPA eigensolver
  | Time full => tridiagonal    :     0.002 s
  | Time solve tridiagonal      :     0.000 s
  | Time ev tridiagonal => full :     0.000 s
  Finished solving standard eigenproblem
  | Time :     0.003 s
  Finished back-transformation of eigenvectors
  | Time :     0.000 s

  Obtaining occupation numbers and chemical potential using ELSI.
  | Chemical potential (Fermi level):    -2.01515164eV
  Highest occupied state (VBM) at     -5.75896843 eV
  | Occupation number:      2.00000000

  Lowest unoccupied state (CBM) at    -1.66678534 eV
  | Occupation number:      0.00000000

  Overall HOMO-LUMO gap:      4.09218309 eV.

  Total energy components:
  | Sum of eigenvalues            :        -180.60120474 Ha       -4914.40882334 eV
  | XC energy correction          :         -42.62389546 Ha       -1159.85520815 eV
  | XC potential correction       :          54.80074393 Ha        1491.20411410 eV
  | Free-atom electrostatic energy:        -146.86252475 Ha       -3996.33262953 eV
  | Hartree energy correction     :          -8.19110972 Ha        -222.89143617 eV
  | vdW energy correction         :           0.00000000 Ha           0.00000000 eV
  | Entropy correction            :           0.00000000 Ha           0.00000000 eV
  | ---------------------------
  | Total energy                  :        -323.47799073 Ha       -8802.28398308 eV
  | Total energy, T -> 0          :        -323.47799073 Ha       -8802.28398308 eV  <-- do not rely on this value for anything but (periodic) metals
  | Electronic free energy        :        -323.47799073 Ha       -8802.28398308 eV

  Derived energy quantities:
  | Kinetic energy                :         323.19206973 Ha        8794.50367678 eV
  | Electrostatic energy          :        -604.04616501 Ha      -16436.93245171 eV
  | Energy correction for multipole
  | error in Hartree potential    :           0.03725940 Ha           1.01387981 eV
  | Sum of eigenvalues per atom                           :        -378.03144795 eV
  | Total energy (T->0) per atom                          :        -677.09876793 eV  <-- do not rely on this value for anything but (periodic) metals
  | Electronic free energy per atom                       :        -677.09876793 eV

  Self-consistency convergence accuracy:
  | Change of charge density      :  0.2069E+00
  | Change of sum of eigenvalues  :  0.3434E+02 eV
  | Change of total energy        :  0.3586E+00 eV

  End self-consistency iteration #     3       :  max(cpu_time)    wall_clock(cpu1)
  | Time for this iteration                    :        0.079 s           0.075 s
  | Charge density update                      :        0.023 s           0.019 s
  | Density mixing                             :        0.001 s           0.001 s
  | Hartree multipole update                   :        0.001 s           0.001 s
  | Hartree multipole summation                :        0.022 s           0.022 s
  | Integration                                :        0.027 s           0.028 s
  | Solution of K.-S. eqns.                    :        0.004 s           0.004 s
  | Total energy evaluation                    :        0.000 s           0.000 s

  Partial memory accounting:
  | Current value for overall tracked memory usage on task 0  :           0.134 MB
  | Peak value for overall tracked memory usage on task 0     :           0.828 MB after allocating gradient_basis_wave
  | Largest tracked array allocation on task 0 so far         :           0.521 MB  when allocating gradient_basis_wave
  Note:  These values currently only include a subset of arrays which are explicitly tracked.
  The "true" memory usage will be greater.
------------------------------------------------------------

------------------------------------------------------------
          Begin self-consistency iteration #    4

  Date     :  20200529, Time     :  123738.271
------------------------------------------------------------
  Evaluating new KS density.
  Integration grid: deviation in total charge (<rho> - N_e) =   1.421085E-14
  Pulay mixing of updated and previous charge densities.

  Evaluating partitioned Hartree potential by multipole expansion.
  | Analytical far-field extrapolation by fixed multipoles:
  | Hartree multipole sum: apparent total charge =  -0.647825E-03
  Summing up the Hartree potential.
  Time summed over all CPUs for potential: real work        0.412 s, elapsed        0.423 s
  | RMS charge density error from multipole expansion :   0.254099E-01

  Integrating Hamiltonian matrix: batch-based integration.
  Time summed over all CPUs for integration: real work        0.506 s, elapsed        0.539 s

  Updating Kohn-Sham eigenvalues and eigenvectors using ELSI and the ELPA eigensolver.
  ELPA settings:
  | ELPA solver          1
  Finished transformation to standard eigenproblem
  | Time :     0.000 s
  Starting ELPA eigensolver
  | Time full => tridiagonal    :     0.002 s
  | Time solve tridiagonal      :     0.000 s
  | Time ev tridiagonal => full :     0.000 s
  Finished solving standard eigenproblem
  | Time :     0.003 s
  Finished back-transformation of eigenvectors
  | Time :     0.000 s

  Obtaining occupation numbers and chemical potential using ELSI.
  | Chemical potential (Fermi level):    -1.91660986eV
  Highest occupied state (VBM) at     -5.60599381 eV
  | Occupation number:      2.00000000

  Lowest unoccupied state (CBM) at    -1.57053242 eV
  | Occupation number:      0.00000000

  Overall HOMO-LUMO gap:      4.03546140 eV.

  Total energy components:
  | Sum of eigenvalues            :        -180.44652702 Ha       -4910.19982831 eV
  | XC energy correction          :         -42.66333058 Ha       -1160.92829246 eV
  | XC potential correction       :          54.85041181 Ha        1492.55564578 eV
  | Free-atom electrostatic energy:        -146.86252475 Ha       -3996.33262953 eV
  | Hartree energy correction     :          -8.35503099 Ha        -227.35196073 eV
  | vdW energy correction         :           0.00000000 Ha           0.00000000 eV
  | Entropy correction            :           0.00000000 Ha           0.00000000 eV
  | ---------------------------
  | Total energy                  :        -323.47700152 Ha       -8802.25706526 eV
  | Total energy, T -> 0          :        -323.47700152 Ha       -8802.25706526 eV  <-- do not rely on this value for anything but (periodic) metals
  | Electronic free energy        :        -323.47700152 Ha       -8802.25706526 eV

  Derived energy quantities:
  | Kinetic energy                :         322.81501137 Ha        8784.24339676 eV
  | Electrostatic energy          :        -603.62868231 Ha      -16425.57216956 eV
  | Energy correction for multipole
  | error in Hartree potential    :           0.04152581 Ha           1.12997475 eV
  | Sum of eigenvalues per atom                           :        -377.70767910 eV
  | Total energy (T->0) per atom                          :        -677.09669733 eV  <-- do not rely on this value for anything but (periodic) metals
  | Electronic free energy per atom                       :        -677.09669733 eV

  Self-consistency convergence accuracy:
  | Change of charge density      :  0.6675E-01
  | Change of sum of eigenvalues  :  0.4209E+01 eV
  | Change of total energy        :  0.2692E-01 eV

  End self-consistency iteration #     4       :  max(cpu_time)    wall_clock(cpu1)
  | Time for this iteration                    :        0.082 s           0.075 s
  | Charge density update                      :        0.027 s           0.019 s
  | Density mixing                             :        0.001 s           0.001 s
  | Hartree multipole update                   :        0.001 s           0.001 s
  | Hartree multipole summation                :        0.022 s           0.022 s
  | Integration                                :        0.027 s           0.027 s
  | Solution of K.-S. eqns.                    :        0.004 s           0.004 s
  | Total energy evaluation                    :        0.000 s           0.000 s

  Partial memory accounting:
  | Current value for overall tracked memory usage on task 0  :           0.134 MB
  | Peak value for overall tracked memory usage on task 0     :           0.828 MB after allocating gradient_basis_wave
  | Largest tracked array allocation on task 0 so far         :           0.521 MB  when allocating gradient_basis_wave
  Note:  These values currently only include a subset of arrays which are explicitly tracked.
  The "true" memory usage will be greater.
------------------------------------------------------------

------------------------------------------------------------
          Begin self-consistency iteration #    5

  Date     :  20200529, Time     :  123738.354
------------------------------------------------------------
  Evaluating new KS density.
  Integration grid: deviation in total charge (<rho> - N_e) =   1.421085E-14
  Pulay mixing of updated and previous charge densities.

  Evaluating partitioned Hartree potential by multipole expansion.
  | Analytical far-field extrapolation by fixed multipoles:
  | Hartree multipole sum: apparent total charge =  -0.641161E-03
  Summing up the Hartree potential.
  Time summed over all CPUs for potential: real work        0.412 s, elapsed        0.422 s
  | RMS charge density error from multipole expansion :   0.251913E-01

  Integrating Hamiltonian matrix: batch-based integration.
  Time summed over all CPUs for integration: real work        0.506 s, elapsed        0.538 s

  Updating Kohn-Sham eigenvalues and eigenvectors using ELSI and the ELPA eigensolver.
  ELPA settings:
  | ELPA solver          1
  Finished transformation to standard eigenproblem
  | Time :     0.000 s
  Starting ELPA eigensolver
  | Time full => tridiagonal    :     0.002 s
  | Time solve tridiagonal      :     0.000 s
  | Time ev tridiagonal => full :     0.000 s
  Finished solving standard eigenproblem
  | Time :     0.003 s
  Finished back-transformation of eigenvectors
  | Time :     0.000 s

  Obtaining occupation numbers and chemical potential using ELSI.
  | Chemical potential (Fermi level):    -1.98961124eV
  Highest occupied state (VBM) at     -5.69036802 eV
  | Occupation number:      2.00000000

  Lowest unoccupied state (CBM) at    -1.67347372 eV
  | Occupation number:      0.00000000

  Overall HOMO-LUMO gap:      4.01689430 eV.

  Total energy components:
  | Sum of eigenvalues            :        -180.66942900 Ha       -4916.26530001 eV
  | XC energy correction          :         -42.63670159 Ha       -1160.20368080 eV
  | XC potential correction       :          54.81584599 Ha        1491.61506200 eV
  | Free-atom electrostatic energy:        -146.86252475 Ha       -3996.33262953 eV
  | Hartree energy correction     :          -8.12390266 Ha        -221.06263887 eV
  | vdW energy correction         :           0.00000000 Ha           0.00000000 eV
  | Entropy correction            :           0.00000000 Ha           0.00000000 eV
  | ---------------------------
  | Total energy                  :        -323.47671201 Ha       -8802.24918721 eV
  | Total energy, T -> 0          :        -323.47671201 Ha       -8802.24918721 eV  <-- do not rely on this value for anything but (periodic) metals
  | Electronic free energy        :        -323.47671201 Ha       -8802.24918721 eV

  Derived energy quantities:
  | Kinetic energy                :         322.68149589 Ha        8780.61025564 eV
  | Electrostatic energy          :        -603.52150630 Ha      -16422.65576205 eV
  | Energy correction for multipole
  | error in Hartree potential    :           0.04090500 Ha           1.11308180 eV
  | Sum of eigenvalues per atom                           :        -378.17425385 eV
  | Total energy (T->0) per atom                          :        -677.09609132 eV  <-- do not rely on this value for anything but (periodic) metals
  | Electronic free energy per atom                       :        -677.09609132 eV

  Self-consistency convergence accuracy:
  | Change of charge density      :  0.2004E-01
  | Change of sum of eigenvalues  : -0.6065E+01 eV
  | Change of total energy        :  0.7878E-02 eV

  End self-consistency iteration #     5       :  max(cpu_time)    wall_clock(cpu1)
  | Time for this iteration                    :        0.080 s           0.075 s
  | Charge density update                      :        0.024 s           0.019 s
  | Density mixing                             :        0.001 s           0.001 s
  | Hartree multipole update                   :        0.001 s           0.001 s
  | Hartree multipole summation                :        0.022 s           0.022 s
  | Integration                                :        0.027 s           0.027 s
  | Solution of K.-S. eqns.                    :        0.004 s           0.004 s
  | Total energy evaluation                    :        0.000 s           0.000 s

  Partial memory accounting:
  | Current value for overall tracked memory usage on task 0  :           0.134 MB
  | Peak value for overall tracked memory usage on task 0     :           0.829 MB after allocating gradient_basis_wave
  | Largest tracked array allocation on task 0 so far         :           0.521 MB  when allocating gradient_basis_wave
  Note:  These values currently only include a subset of arrays which are explicitly tracked.
  The "true" memory usage will be greater.
------------------------------------------------------------

------------------------------------------------------------
          Begin self-consistency iteration #    6

  Date     :  20200529, Time     :  123738.436
------------------------------------------------------------
  Evaluating new KS density.
  Integration grid: deviation in total charge (<rho> - N_e) =   2.131628E-14
  Pulay mixing of updated and previous charge densities.

[...]
  |   Hirshfeld dipole moment :      0.05743144
  |   Hirshfeld second moments:      0.00663402      -0.03112667      -0.02363893
  |                                 -0.03112667      -0.01597476       0.01285623
  |                                 -0.02363893       0.01285623      -0.00917736
  ----------------------------------------------------------------------
  | Atom    12: O
  |   Hirshfeld charge        :     -0.15902658
  |   Free atom volume        :     23.61338643
  |   Hirshfeld volume        :     20.83984456
  |   Hirshfeld dipole vector :      0.01083908       0.03208710       0.02133777
  |   Hirshfeld dipole moment :      0.04002959
  |   Hirshfeld second moments:      0.10505187      -0.00167367      -0.02358563
  |                                 -0.00167367       0.03710717       0.00691744
  |                                 -0.02358563       0.00691744       0.03540049
  ----------------------------------------------------------------------
  | Atom    13: H
  |   Hirshfeld charge        :      0.18663266
  |   Free atom volume        :      9.95071624
  |   Hirshfeld volume        :      5.99915372
  |   Hirshfeld dipole vector :     -0.10964787       0.03284393       0.05982982
  |   Hirshfeld dipole moment :      0.12915490
  |   Hirshfeld second moments:      0.12488990       0.00472106      -0.00407992
  |                                  0.00472106       0.11838082       0.00106896
  |                                 -0.00407992       0.00106896       0.11481674
  ----------------------------------------------------------------------


  Total energy components:
  | Sum of eigenvalues            :        -180.63986873 Ha       -4915.46092391 eV
  | XC energy correction          :         -42.63637781 Ha       -1160.19487018 eV
  | XC potential correction       :          54.81549578 Ha        1491.60553210 eV
  | Free-atom electrostatic energy:        -146.86252475 Ha       -3996.33262953 eV
  | Hartree energy correction     :          -8.15337514 Ha        -221.86462604 eV
  | vdW energy correction         :          -0.00339664 Ha          -0.09242716 eV
  | Entropy correction            :           0.00000000 Ha           0.00000000 eV
  | ---------------------------
  | Total energy                  :        -323.48004728 Ha       -8802.33994472 eV
  | Total energy, T -> 0          :        -323.48004728 Ha       -8802.33994472 eV  <-- do not rely on this value for anything but (periodic) metals
  | Electronic free energy        :        -323.48004728 Ha       -8802.33994472 eV

  Derived energy quantities:
  | Kinetic energy                :         322.58444609 Ha        8777.96939627 eV
  | Electrostatic energy          :        -603.42471893 Ha      -16420.02204365 eV
  | Energy correction for multipole
  | error in Hartree potential    :           0.04144454 Ha           1.12776318 eV
  | Sum of eigenvalues per atom                           :        -378.11237876 eV
  | Total energy (T->0) per atom                          :        -677.10307267 eV  <-- do not rely on this value for anything but (periodic) metals
  | Electronic free energy per atom                       :        -677.10307267 eV

  atomic forces [eV/Ang]:
  -----------------------
  atom #    1
   Hellmann-Feynman              :  0.821715E+00  0.326478E+00  0.768212E+00
   Ionic forces                  :  0.000000E+00  0.000000E+00  0.000000E+00
   Multipole                     : -0.887595E-01  0.420934E+00 -0.276875E+00
   Pulay + GGA                   : -0.106803E+01 -0.374926E+00 -0.122884E+01
   Van der Waals                 :  0.735159E-02  0.504310E-02 -0.336688E-02
   ----------------------------------------------------------------
   Total forces(   1)            : -0.327724E+00  0.377530E+00 -0.740874E+00
  atom #    2
   Hellmann-Feynman              :  0.272151E+00  0.723392E-01 -0.384149E-01
   Ionic forces                  :  0.000000E+00  0.000000E+00  0.000000E+00
   Multipole                     :  0.184639E+00  0.976908E-02 -0.281993E-01
   Pulay + GGA                   : -0.154957E+00 -0.188653E-01  0.810988E-02
   Van der Waals                 :  0.360741E-02 -0.674879E-02 -0.440962E-02
   ----------------------------------------------------------------
   Total forces(   2)            :  0.305440E+00  0.564942E-01 -0.629140E-01
  atom #    3
   Hellmann-Feynman              :  0.590823E+01 -0.917939E+01 -0.513984E+01
   Ionic forces                  :  0.000000E+00  0.000000E+00  0.000000E+00
   Multipole                     : -0.217375E+00  0.121988E+00 -0.921886E+00
   Pulay + GGA                   : -0.509524E+01  0.833204E+01  0.663111E+01
   Van der Waals                 :  0.237769E-02 -0.758050E-02 -0.614842E-02
   ----------------------------------------------------------------
   Total forces(   3)            :  0.597989E+00 -0.732944E+00  0.563238E+00
  atom #    4
   Hellmann-Feynman              : -0.178160E+00  0.218683E+00 -0.598916E-01
   Ionic forces                  :  0.000000E+00  0.000000E+00  0.000000E+00
   Multipole                     : -0.989424E-01  0.592661E-03 -0.498271E-01
   Pulay + GGA                   :  0.238015E+00 -0.766723E-01 -0.551851E-01
   Van der Waals                 : -0.256257E-03  0.586564E-03 -0.123632E-01
   ----------------------------------------------------------------
   Total forces(   4)            : -0.393434E-01  0.143190E+00 -0.177267E+00
  atom #    5
   Hellmann-Feynman              : -0.131295E+00  0.291094E+00 -0.778568E-02
   Ionic forces                  :  0.000000E+00  0.000000E+00  0.000000E+00
   Multipole                     : -0.374237E-01  0.611512E-01 -0.722662E-01
   Pulay + GGA                   :  0.106963E-01 -0.235685E+00  0.277573E-01
   Van der Waals                 : -0.450150E-02 -0.563802E-02 -0.452531E-02
   ----------------------------------------------------------------
   Total forces(   5)            : -0.162524E+00  0.110923E+00 -0.568199E-01
  atom #    6
   Hellmann-Feynman              :  0.295713E+00 -0.108299E+01  0.822574E+00
   Ionic forces                  :  0.000000E+00  0.000000E+00  0.000000E+00
   Multipole                     : -0.133483E+00  0.614992E+00  0.192249E+00
   Pulay + GGA                   :  0.413889E-01 -0.498655E-02 -0.505640E+00
   Van der Waals                 : -0.292017E-02  0.834117E-02  0.857263E-02
   ----------------------------------------------------------------
   Total forces(   6)            :  0.200698E+00 -0.464641E+00  0.517756E+00
  atom #    7
   Hellmann-Feynman              :  0.955630E-01  0.480983E-01 -0.196307E+00
   Ionic forces                  :  0.000000E+00  0.000000E+00  0.000000E+00
   Multipole                     :  0.269305E-01  0.133155E+00 -0.576323E-02
   Pulay + GGA                   : -0.454282E-01 -0.822545E-01  0.758102E-01
   Van der Waals                 : -0.262172E-02  0.566099E-02  0.820529E-02
   ----------------------------------------------------------------
   Total forces(   7)            :  0.744436E-01  0.104660E+00 -0.118055E+00
  atom #    8
   Hellmann-Feynman              : -0.251750E+00 -0.367011E-01 -0.447214E-01
   Ionic forces                  :  0.000000E+00  0.000000E+00  0.000000E+00
   Multipole                     : -0.116790E+00  0.512737E-01  0.277579E-01
   Pulay + GGA                   :  0.105763E+00  0.290281E-01  0.174073E-02
   Van der Waals                 : -0.246694E-02  0.312983E-02  0.698146E-02
   ----------------------------------------------------------------
   Total forces(   8)            : -0.265244E+00  0.467304E-01 -0.824135E-02
  atom #    9
   Hellmann-Feynman              :  0.761029E-01  0.847425E-01  0.268016E+00
   Ionic forces                  :  0.000000E+00  0.000000E+00  0.000000E+00
   Multipole                     :  0.116919E-01  0.601789E-01  0.125121E+00
   Pulay + GGA                   : -0.280873E-01 -0.280526E-01 -0.107350E+00
   Van der Waals                 : -0.379454E-02  0.826139E-02  0.558521E-03
   ----------------------------------------------------------------
   Total forces(   9)            :  0.559130E-01  0.125130E+00  0.286345E+00
  atom #   10
   Hellmann-Feynman              :  0.421674E+01  0.493698E+01  0.130844E+01
   Ionic forces                  :  0.000000E+00  0.000000E+00  0.000000E+00
   Multipole                     :  0.107561E+00 -0.157376E+00  0.285775E+00
   Pulay + GGA                   : -0.140634E+01 -0.312887E+01 -0.543456E+00
   Van der Waals                 :  0.487873E-02 -0.114585E-01 -0.464920E-03
   ----------------------------------------------------------------
   Total forces(  10)            :  0.292284E+01  0.163927E+01  0.105029E+01
  atom #   11
   Hellmann-Feynman              :  0.598565E+01 -0.337533E+01  0.125856E+02
   Ionic forces                  :  0.000000E+00  0.000000E+00  0.000000E+00
   Multipole                     :  0.148949E+00 -0.720432E+00  0.775763E+00
   Pulay + GGA                   : -0.519324E+01  0.482358E+01 -0.124139E+02
   Van der Waals                 : -0.653381E-03 -0.889158E-02  0.160185E-02
   ----------------------------------------------------------------
   Total forces(  11)            :  0.940703E+00  0.718926E+00  0.949111E+00
  atom #   12
   Hellmann-Feynman              : -0.206106E+01 -0.895709E+01 -0.130160E+02
   Ionic forces                  :  0.000000E+00  0.000000E+00  0.000000E+00
   Multipole                     : -0.825921E+00 -0.128914E+01 -0.465291E+00
   Pulay + GGA                   : -0.524754E+00  0.902839E+01  0.113824E+02
   Van der Waals                 :  0.151461E-02  0.501808E-02  0.537854E-02
   ----------------------------------------------------------------
   Total forces(  12)            : -0.341022E+01 -0.121282E+01 -0.209355E+01
  atom #   13
   Hellmann-Feynman              : -0.114873E+01 -0.776361E+00  0.846023E-01
   Ionic forces                  :  0.000000E+00  0.000000E+00  0.000000E+00
   Multipole                     : -0.614466E-01  0.186583E-01  0.161101E-01
   Pulay + GGA                   :  0.314852E+00 -0.158934E+00 -0.211597E+00
   Van der Waals                 : -0.251551E-02  0.427627E-02 -0.199537E-04
   ----------------------------------------------------------------
   Total forces(  13)            : -0.897838E+00 -0.912360E+00 -0.110905E+00

  Timings for VdW correction (Tkatchenko-Scheffler 2009 or later):
  | CPU time:        0.009 s, Wall clock time:        0.007 s.
  Removing unitary transformations (pure translations, rotations) from forces on atoms.
  Atomic forces before filtering:
  | Net force on center of mass :  -0.486895E-02  0.917126E-04 -0.188008E-02 eV/A
  | Net torque on center of mass:  -0.771563E-02  0.322758E-02 -0.900058E-02 eV
  Atomic forces after filtering:
  | Net force on center of mass :   0.356812E-15 -0.356812E-15  0.780527E-15 eV/A
  | Net torque on center of mass:   0.755268E-15 -0.377634E-15  0.132172E-14 eV

  Energy and forces in a compact form:
  | Total energy uncorrected      :         -0.880233994472461E+04 eV
  | Total energy corrected        :         -0.880233994472461E+04 eV  <-- do not rely on this value for anything but (periodic) metals
  | Electronic free energy        :         -0.880233994472461E+04 eV
  Total atomic forces (unitary forces cleaned) [eV/Ang]:
  |   1         -0.327327059631987E+00          0.377728823936822E+00         -0.740654051675846E+00
  |   2          0.305837421981808E+00          0.570320475398435E-01         -0.625471354669534E-01
  |   3          0.598576102520110E+00         -0.732610447956447E+00          0.563393531028320E+00
  |   4         -0.386940780606119E-01          0.143214190801369E+00         -0.177286555084794E+00
  |   5         -0.162165832521247E+00          0.111393167867242E+00         -0.564570952006825E-01
  |   6          0.200606103091061E+00         -0.464741792358141E+00          0.518161438126214E+00
  |   7          0.741380378856342E-01          0.104777627273549E+00         -0.117416841141586E+00
  |   8         -0.265348507055202E+00          0.462944934431900E-01         -0.797350747035833E-02
  |   9          0.556820729273593E-01          0.124924143552866E+00          0.286794841687529E+00
  |  10          0.292353749268601E+01          0.163919733776206E+01          0.105020179884662E+01
  |  11          0.941372918583048E+00          0.718782115111955E+00          0.949006005183368E+00
  |  12         -0.340922372362268E+01         -0.121305073598554E+01         -0.209390744468207E+01
  |  13         -0.896990948783303E+00         -0.912940970988771E+00         -0.111314984149762E+00

  ------------------------------------ 
  Start decomposition of the XC Energy 
  ------------------------------------ 
  X and C from original XC functional choice 
  Hartree-Fock Energy :          0.000000000 Ha              0.000000000 eV
  X Energy            :        -41.036379405 Ha          -1116.656698485 eV
  C Energy            :         -1.599998401 Ha            -43.538171697 eV
  Total XC Energy     :        -42.636377807 Ha          -1160.194870181 eV
  ------------------------------------ 
  LDA X and C from self-consistent density 
  X Energy LDA        :        -37.254263406 Ha          -1013.740085807 eV
  C Energy LDA        :         -3.138374147 Ha            -85.399505608 eV
  ------------------------------------ 
  End decomposition of the XC Energy 
  ------------------------------------ 

------------------------------------------------------------

------------------------------------------------------------------------------
  Final output of selected total energy values:

  The following output summarizes some interesting total energy values
  at the end of a run (AFTER all relaxation, molecular dynamics, etc.).

  | Total energy of the DFT / Hartree-Fock s.c.f. calculation      :          -8802.339944725 eV
  | Final zero-broadening corrected energy (caution - metals only) :          -8802.339944725 eV
  | For reference only, the value of 1 Hartree used in FHI-aims is :             27.211384500 eV

  Before relying on these values, please be sure to understand exactly which
  total energy value is referred to by a given number. Different objects may
  all carry the same name 'total energy'. Definitions:

  Total energy of the DFT / Hartree-Fock s.c.f. calculation:
  | Note that this energy does not include ANY quantities calculated after the
  | s.c.f. cycle, in particular not ANY RPA, MP2, etc. many-body perturbation terms.

  Final zero-broadening corrected energy:
  | For metallic systems only, a broadening of the occupation numbers at the Fermi
  | level can be extrapolated back to zero broadening by an electron-gas inspired
  | formula. For all systems that are not real metals, this value can be
  | meaningless and should be avoided.

------------------------------------------------------------------------------
  Methods described in the following list of references were used in this FHI-aims run.
  If you publish the results, please make sure to cite these reference if they apply.
  FHI-aims is an academic code, and for our developers (often, Ph.D. students
  and postdocs), scientific credit in the community is essential.
  Thank you for helping us!

  For any use of FHI-aims, please cite:

    Volker Blum, Ralf Gehrke, Felix Hanke, Paula Havu, Ville Havu,
    Xinguo Ren, Karsten Reuter, and Matthias Scheffler
    'Ab initio molecular simulations with numeric atom-centered orbitals'
    Computer Physics Communications 180, 2175-2196 (2009)
    http://dx.doi.org/10.1016/j.cpc.2009.06.022


  The scalable eigensolver library ELPA was used in your run.
  ELPA is essential especially for large systems on hundreds or thousands of CPUs.
  For ELPA, please cite:

    Andreas Marek, Volker Blum, Rainer Johanni, Ville Havu, Bruno Lang,
    Thomas Auckenthaler, Alexander Heinecke, Hans-Joachim Bungartz, and Hermann Lederer,
    'The ELPA Library - Scalable Parallel Eigenvalue Solutions
    for Electronic Structure Theory and Computational Science'
    The Journal of Physics: Condensed Matter 26, 213201 (2014).
    http://dx.doi.org/10.1088/0953-8984/26/21/213201


  The ELSI infrastructure was used in your run to solve the Kohn-Sham electronic structure.
  Please check out http://elsi-interchange.org to learn more.
  If scalability is important for your project, please acknowledge ELSI by citing:

    V. W-z. Yu, F. Corsetti, A. Garcia, W. P. Huhn, M. Jacquelin, W. Jia,
    B. Lange, L. Lin, J. Lu, W. Mi, A. Seifitokaldani, A. Vazquez-Mayagoitia,
    C. Yang, H. Yang, and V. Blum
    'ELSI: A unified software interface for Kohn-Sham electronic structure solvers'
    Computer Physics Communications 222, 267-285 (2018).
    http://dx.doi.org/10.1016/j.cpc.2017.09.007


  For the real-space grid partitioning and parallelization used in this calculation, please cite:

    Ville Havu, Volker Blum, Paula Havu, and Matthias Scheffler,
    'Efficient O(N) integration for all-electron electronic structure calculation'
    'using numerically tabulated basis functions'
    Journal of Computational Physics 228, 8367-8379 (2009).
    http://dx.doi.org/10.1016/j.jcp.2009.08.008

  Of course, there are many other important community references, e.g., those cited in the
  above references. Our list is limited to references that describe implementations in the
  FHI-aims code. The reason is purely practical (length of this list) - please credit others as well.

------------------------------------------------------------
          Leaving FHI-aims.
          Date     :  20200529, Time     :  123739.523

          Computational steps:
          | Number of self-consistency cycles          :           16
          | Number of SCF (re)initializations          :            1

          Detailed time accounting                     :  max(cpu_time)    wall_clock(cpu1)
          | Total time                                 :        1.740 s           1.812 s
          | Preparation time                           :        0.165 s           0.165 s
          | Boundary condition initalization           :        0.000 s           0.000 s
          | Grid partitioning                          :        0.022 s           0.022 s
          | Preloading free-atom quantities on grid    :        0.002 s           0.002 s
          | Free-atom superposition energy             :        0.005 s           0.005 s
          | Total time for integrations                :        0.478 s           0.477 s
          | Total time for solution of K.-S. equations :        0.077 s           0.079 s
          | Total time for density & force components  :        0.456 s           0.364 s
          | Total time for mixing                      :        0.018 s           0.019 s
          | Total time for Hartree multipole update    :        0.020 s           0.021 s
          | Total time for Hartree multipole sum       :        0.430 s           0.432 s
          | Total time for total energy evaluation     :        0.003 s           0.001 s
          | Total time for vdW correction              :        0.009 s           0.007 s

          Partial memory accounting:
          | Residual value for overall tracked memory usage across tasks :           0.000 MB (should be 0.000 MB)
          | Peak values for overall tracked memory usage (after allocating hessian_basis_wave):
          |   Minimum:        2.016 MB (on task 16)
          |   Maximum:        2.054 MB (on task 10)
          |   Average:        2.040 MB
          | Largest tracked array allocation (hessian_basis_wave):
          |   Minimum:        1.033 MB (on task 11)
          |   Maximum:        1.051 MB (on task 10)
          |   Average:        1.043 MB
          Note:  These values currently only include a subset of arrays which are explicitly tracked.
          The "true" memory usage will be greater.

          Have a nice day.
------------------------------------------------------------
