  MPI-parallelism will be employed.
------------------------------------------------------------
          Invoking FHI-aims ...
          Version 171221_1
          Compiled on 2019/09/09 at 14:39:39 on host puhti-login2.bullx.

          When using FHI-aims, please cite the following reference:

          Volker Blum, Ralf Gehrke, Felix Hanke, Paula Havu,
          Ville Havu, Xinguo Ren, Karsten Reuter, and Matthias Scheffler,
          'Ab Initio Molecular Simulations with Numeric Atom-Centered Orbitals',
          Computer Physics Communications 180, 2175-2196 (2009)

          For any questions about FHI-aims, please visit the aimsclub website
          with its forums and wiki. Contributions to both the forums and the
          wiki are warmly encouraged - they are for you, and everyone is welcome there.

------------------------------------------------------------



  Date     :  20200603, Time     :  105154.032
  Time zero on CPU 1             :   0.371290000000000E-01  s.
  Internal wall clock time zero  :           360413514.032  s.

  FHI-aims created a unique identifier for this run for later identification
  aims_uuid : A3DC6E7B-5EB4-4888-AB4D-E7232790FD8D

  Using       20 parallel tasks.
  Task        0 on host r07c06.bullx reporting.
  Task        1 on host r07c06.bullx reporting.
  Task        2 on host r07c06.bullx reporting.
  Task        3 on host r07c06.bullx reporting.
  Task        4 on host r07c06.bullx reporting.
  Task        5 on host r07c06.bullx reporting.
  Task        6 on host r07c06.bullx reporting.
  Task        7 on host r07c06.bullx reporting.
  Task        8 on host r07c06.bullx reporting.
  Task        9 on host r07c06.bullx reporting.
  Task       10 on host r07c06.bullx reporting.
  Task       11 on host r07c06.bullx reporting.
  Task       12 on host r07c06.bullx reporting.
  Task       13 on host r07c06.bullx reporting.
  Task       14 on host r07c06.bullx reporting.
  Task       15 on host r07c06.bullx reporting.
  Task       16 on host r07c06.bullx reporting.
  Task       17 on host r07c06.bullx reporting.
  Task       18 on host r07c06.bullx reporting.
  Task       19 on host r07c06.bullx reporting.

  Performing system and environment tests:
  | Environment variable OMP_NUM_THREADS correctly set to 1.
  | Stacksize not measured: no C compiler
  | Checking for scalapack...
  | Testing pdtran()...
  | All pdtran() tests passed.

  Obtaining array dimensions for all initial allocations:
  
  -----------------------------------------------------------------------
  Parsing control.in (first pass over file, find array dimensions only).
  The contents of control.in will be repeated verbatim below
  unless switched off by setting 'verbatim_writeout .false.' .
  in the first line of control.in .
  -----------------------------------------------------------------------
  
  #########################################################################################
  #
  #  Volker Blum, FHI 2009 : Test run input file control.in for simple H2O
  #
  #########################################################################################
  #
  #  Physical model
  #
    xc                 pbe
    vdw_correction_hirshfeld
    spin               none
    relativistic       none
    charge             0.
  #
  #  SCF convergence
  #
    occupation_type    gaussian 0.01
    mixer              pulay
      n_max_pulay        10
      charge_mix_param   0.2
    sc_accuracy_rho    1E-5
    sc_accuracy_eev    1E-3
    sc_accuracy_etot   1E-6
    sc_accuracy_forces 1E-4
    sc_iter_limit      100
  #
  #  Relaxation
  #
  #  relax_geometry   bfgs 1.e-3
  #
  ################################################################################
  #
  #  FHI-aims code project
  #  VB, Fritz-Haber Institut, 2009
  #
  #  Suggested "light" defaults for H atom (to be pasted into control.in file)
  #  Be sure to double-check any results obtained with these settings for post-processing,
  #  e.g., with the "tight" defaults and larger basis sets.
  #
  ################################################################################
    species        H
  #     global species definitions
      nucleus             1
      mass                1.00794
  #
      l_hartree           4
  #
      cut_pot             3.5  1.5  1.0
      basis_dep_cutoff    1e-4
  #
      radial_base         24 5.0
      radial_multiplier   1
      angular_grids       specified
        division   0.2421   50
        division   0.3822  110
        division   0.4799  194
        division   0.5341  302
  #      division   0.5626  434
  #      division   0.5922  590
  #      division   0.6542  770
  #      division   0.6868 1202
  #      outer_grid  770
        outer_grid  302
  ################################################################################
  #
  #  Definition of "minimal" basis
  #
  ################################################################################
  #     valence basis states
      valence      1  s   1.
  #     ion occupancy
      ion_occ      1  s   0.5
  ################################################################################
  #
  #  Suggested additional basis functions. For production calculations,
  #  uncomment them one after another (the most important basis functions are
  #  listed first).
  #
  #  Basis constructed for dimers: 0.5 A, 0.7 A, 1.0 A, 1.5 A, 2.5 A
  #
  ################################################################################
  #  "First tier" - improvements: -1014.90 meV to -62.69 meV
       hydro 2 s 2.1
       hydro 2 p 3.5
  #  "Second tier" - improvements: -12.89 meV to -1.83 meV
  #     hydro 1 s 0.85
  #     hydro 2 p 3.7
  #     hydro 2 s 1.2
  #     hydro 3 d 7
  #  "Third tier" - improvements: -0.25 meV to -0.12 meV
  #     hydro 4 f 11.2
  #     hydro 3 p 4.8
  #     hydro 4 d 9
  #     hydro 3 s 3.2
  ################################################################################
  #
  #  FHI-aims code project
  #  VB, Fritz-Haber Institut, 2009
  #
  #  Suggested "light" defaults for C atom (to be pasted into control.in file)
  #  Be sure to double-check any results obtained with these settings for post-processing,
  #  e.g., with the "tight" defaults and larger basis sets.
  #
  ################################################################################
    species        C
  #     global species definitions
      nucleus             6
      mass                12.0107
  #
      l_hartree           4
  #
      cut_pot             3.5  1.5  1.0
      basis_dep_cutoff    1e-4
  #
      radial_base         34 5.0
      radial_multiplier   1
      angular_grids specified
        division   0.3326   50
        division   0.5710  110
        division   0.7727  194
        division   0.8772  302
  #      division   0.9334  434
  #      division   0.9625  590
  #      division   0.9924  770
  #      division   1.0230  974
  #      division   1.4589 1202
  #     outer_grid  974
       outer_grid 302
  ################################################################################
  #
  #  Definition of "minimal" basis
  #
  ################################################################################
  #     valence basis states
      valence      2  s   2.
      valence      2  p   2.
  #     ion occupancy
      ion_occ      2  s   1.
      ion_occ      2  p   1.
  ################################################################################
  #
  #  Suggested additional basis functions. For production calculations,
  #  uncomment them one after another (the most important basis functions are
  #  listed first).
  #
  #  Constructed for dimers: 1.0 A, 1.25 A, 1.5 A, 2.0 A, 3.0 A
  #
  ################################################################################
  #  "First tier" - improvements: -1214.57 meV to -155.61 meV
       hydro 2 p 1.7
       hydro 3 d 6
       hydro 2 s 4.9
  #  "Second tier" - improvements: -67.75 meV to -5.23 meV
  #     hydro 4 f 9.8
  #     hydro 3 p 5.2
  #     hydro 3 s 4.3
  #     hydro 5 g 14.4
  #     hydro 3 d 6.2
  #  "Third tier" - improvements: -2.43 meV to -0.60 meV
  #     hydro 2 p 5.6
  #     hydro 2 s 1.4
  #     hydro 3 d 4.9
  #     hydro 4 f 11.2
  #  "Fourth tier" - improvements: -0.39 meV to -0.18 meV
  #     hydro 2 p 2.1
  #     hydro 5 g 16.4
  #     hydro 4 d 13.2
  #     hydro 3 s 13.6
  #     hydro 4 f 17.6
  #  Further basis functions - improvements: -0.08 meV and below
  #     hydro 3 s 2
  #     hydro 3 p 6
  #     hydro 4 d 20
  ################################################################################
  #
  #  FHI-aims code project
  #  VB, Fritz-Haber Institut, 2009
  #
  #  Suggested "light" defaults for N atom (to be pasted into control.in file)
  #  Be sure to double-check any results obtained with these settings for post-processing,
  #  e.g., with the "tight" defaults and larger basis sets.
  #
  ################################################################################
    species        N
  #     global species definitions
      nucleus             7
      mass                14.0067
  #
      l_hartree           4
  #
      cut_pot             3.5  1.5  1.0
      basis_dep_cutoff    1e-4
  #
      radial_base         35 5.0
      radial_multiplier   1
      angular_grids       specified
        division   0.2599   50
        division   0.4601  110
        division   0.5885  194
        division   0.6503  302
  #      division   0.6939  434
  #      division   0.7396  590
  #      division   0.7632  770
  #      division   0.8122  974
  #      division   1.1604 1202
  #      outer_grid  974
        outer_grid  302
  ################################################################################
  #
  #  Definition of "minimal" basis
  #
  ################################################################################
  #     valence basis states
      valence      2  s   2.
      valence      2  p   3.
  #     ion occupancy
      ion_occ      2  s   1.
      ion_occ      2  p   2.
  ################################################################################
  #
  #  Suggested additional basis functions. For production calculations,
  #  uncomment them one after another (the most important basis functions are
  #  listed first).
  #
  #  Constructed for dimers: 1.0 A, 1.1 A, 1.5 A, 2.0 A, 3.0 A
  #
  ################################################################################
  #  "First tier" - improvements: -1193.42 meV to -220.60 meV
       hydro 2 p 1.8
       hydro 3 d 6.8
       hydro 3 s 5.8
  #  "Second tier" - improvements: -80.21 meV to -6.86 meV
  #     hydro 4 f 10.8
  #     hydro 3 p 5.8
  #     hydro 1 s 0.8
  #     hydro 5 g 16
  #     hydro 3 d 4.9
  #  "Third tier" - improvements: -4.29 meV to -0.53 meV
  #     hydro 3 s 16
  #     ionic 2 p auto
  #     hydro 3 d 6.6
  #     hydro 4 f 11.6
  #  "Fourth tier" - improvements: -0.75 meV to -0.25 meV
  #     hydro 2 p 4.5
  #     hydro 2 s 2.4
  #     hydro 5 g 14.4
  #     hydro 4 d 14.4
  #     hydro 4 f 16.8
  # Further basis functions - -0.21 meV and below
  #     hydro 3 p 14.8
  #     hydro 3 s 4.4
  #     hydro 3 d 19.6
  #     hydro 5 g 12.8
  ################################################################################
  #
  #  FHI-aims code project
  #  VB, Fritz-Haber Institut, 2009
  #
  #  Suggested "light" defaults for O atom (to be pasted into control.in file)
  #  Be sure to double-check any results obtained with these settings for post-processing,
  #  e.g., with the "tight" defaults and larger basis sets.
  #
  ################################################################################
    species        O
  #     global species definitions
      nucleus             8
      mass                15.9994
  #
      l_hartree           4
  #
      cut_pot             3.5  1.5  1.0
      basis_dep_cutoff    1e-4
  #
      radial_base         36 5.0
      radial_multiplier   1
       angular_grids specified
        division   0.2659   50
        division   0.4451  110
        division   0.6052  194
        division   0.7543  302
  #      division   0.8014  434
  #      division   0.8507  590
  #      division   0.8762  770
  #      division   0.9023  974
  #      division   1.2339 1202
  #      outer_grid 974
        outer_grid 302
  ################################################################################
  #
  #  Definition of "minimal" basis
  #
  ################################################################################
  #     valence basis states
      valence      2  s   2.
      valence      2  p   4.
  #     ion occupancy
      ion_occ      2  s   1.
      ion_occ      2  p   3.
  ################################################################################
  #
  #  Suggested additional basis functions. For production calculations,
  #  uncomment them one after another (the most important basis functions are
  #  listed first).
  #
  #  Constructed for dimers: 1.0 A, 1.208 A, 1.5 A, 2.0 A, 3.0 A
  #
  ################################################################################
  #  "First tier" - improvements: -699.05 meV to -159.38 meV
       hydro 2 p 1.8
       hydro 3 d 7.6
       hydro 3 s 6.4
  #  "Second tier" - improvements: -49.91 meV to -5.39 meV
  #     hydro 4 f 11.6
  #     hydro 3 p 6.2
  #     hydro 3 d 5.6
  #     hydro 5 g 17.6
  #     hydro 1 s 0.75
  #  "Third tier" - improvements: -2.83 meV to -0.50 meV
  #     ionic 2 p auto
  #     hydro 4 f 10.8
  #     hydro 4 d 4.7
  #     hydro 2 s 6.8
  #  "Fourth tier" - improvements: -0.40 meV to -0.12 meV
  #     hydro 3 p 5
  #     hydro 3 s 3.3
  #     hydro 5 g 15.6
  #     hydro 4 f 17.6
  #     hydro 4 d 14
  # Further basis functions - -0.08 meV and below
  #     hydro 3 s 2.1
  #     hydro 4 d 11.6
  #     hydro 3 p 16
  #     hydro 2 s 17.2
  
  -----------------------------------------------------------------------
  Completed first pass over input file control.in .
  -----------------------------------------------------------------------
  
  
  -----------------------------------------------------------------------
  Parsing geometry.in (first pass over file, find array dimensions only).
  The contents of geometry.in will be repeated verbatim below
  unless switched off by setting 'verbatim_writeout .false.' .
  in the first line of geometry.in .
  -----------------------------------------------------------------------
  
  atom  0.00000 0.00000 0.00000 C
  atom  1.09300 0.00000 0.00000 H
  atom  -0.47961 0.00000 -1.41207 N
  atom  0.31875 -0.15577 -2.02867 H
  atom  -1.16251 -0.74629 -1.52532 H
  atom  -0.49584 1.26211 0.72868 C
  atom  0.34596 1.90872 0.98718 H
  atom  -1.18252 1.82499 0.09212 H
  atom  -1.01947 0.99060 1.64827 H
  atom  -0.39425 -1.28861 0.74398 C
  atom  -1.46043 -1.85129 0.66712 O
  atom  0.51360 -1.79660 1.51503 O
  atom  -0.00601 -2.53259 1.88014 H
  
  -----------------------------------------------------------------------
  Completed first pass over input file geometry.in .
  -----------------------------------------------------------------------
  

  Basic array size parameters:
  | Number of species                 :        4
  | Number of atoms                   :       13
  | Max. basis fn. angular momentum   :        2
  | Max. atomic/ionic basis occupied n:        2
  | Max. number of basis fn. types    :        2
  | Max. radial fns per species/type  :        3
  | Max. logarithmic grid size        :     1301
  | Max. radial integration grid size :       36
  | Max. angular integration grid size:      302
  | Max. angular grid division number :        8
  | Radial grid for Hartree potential :     1301
  | Number of spin channels           :        1

------------------------------------------------------------
          Reading file control.in.
------------------------------------------------------------
  XC: Using PBE gradient-corrected functionals.
  Spin treatment: No spin polarisation.
  Non-relativistic treatment of kinetic energy.
  Charge =   0.000000E+00: Neutral system requested explicitly.
  Occupation type: Gaussian broadening, width =   0.100000E-01 eV.
  Using pulay charge density mixing.
  Pulay mixing - number of memorized iterations:   10
  Charge density mixing - mixing parameter:     0.2000
  Convergence accuracy of self-consistent charge density:  0.1000E-04
  Convergence accuracy of sum of eigenvalues:  0.1000E-02
  Convergence accuracy of total energy:  0.1000E-05
  Convergence accuracy of forces:  0.1000E-03
  Maximum number of s.-c. iterations  :   100
 
  Reading configuration options for species H                   .
  | Found nuclear charge :   1.0000
  | Found atomic mass :    1.00794000000000      amu
  | Found l_max for Hartree potential  :   4
  | Found cutoff potl. onset [A], width [A], scale factor :    3.50000    1.50000    1.00000
  | Threshold for basis-dependent cutoff potential is   0.100000E-03
  | Found data for basic radial integration grid :    24 points, outermost radius =    5.000 A
  | Found multiplier for basic radial grid :   1
  | Found angular grid specification: user-specified.
  | Specified grid contains     5 separate shells.
  | Check grid settings after all constraints further below.
  | Found free-atom valence shell :  1 s   1.000
  | No ionic wave fns used. Skipping ion_occ.
  | Found hydrogenic basis function :  2 s   2.100
  | Found hydrogenic basis function :  2 p   3.500
  Species H                   : Missing cutoff potential type.
  Defaulting to exp(1/x)/(1-x)^2 type cutoff potential.
  Species H : No 'logarithmic' tag. Using default grid for free atom:
  | Default logarithmic grid data [bohr] : 0.1000E-03 0.1000E+03 0.1012E+01
  Species H : On-site basis accuracy parameter (for Gram-Schmidt orthonormalisation) not specified.
  Using default value basis_acc =  0.1000000E-03.
  Species H                   : Using default innermost maximum threshold i_radial=  2 for radial functions.
  Species H                   : Default cutoff onset for free atom density etc. : 0.35000000E+01 AA.
  Species H                   : Basic radial grid will be enhanced according to radial_multiplier =   1, to contain    24 grid points.
 
  Reading configuration options for species C                   .
  | Found nuclear charge :   6.0000
  | Found atomic mass :    12.0107000000000      amu
  | Found l_max for Hartree potential  :   4
  | Found cutoff potl. onset [A], width [A], scale factor :    3.50000    1.50000    1.00000
  | Threshold for basis-dependent cutoff potential is   0.100000E-03
  | Found data for basic radial integration grid :    34 points, outermost radius =    5.000 A
  | Found multiplier for basic radial grid :   1
  | Found angular grid specification: user-specified.
  | Specified grid contains     5 separate shells.
  | Check grid settings after all constraints further below.
  | Found free-atom valence shell :  2 s   2.000
  | Found free-atom valence shell :  2 p   2.000
  | No ionic wave fns used. Skipping ion_occ.
  | No ionic wave fns used. Skipping ion_occ.
  | Found hydrogenic basis function :  2 p   1.700
  | Found hydrogenic basis function :  3 d   6.000
  | Found hydrogenic basis function :  2 s   4.900
  Species C                   : Missing cutoff potential type.
  Defaulting to exp(1/x)/(1-x)^2 type cutoff potential.
  Species C : No 'logarithmic' tag. Using default grid for free atom:
  | Default logarithmic grid data [bohr] : 0.1000E-03 0.1000E+03 0.1012E+01
  Species C : On-site basis accuracy parameter (for Gram-Schmidt orthonormalisation) not specified.
  Using default value basis_acc =  0.1000000E-03.
  Species C                   : Using default innermost maximum threshold i_radial=  2 for radial functions.
  Species C                   : Default cutoff onset for free atom density etc. : 0.35000000E+01 AA.
  Species C                   : Basic radial grid will be enhanced according to radial_multiplier =   1, to contain    34 grid points.
 
  Reading configuration options for species N                   .
  | Found nuclear charge :   7.0000
  | Found atomic mass :    14.0067000000000      amu
  | Found l_max for Hartree potential  :   4
  | Found cutoff potl. onset [A], width [A], scale factor :    3.50000    1.50000    1.00000
  | Threshold for basis-dependent cutoff potential is   0.100000E-03
  | Found data for basic radial integration grid :    35 points, outermost radius =    5.000 A
  | Found multiplier for basic radial grid :   1
  | Found angular grid specification: user-specified.
  | Specified grid contains     5 separate shells.
  | Check grid settings after all constraints further below.
  | Found free-atom valence shell :  2 s   2.000
  | Found free-atom valence shell :  2 p   3.000
  | No ionic wave fns used. Skipping ion_occ.
  | No ionic wave fns used. Skipping ion_occ.
  | Found hydrogenic basis function :  2 p   1.800
  | Found hydrogenic basis function :  3 d   6.800
  | Found hydrogenic basis function :  3 s   5.800
  Species N                   : Missing cutoff potential type.
  Defaulting to exp(1/x)/(1-x)^2 type cutoff potential.
  Species N : No 'logarithmic' tag. Using default grid for free atom:
  | Default logarithmic grid data [bohr] : 0.1000E-03 0.1000E+03 0.1012E+01
  Species N : On-site basis accuracy parameter (for Gram-Schmidt orthonormalisation) not specified.
  Using default value basis_acc =  0.1000000E-03.
  Species N                   : Using default innermost maximum threshold i_radial=  2 for radial functions.
  Species N                   : Default cutoff onset for free atom density etc. : 0.35000000E+01 AA.
  Species N                   : Basic radial grid will be enhanced according to radial_multiplier =   1, to contain    35 grid points.
 
  Reading configuration options for species O                   .
  | Found nuclear charge :   8.0000
  | Found atomic mass :    15.9994000000000      amu
  | Found l_max for Hartree potential  :   4
  | Found cutoff potl. onset [A], width [A], scale factor :    3.50000    1.50000    1.00000
  | Threshold for basis-dependent cutoff potential is   0.100000E-03
  | Found data for basic radial integration grid :    36 points, outermost radius =    5.000 A
  | Found multiplier for basic radial grid :   1
  | Found angular grid specification: user-specified.
  | Specified grid contains     5 separate shells.
  | Check grid settings after all constraints further below.
  | Found free-atom valence shell :  2 s   2.000
  | Found free-atom valence shell :  2 p   4.000
  | No ionic wave fns used. Skipping ion_occ.
  | No ionic wave fns used. Skipping ion_occ.
  | Found hydrogenic basis function :  2 p   1.800
  | Found hydrogenic basis function :  3 d   7.600
  | Found hydrogenic basis function :  3 s   6.400
  Species O                   : Missing cutoff potential type.
  Defaulting to exp(1/x)/(1-x)^2 type cutoff potential.
  Species O : No 'logarithmic' tag. Using default grid for free atom:
  | Default logarithmic grid data [bohr] : 0.1000E-03 0.1000E+03 0.1012E+01
  Species O : On-site basis accuracy parameter (for Gram-Schmidt orthonormalisation) not specified.
  Using default value basis_acc =  0.1000000E-03.
  Species O                   : Using default innermost maximum threshold i_radial=  2 for radial functions.
  Species O                   : Default cutoff onset for free atom density etc. : 0.35000000E+01 AA.
  Species O                   : Basic radial grid will be enhanced according to radial_multiplier =   1, to contain    36 grid points.
 
  Finished reading input file 'control.in'. Consistency checks are next.
 
  MPI_IN_PLACE appears to work with this MPI implementation.
  | Keeping use_mpi_in_place .true. (see manual).
  Target number of points in a grid batch is not set. Defaulting to  100
  Method for grid partitioning is not set. Defaulting to parallel hash+maxmin partitioning.
  Batch size limit is not set. Defaulting to    200
  By default, will store active basis functions for each batch.
  If in need of memory, prune_basis_once .false. can be used to disable this option.
  communication_type for Hartree potential was not specified.
  Defaulting to calc_hartree .
  Pulay mixer: Number of initial linear mixing iterations not set.
  Defaulting to    0 iterations.
  Work space size for distributed Hartree potential not set.
  Defaulting to   0.200000E+03 MB.
  Algorithm-dependent basis array size parameters:
  | n_max_pulay                         :       10
  Presetting      1001 iterations before the initial mixing cycle
  is restarted anyway using the sc_init_iter criterion / keyword.
  Presetting a factor      1.000 between actual scf density residual
  and density convergence criterion sc_accuracy_rho below which sc_init_iter
  takes no effect.
  Geometry relaxation not requested: no relaxation will be performed.
  Handling of forces: Unphysical translation and rotation will be removed from forces.
  No accuracy limit for integral partition fn. given. Defaulting to  0.1000E-14.
  No threshold value for u(r) in integrations given. Defaulting to  0.1000E-05.
  No accuracy for occupation numbers given. Defaulting to  0.1000E-12.
  No threshold value for occupation numbers given. Defaulting to  0.0000E+00.
  No accuracy for fermi level given. Defaulting to  0.1000E-19.
  Maximum # of iterations to find E_F not set. Defaulting to  200.
  Preferred method for the eigenvalue solver ('KS_method') not specified in 'control.in'.
  Calling BLACS routine to test compilation state
  Since ScaLAPACK support is enabled, defaulting to 'elsi'.
  Will not use alltoall communication since running on < 1024 CPUs.
  Threshold for basis singularities not set.
  Default threshold for basis singularities:  0.1000E-04
  partition_type (choice of integration weights) for integrals was not specified.
  | Using a version of the partition function of Stratmann and coworkers ('stratmann_smoother').
  | At each grid point, the set of atoms used to build the partition table is smoothly restricted to
  | only those atoms whose free-atom density would be non-zero at that grid point.
  Partitioning for Hartree potential was not defined. Using partition_type for integrals.
  | Adjusted default value of keyword multip_moments_threshold to:       0.10000000E-11
  | This value may affect high angular momentum components of the Hartree potential in periodic systems.
  No q(lm)/r^(l+1) cutoff set for long-range Hartree potential.
  | Using default value of  0.100000E-09 .
  | Verify using the multipole_threshold keyword.
  Defaulting to new monopole extrapolation.
  Density update method: automatic selection selected.
------------------------------------------------------------


------------------------------------------------------------
          Reading geometry description geometry.in.
------------------------------------------------------------
  Input structure read successfully.
  The structure contains       13 atoms,  and a total of         48.000 electrons.

  Input geometry:
  | No unit cell requested.
  | Atomic structure:
  |       Atom                x [A]            y [A]            z [A]
  |    1: Species C             0.00000000        0.00000000        0.00000000
  |    2: Species H             1.09300000        0.00000000        0.00000000
  |    3: Species N            -0.47961000        0.00000000       -1.41207000
  |    4: Species H             0.31875000       -0.15577000       -2.02867000
  |    5: Species H            -1.16251000       -0.74629000       -1.52532000
  |    6: Species C            -0.49584000        1.26211000        0.72868000
  |    7: Species H             0.34596000        1.90872000        0.98718000
  |    8: Species H            -1.18252000        1.82499000        0.09212000
  |    9: Species H            -1.01947000        0.99060000        1.64827000
  |   10: Species C            -0.39425000       -1.28861000        0.74398000
  |   11: Species O            -1.46043000       -1.85129000        0.66712000
  |   12: Species O             0.51360000       -1.79660000        1.51503000
  |   13: Species H            -0.00601000       -2.53259000        1.88014000
  |

  | The smallest distance between any two atoms is         0.97210141 AA.
  |
  | The first atom of this pair is atom number                     12 .
  | The second atom of this pair is atom number                    13 .

  Number of empty states per atom not set in control.in - providing a guess from actual geometry.
  | Total number of empty states used during s.c.f. cycle:       29
  If you use a very high smearing, use empty_states (per atom!) in control.in to increase this value.

  Structure-dependent array size parameters: 
  | Maximum number of distinct radial functions  :       21
  | Maximum number of basis functions            :      119
  | Number of Kohn-Sham states (occupied + empty):       53
------------------------------------------------------------

------------------------------------------------------------
          Preparing all fixed parts of the calculation.
------------------------------------------------------------
  Determining machine precision:
    2.225073858507201E-308
  Setting up grids for atomic and cluster calculations.

  Creating wave function, potential, and density for free atoms.

  Species: H

  List of occupied orbitals and eigenvalues:
    n    l              occ      energy [Ha]    energy [eV]
    1    0           1.0000        -0.237589        -6.4651


  Species: C

  List of occupied orbitals and eigenvalues:
    n    l              occ      energy [Ha]    energy [eV]
    1    0           2.0000       -10.038835      -273.1706
    2    0           2.0000        -0.502696       -13.6791
    2    1           2.0000        -0.191971        -5.2238


  Species: N

  List of occupied orbitals and eigenvalues:
    n    l              occ      energy [Ha]    energy [eV]
    1    0           2.0000       -14.128000      -384.4424
    2    0           2.0000        -0.681077       -18.5330
    2    1           3.0000        -0.259788        -7.0692


  Species: O

  List of occupied orbitals and eigenvalues:
    n    l              occ      energy [Ha]    energy [eV]
    1    0           2.0000       -18.898188      -514.2459
    2    0           2.0000        -0.878505       -23.9053
    2    1           4.0000        -0.331779        -9.0282

  Creating fixed part of basis set: Ionic, confined, hydrogenic.
 
  H                    hydrogenic:
 
  List of hydrogenic basis orbitals: 
    n    l      effective z      eigenvalue [eV]  inner max. [A]     outer max. [A]     outer radius [A]   
    2    0         2.100000       -14.9728           0.193243           1.317208           4.583499
    2    1         3.500000       -41.6669           0.602369           0.602369           3.723403
 
 
  C                    hydrogenic:
 
  List of hydrogenic basis orbitals: 
    n    l      effective z      eigenvalue [eV]  inner max. [A]     outer max. [A]     outer radius [A]   
    2    1         1.700000        -9.7616           1.230570           1.230570           4.607917
    3    2         6.000000       -54.4224           0.792453           0.792453           3.883070
    2    0         4.900000       -81.6679           0.082559           0.562749           3.078220
 
 
  N                    hydrogenic:
 
  List of hydrogenic basis orbitals: 
    n    l      effective z      eigenvalue [eV]  inner max. [A]     outer max. [A]     outer radius [A]   
    2    1         1.800000       -10.9749           1.177451           1.177451           4.573712
    3    2         6.800000       -69.9026           0.704619           0.704619           3.538137
    3    0         5.800000       -50.8545           0.067388           1.191934           4.250239
 
 
  O                    hydrogenic:
 
  List of hydrogenic basis orbitals: 
    n    l      effective z      eigenvalue [eV]  inner max. [A]     outer max. [A]     outer radius [A]   
    2    1         1.800000       -10.9749           1.164242           1.164242           4.578029
    3    2         7.600000       -87.3180           0.624125           0.624125           3.251020
    3    0         6.400000       -61.9207           0.061167           1.081902           4.001998
 

  Adding cutoff potential to free-atom effective potential.
  Creating atomic-like basis functions for current effective potential.

  Species H                   :

  List of atomic basis orbitals and eigenvalues:
    n    l      energy [Ha]    energy [eV]    outer radius [A]
    1    0        -0.237589        -6.4651       4.527807


  Species C                   :

  List of atomic basis orbitals and eigenvalues:
    n    l      energy [Ha]    energy [eV]    outer radius [A]
    1    0       -10.038835      -273.1706       1.934409
    2    0        -0.502696       -13.6791       4.496620
    2    1        -0.191971        -5.2238       4.551928


  Species N                   :

  List of atomic basis orbitals and eigenvalues:
    n    l      energy [Ha]    energy [eV]    outer radius [A]
    1    0       -14.128000      -384.4424       1.637919
    2    0        -0.681077       -18.5330       4.463241
    2    1        -0.259788        -7.0692       4.518138


  Species O                   :

  List of atomic basis orbitals and eigenvalues:
    n    l      energy [Ha]    energy [eV]    outer radius [A]
    1    0       -18.898188      -514.2459       1.415765
    2    0        -0.878505       -23.9053       4.413171
    2    1        -0.331779        -9.0282       4.522403

  Assembling full basis from fixed parts.
  | Species H :   atomic orbital   1 s accepted.
  | Species H :    hydro orbital   2 s accepted.
  | Species H :    hydro orbital   2 p accepted.
  | Species C :   atomic orbital   1 s accepted.
  | Species C :    hydro orbital   2 s accepted.
  | Species C :   atomic orbital   2 s accepted.
  | Species C :   atomic orbital   2 p accepted.
  | Species C :    hydro orbital   2 p accepted.
  | Species C :    hydro orbital   3 d accepted.
  | Species N :   atomic orbital   1 s accepted.
  | Species N :    hydro orbital   3 s accepted.
  | Species N :   atomic orbital   2 s accepted.
  | Species N :   atomic orbital   2 p accepted.
  | Species N :    hydro orbital   2 p accepted.
  | Species N :    hydro orbital   3 d accepted.
  | Species O :   atomic orbital   1 s accepted.
  | Species O :    hydro orbital   3 s accepted.
  | Species O :   atomic orbital   2 s accepted.
  | Species O :   atomic orbital   2 p accepted.
  | Species O :    hydro orbital   2 p accepted.
  | Species O :    hydro orbital   3 d accepted.
 
  Basis size parameters after reduction:
  | Total number of radial functions:       21
  | Total number of basis functions :      119
 
  Per-task memory consumption for arrays in subroutine allocate_ext:
  |           5.250512MB.
  Testing on-site integration grid accuracy.
  |  Species  Function  <phi|h_atom|phi> (log., in eV)  <phi|h_atom|phi> (rad., in eV)
           1        1                 -6.4663192853                 -6.4651273558
           1        2                 13.7111246313                 13.7170609718
           1        3                 25.2673269279                 25.2674696378
           2        4               -273.1705927641               -273.1705631568
           2        5                -10.7109323383                -10.7107120029
           2        6                 17.4381822266                 17.4352413244
           2        7                 -5.2255326521                 -5.2270484734
           2        8                  8.6835629259                  8.6603288385
           2        9                 27.4952418996                 27.4953360207
           3       10               -384.4424306495               -384.4423701208
           3       11                 12.5842251816                 12.5842222903
           3       12                -15.7264628251                -15.7264433455
           3       13                 -7.0696854293                 -7.0701769954
           3       14                  8.8090390882                  8.7901077751
           3       15                 35.9586762123                 35.9588528632
           4       16               -514.2458688638               -514.2457643834
           4       17                 15.1795651126                 15.1795290741
           4       18                -21.5359799773                -21.5360846186
           4       19                 -9.0283069236                 -9.0284644067
           4       20                  8.3027758564                  8.2834874195
           4       21                 45.8339351984                 45.8338762259

  Preparing densities etc. for the partition functions (integrals / Hartree potential).

  Preparations completed.
  max(cpu_time)          :      0.167 s.
  Wall clock time (cpu1) :      0.167 s.
------------------------------------------------------------

------------------------------------------------------------
          Begin self-consistency loop: Initialization.

          Date     :  20200603, Time     :  105154.240
------------------------------------------------------------

  Initializing index lists of integration centers etc. from given atomic structure:
  | Number of centers in hartree potential         :        13
  | Number of centers in hartree multipole         :        13
  | Number of centers in electron density summation:        13
  | Number of centers in basis integrals           :        13
  | Number of centers in integrals                 :        13
  | Number of centers in hamiltonian               :        13
  * Using 20 tasks for Scalapack Eigenvalue solver.
  Detailed listing of tasks and assigned k-points:
  (for non-periodic systems, the "k-point" denotes an internal label only)
   Task     0 k-point     1 on r07c06.bullx
   Task     1 k-point     1 on r07c06.bullx
   Task     2 k-point     1 on r07c06.bullx
   Task     3 k-point     1 on r07c06.bullx
   Task     4 k-point     1 on r07c06.bullx
   Task     5 k-point     1 on r07c06.bullx
   Task     6 k-point     1 on r07c06.bullx
   Task     7 k-point     1 on r07c06.bullx
   Task     8 k-point     1 on r07c06.bullx
   Task     9 k-point     1 on r07c06.bullx
   Task    10 k-point     1 on r07c06.bullx
   Task    11 k-point     1 on r07c06.bullx
   Task    12 k-point     1 on r07c06.bullx
   Task    13 k-point     1 on r07c06.bullx
   Task    14 k-point     1 on r07c06.bullx
   Task    15 k-point     1 on r07c06.bullx
   Task    16 k-point     1 on r07c06.bullx
   Task    17 k-point     1 on r07c06.bullx
   Task    18 k-point     1 on r07c06.bullx
   Task    19 k-point     1 on r07c06.bullx
  Tasks:    20 split into      5 X      4 BLACS grid
  Calculating block size based on n_basis =          119  max_nprow =            5  max_npcol =            4
  ScaLAPACK block size set to:           16
  Allocating        0.008 MB for ovlp
  Allocating        0.008 MB for ham
  Allocating        0.008 MB for eigenvec
  Required Scalapack workspace - INTEGER:            1  REAL:             1
  Partitioning the integration grid into batches with parallel hashing+maxmin method.
  | Number of batches:      806
  | Maximal batch size:     192
  | Minimal batch size:      49
  | Average batch size:      86.409
  | Standard deviation of batch sizes:      17.968

  Integration load balanced across    20 MPI tasks.
  Work distribution over tasks is as follows:
  Task     0 has       3429 integration points.
  Task     1 has       3427 integration points.
  Task     2 has       3519 integration points.
  Task     3 has       3504 integration points.
  Task     4 has       3478 integration points.
  Task     5 has       3474 integration points.
  Task     6 has       3519 integration points.
  Task     7 has       3445 integration points.
  Task     8 has       3515 integration points.
  Task     9 has       3480 integration points.
  Task    10 has       3531 integration points.
  Task    11 has       3477 integration points.
  Task    12 has       3448 integration points.
  Task    13 has       3495 integration points.
  Task    14 has       3515 integration points.
  Task    15 has       3461 integration points.
  Task    16 has       3453 integration points.
  Task    17 has       3432 integration points.
  Task    18 has       3534 integration points.
  Task    19 has       3510 integration points.
  Initializing partition tables, free-atom densities, potentials, etc. across the integration grid (initialize_grid_storage).
  | initialize_grid_storage: Actual outermost partition radius vs. multipole_radius_free
  | (-- VB: in principle, multipole_radius_free should be larger, hence this output)
  | Species        1: Confinement radius =              4.999999999999999 AA, multipole_radius_free =              5.054417573612229 AA.
  | Species        1: outer_partition_radius set to              5.054417573612229 AA .
  | Species        2: Confinement radius =              4.999999999999999 AA, multipole_radius_free =              5.019602836301480 AA.
  | Species        2: outer_partition_radius set to              5.019602836301480 AA .
  | Species        3: Confinement radius =              4.999999999999999 AA, multipole_radius_free =              5.043624274424571 AA.
  | Species        3: outer_partition_radius set to              5.043624274424571 AA .
  | Species        4: Confinement radius =              4.999999999999999 AA, multipole_radius_free =              5.048384829883283 AA.
  | Species        4: outer_partition_radius set to              5.048384829883283 AA .
  | Original list of interatomic distances with          13 x         13 entries is created.
  | Net number of integration points:    69646
  | of which are non-zero points    :    59880
  Renormalizing the initial density to the exact electron count on the 3D integration grid.
  | Initial density: Formal number of electrons (from input files) :      48.0000000000
  | Integrated number of electrons on 3D grid     :      47.9999776223
  | Charge integration error                      :      -0.0000223777
  | Normalization factor for density and gradient :       1.0000004662
  Obtaining max. number of non-zero basis functions in each batch (get_n_compute_maxes).
  | Maximal number of non-zero basis functions:      117 in task     0
  | Maximal number of non-zero basis functions:      118 in task     1
  | Maximal number of non-zero basis functions:      118 in task     2
  | Maximal number of non-zero basis functions:      118 in task     3
  | Maximal number of non-zero basis functions:      118 in task     4
  | Maximal number of non-zero basis functions:      118 in task     5
  | Maximal number of non-zero basis functions:      118 in task     6
  | Maximal number of non-zero basis functions:      119 in task     7
  | Maximal number of non-zero basis functions:      118 in task     8
  | Maximal number of non-zero basis functions:      117 in task     9
  | Maximal number of non-zero basis functions:      119 in task    10
  | Maximal number of non-zero basis functions:      118 in task    11
  | Maximal number of non-zero basis functions:      119 in task    12
  | Maximal number of non-zero basis functions:      118 in task    13
  | Maximal number of non-zero basis functions:      119 in task    14
  | Maximal number of non-zero basis functions:      119 in task    15
  | Maximal number of non-zero basis functions:      118 in task    16
  | Maximal number of non-zero basis functions:      118 in task    17
  | Maximal number of non-zero basis functions:      117 in task    18
  | Maximal number of non-zero basis functions:      118 in task    19
  Selecting the method for density update.
  Loop over occupied states selected for charge density update.
  Allocating        0.050 MB for KS_eigenvector
  Integrating Hamiltonian matrix: batch-based integration.
  Time summed over all CPUs for integration: real work        0.523 s, elapsed        0.555 s
  Integrating overlap matrix.
  Time summed over all CPUs for integration: real work        0.213 s, elapsed        0.226 s
  Deallocating overlap matrix.

  Updating Kohn-Sham eigenvalues and eigenvectors using ELSI and the ELPA eigensolver.
  ELPA settings:
  | ELPA solver          1
  | Time full => band           :     0.001 s
  | Time band => tridiagonal    :     0.001 s
  | Time solve tridiagonal      :     0.001 s
  Overlap matrix is nonsingular
  | Lowest eigenvalue of overlap  :  0.41E-02
  | Highest eigenvalue of overlap :  0.60E+01
  Finished singularity check of overlap matrix
  | Time :     0.003 s
  Finished Cholesky decomposition
  | Time :     0.001 s
  Finished transformation to standard eigenproblem
  | Time :     0.001 s
  Starting ELPA eigensolver
  | Time full => tridiagonal    :     0.002 s
  | Time solve tridiagonal      :     0.000 s
  | Time ev tridiagonal => full :     0.000 s
  Finished solving standard eigenproblem
  | Time :     0.003 s
  Finished back-transformation of eigenvectors
  | Time :     0.000 s

  Obtaining occupation numbers and chemical potential using ELSI.
  | Chemical potential (Fermi level):   -10.58555982eV
  Writing Kohn-Sham eigenvalues.

  State    Occupation    Eigenvalue [Ha]    Eigenvalue [eV]
      1       2.00000         -19.007618         -517.22360
      2       2.00000         -18.978506         -516.43143
      3       2.00000         -14.245829         -387.64874
      4       2.00000         -10.166578         -276.64665
      5       2.00000         -10.141235         -275.95705
      6       2.00000         -10.132226         -275.71189
      7       2.00000          -1.188435          -32.33896
      8       2.00000          -1.093167          -29.74660
      9       2.00000          -0.990634          -26.95653
     10       2.00000          -0.862968          -23.48254
     11       2.00000          -0.760910          -20.70540
     12       2.00000          -0.675411          -18.37887
     13       2.00000          -0.630878          -17.16706
     14       2.00000          -0.599839          -16.32246
     15       2.00000          -0.587112          -15.97614
     16       2.00000          -0.562156          -15.29703
     17       2.00000          -0.558345          -15.19334
     18       2.00000          -0.529135          -14.39850
     19       2.00000          -0.512247          -13.93894
     20       2.00000          -0.502187          -13.66521
     21       2.00000          -0.475437          -12.93729
     22       2.00000          -0.428747          -11.66681
     23       2.00000          -0.404266          -11.00063
     24       2.00000          -0.391109          -10.64262
     25       0.00000          -0.153103           -4.16613
     26       0.00000          -0.059601           -1.62183
     27       0.00000          -0.038515           -1.04806
     28       0.00000          -0.030754           -0.83687
     29       0.00000          -0.005607           -0.15259
     30       0.00000           0.000370            0.01008
     31       0.00000           0.023941            0.65148
     32       0.00000           0.036257            0.98660
     33       0.00000           0.053252            1.44906
     34       0.00000           0.089173            2.42653
     35       0.00000           0.105260            2.86426
     36       0.00000           0.123263            3.35415
     37       0.00000           0.141306            3.84512
     38       0.00000           0.205262            5.58547
     39       0.00000           0.208942            5.68560
     40       0.00000           0.216199            5.88309
     41       0.00000           0.266773            7.25926
     42       0.00000           0.281713            7.66580
     43       0.00000           0.290662            7.90932
     44       0.00000           0.323337            8.79845
     45       0.00000           0.345092            9.39042
     46       0.00000           0.365120            9.93543
     47       0.00000           0.377839           10.28152
     48       0.00000           0.406207           11.05346
     49       0.00000           0.430786           11.72227
     50       0.00000           0.441843           12.02316
     51       0.00000           0.457295           12.44362
     52       0.00000           0.501077           13.63499
     53       0.00000           0.526657           14.33107

  Highest occupied state (VBM) at    -10.64261728 eV
  | Occupation number:      2.00000000

  Lowest unoccupied state (CBM) at    -4.16613233 eV
  | Occupation number:      0.00000000

  Overall HOMO-LUMO gap:      6.47648495 eV.
  Calculating total energy contributions from superposition of free atom densities.

  Total energy components:
  | Sum of eigenvalues            :        -188.84994846 Ha       -5138.86856048 eV
  | XC energy correction          :         -41.78660942 Ha       -1137.07149591 eV
  | XC potential correction       :          53.71685086 Ha        1461.70988288 eV
  | Free-atom electrostatic energy:        -146.85105078 Ha       -3996.02040700 eV
  | Hartree energy correction     :           0.00000000 Ha           0.00000000 eV
  | vdW energy correction         :           0.00000000 Ha           0.00000000 eV
  | Entropy correction            :          -0.00000000 Ha          -0.00000000 eV
  | ---------------------------
  | Total energy                  :        -323.77075781 Ha       -8810.25058051 eV
  | Total energy, T -> 0          :        -323.77075781 Ha       -8810.25058051 eV  <-- do not rely on this value for anything but (periodic) metals
  | Electronic free energy        :        -323.77075781 Ha       -8810.25058051 eV

  Derived energy quantities:
  | Kinetic energy                :         320.48283263 Ha        8720.78158447 eV
  | Electrostatic energy          :        -602.46698102 Ha      -16393.96066907 eV
  | Energy correction for multipole
  | error in Hartree potential    :           0.00000000 Ha           0.00000000 eV
  | Sum of eigenvalues per atom                           :        -395.29758158 eV
  | Total energy (T->0) per atom                          :        -677.71158312 eV  <-- do not rely on this value for anything but (periodic) metals
  | Electronic free energy per atom                       :        -677.71158312 eV
  Initialize hartree_potential_storage
  Max. number of atoms included in rho_multipole:           13

  End scf initialization - timings             :  max(cpu_time)    wall_clock(cpu1)
  | Time for scf. initialization               :        0.093 s           0.093 s
  | Boundary condition initialization          :        0.000 s           0.000 s
  | Integration                                :        0.040 s           0.040 s
  | Solution of K.-S. eqns.                    :        0.009 s           0.009 s
  | Grid partitioning                          :        0.021 s           0.021 s
  | Preloading free-atom quantities on grid    :        0.002 s           0.002 s
  | Free-atom superposition energy             :        0.005 s           0.005 s
  | Total energy evaluation                    :        0.000 s           0.000 s

  Partial memory accounting:
  | Current value for overall tracked memory usage on task 0  :           0.133 MB
  | Peak value for overall tracked memory usage on task 0     :           0.841 MB after allocating wave
  | Largest tracked array allocation on task 0 so far         :           0.180 MB  when allocating H_times_psi
  Note:  These values currently only include a subset of arrays which are explicitly tracked.
  The "true" memory usage will be greater.
------------------------------------------------------------

------------------------------------------------------------
          Begin self-consistency iteration #    1

  Date     :  20200603, Time     :  105154.333
------------------------------------------------------------
  Evaluating new KS density.
  Integration grid: deviation in total charge (<rho> - N_e) =  -1.421085E-14
  Pulay mixing of updated and previous charge densities.

  Evaluating partitioned Hartree potential by multipole expansion.
  | Analytical far-field extrapolation by fixed multipoles:
  | Hartree multipole sum: apparent total charge =  -0.129355E-03
  Summing up the Hartree potential.
  Time summed over all CPUs for potential: real work        0.422 s, elapsed        0.440 s
  | RMS charge density error from multipole expansion :   0.586650E-02

  Integrating Hamiltonian matrix: batch-based integration.
  Time summed over all CPUs for integration: real work        0.513 s, elapsed        0.552 s

  Updating Kohn-Sham eigenvalues and eigenvectors using ELSI and the ELPA eigensolver.
  ELPA settings:
  | ELPA solver          1
  Finished transformation to standard eigenproblem
  | Time :     0.000 s
  Starting ELPA eigensolver
  | Time full => tridiagonal    :     0.002 s
  | Time solve tridiagonal      :     0.000 s
  | Time ev tridiagonal => full :     0.000 s
  Finished solving standard eigenproblem
  | Time :     0.003 s
  Finished back-transformation of eigenvectors
  | Time :     0.000 s

  Obtaining occupation numbers and chemical potential using ELSI.
  | Chemical potential (Fermi level):    -5.26781396eV
  Writing Kohn-Sham eigenvalues.

  State    Occupation    Eigenvalue [Ha]    Eigenvalue [eV]
      1       2.00000         -18.910853         -514.59048
      2       2.00000         -18.840812         -512.68457
      3       2.00000         -14.093622         -383.50697
      4       2.00000         -10.116791         -275.29188
      5       2.00000         -10.060641         -273.76398
      6       2.00000         -10.026722         -272.84099
      7       2.00000          -1.142323          -31.08418
      8       2.00000          -1.033380          -28.11970
      9       2.00000          -0.918118          -24.98326
     10       2.00000          -0.795905          -21.65769
     11       2.00000          -0.710718          -19.33962
     12       2.00000          -0.625320          -17.01584
     13       2.00000          -0.574767          -15.64021
     14       2.00000          -0.540514          -14.70813
     15       2.00000          -0.525126          -14.28942
     16       2.00000          -0.507495          -13.80965
     17       2.00000          -0.499757          -13.59908
     18       2.00000          -0.469980          -12.78880
     19       2.00000          -0.450337          -12.25431
     20       2.00000          -0.439810          -11.96783
     21       2.00000          -0.420863          -11.45227
     22       2.00000          -0.370298          -10.07633
     23       2.00000          -0.334836           -9.11136
     24       2.00000          -0.315228           -8.57780
     25       0.00000          -0.114835           -3.12481
     26       0.00000          -0.030666           -0.83446
     27       0.00000          -0.014591           -0.39705
     28       0.00000           0.006828            0.18581
     29       0.00000           0.027416            0.74602
     30       0.00000           0.036078            0.98174
     31       0.00000           0.065935            1.79417
     32       0.00000           0.074510            2.02751
     33       0.00000           0.101660            2.76632
     34       0.00000           0.127610            3.47244
     35       0.00000           0.144513            3.93239
     36       0.00000           0.148252            4.03413
     37       0.00000           0.172483            4.69350
     38       0.00000           0.230728            6.27843
     39       0.00000           0.243324            6.62118
     40       0.00000           0.246839            6.71683
     41       0.00000           0.300197            8.16877
     42       0.00000           0.319035            8.68138
     43       0.00000           0.330557            8.99492
     44       0.00000           0.358136            9.74537
     45       0.00000           0.388218           10.56394
     46       0.00000           0.406831           11.07044
     47       0.00000           0.412173           11.21579
     48       0.00000           0.441932           12.02557
     49       0.00000           0.468786           12.75630
     50       0.00000           0.478898           13.03147
     51       0.00000           0.498193           13.55652
     52       0.00000           0.532135           14.48013
     53       0.00000           0.567276           15.43636

  Highest occupied state (VBM) at     -8.57780254 eV
  | Occupation number:      2.00000000

  Lowest unoccupied state (CBM) at    -3.12481390 eV
  | Occupation number:      0.00000000

  Overall HOMO-LUMO gap:      5.45298864 eV.

  Total energy components:
  | Sum of eigenvalues            :        -185.44843574 Ha       -5046.30868979 eV
  | XC energy correction          :         -42.11491245 Ha       -1146.00507575 eV
  | XC potential correction       :          54.14387385 Ha        1473.32976978 eV
  | Free-atom electrostatic energy:        -146.85105078 Ha       -3996.02040700 eV
  | Hartree energy correction     :          -3.32045754 Ha         -90.35424688 eV
  | vdW energy correction         :           0.00000000 Ha           0.00000000 eV
  | Entropy correction            :           0.00000000 Ha           0.00000000 eV
  | ---------------------------
  | Total energy                  :        -323.59098265 Ha       -8805.35864964 eV
  | Total energy, T -> 0          :        -323.59098265 Ha       -8805.35864964 eV  <-- do not rely on this value for anything but (periodic) metals
  | Electronic free energy        :        -323.59098265 Ha       -8805.35864964 eV

  Derived energy quantities:
  | Kinetic energy                :         322.26817643 Ha        8769.36326093 eV
  | Electrostatic energy          :        -603.74424663 Ha      -16428.71683482 eV
  | Energy correction for multipole
  | error in Hartree potential    :           0.01243453 Ha           0.33836071 eV
  | Sum of eigenvalues per atom                           :        -388.17759152 eV
  | Total energy (T->0) per atom                          :        -677.33528074 eV  <-- do not rely on this value for anything but (periodic) metals
  | Electronic free energy per atom                       :        -677.33528074 eV

  Self-consistency convergence accuracy:
  | Change of charge density      :  0.5798E+00
  | Change of sum of eigenvalues  :  0.9256E+02 eV
  | Change of total energy        :  0.4892E+01 eV

  End self-consistency iteration #     1       :  max(cpu_time)    wall_clock(cpu1)
  | Time for this iteration                    :        0.078 s           0.079 s
  | Charge density update                      :        0.022 s           0.022 s
  | Density mixing                             :        0.000 s           0.000 s
  | Hartree multipole update                   :        0.001 s           0.002 s
  | Hartree multipole summation                :        0.022 s           0.022 s
  | Integration                                :        0.028 s           0.028 s
  | Solution of K.-S. eqns.                    :        0.004 s           0.004 s
  | Total energy evaluation                    :        0.000 s           0.001 s

  Partial memory accounting:
  | Current value for overall tracked memory usage on task 0  :           0.133 MB
  | Peak value for overall tracked memory usage on task 0     :           0.852 MB after allocating gradient_basis_wave
  | Largest tracked array allocation on task 0 so far         :           0.539 MB  when allocating gradient_basis_wave
  Note:  These values currently only include a subset of arrays which are explicitly tracked.
  The "true" memory usage will be greater.
------------------------------------------------------------

------------------------------------------------------------
          Begin self-consistency iteration #    2

  Date     :  20200603, Time     :  105154.432
------------------------------------------------------------
  Evaluating new KS density.
  Integration grid: deviation in total charge (<rho> - N_e) =   7.105427E-15
  Pulay mixing of updated and previous charge densities.

  Evaluating partitioned Hartree potential by multipole expansion.
  | Analytical far-field extrapolation by fixed multipoles:
  | Hartree multipole sum: apparent total charge =  -0.266835E-03
  Summing up the Hartree potential.
  Time summed over all CPUs for potential: real work        0.420 s, elapsed        0.440 s
  | RMS charge density error from multipole expansion :   0.140684E-01

  Integrating Hamiltonian matrix: batch-based integration.
  Time summed over all CPUs for integration: real work        0.513 s, elapsed        0.549 s

  Updating Kohn-Sham eigenvalues and eigenvectors using ELSI and the ELPA eigensolver.
  ELPA settings:
  | ELPA solver          1
  Finished transformation to standard eigenproblem
  | Time :     0.000 s
  Starting ELPA eigensolver
  | Time full => tridiagonal    :     0.002 s
  | Time solve tridiagonal      :     0.000 s
  | Time ev tridiagonal => full :     0.000 s
  Finished solving standard eigenproblem
  | Time :     0.003 s
  Finished back-transformation of eigenvectors
  | Time :     0.000 s

  Obtaining occupation numbers and chemical potential using ELSI.
  | Chemical potential (Fermi level):    -3.91859075eV
  Highest occupied state (VBM) at     -6.46297872 eV
  | Occupation number:      2.00000000

  Lowest unoccupied state (CBM) at    -1.80220779 eV
  | Occupation number:      0.00000000

  Overall HOMO-LUMO gap:      4.66077093 eV.

  Checking to see if s.c.f. parameters should be adjusted.

  Total energy components:
  | Sum of eigenvalues            :        -181.83146909 Ha       -4947.88601954 eV
  | XC energy correction          :         -42.48001839 Ha       -1155.94011396 eV
  | XC potential correction       :          54.61724789 Ha        1486.21093264 eV
  | Free-atom electrostatic energy:        -146.85105078 Ha       -3996.02040700 eV
  | Hartree energy correction     :          -6.96836255 Ha        -189.61879281 eV
  | vdW energy correction         :           0.00000000 Ha           0.00000000 eV
  | Entropy correction            :           0.00000000 Ha           0.00000000 eV
  | ---------------------------
  | Total energy                  :        -323.51365292 Ha       -8803.25440067 eV
  | Total energy, T -> 0          :        -323.51365292 Ha       -8803.25440067 eV  <-- do not rely on this value for anything but (periodic) metals
  | Electronic free energy        :        -323.51365292 Ha       -8803.25440067 eV

  Derived energy quantities:
  | Kinetic energy                :         323.61112310 Ha        8805.90669920 eV
  | Electrostatic energy          :        -604.64475763 Ha      -16453.22098590 eV
  | Energy correction for multipole
  | error in Hartree potential    :           0.02775060 Ha           0.75513216 eV
  | Sum of eigenvalues per atom                           :        -380.60661689 eV
  | Total energy (T->0) per atom                          :        -677.17341544 eV  <-- do not rely on this value for anything but (periodic) metals
  | Electronic free energy per atom                       :        -677.17341544 eV

  Self-consistency convergence accuracy:
  | Change of charge density      :  0.3624E+00
  | Change of sum of eigenvalues  :  0.9842E+02 eV
  | Change of total energy        :  0.2104E+01 eV

  End self-consistency iteration #     2       :  max(cpu_time)    wall_clock(cpu1)
  | Time for this iteration                    :        0.099 s           0.082 s
  | Charge density update                      :        0.042 s           0.025 s
  | Density mixing                             :        0.001 s           0.001 s
  | Hartree multipole update                   :        0.001 s           0.001 s
  | Hartree multipole summation                :        0.022 s           0.023 s
  | Integration                                :        0.028 s           0.027 s
  | Solution of K.-S. eqns.                    :        0.004 s           0.004 s
  | Total energy evaluation                    :        0.000 s           0.001 s

  Partial memory accounting:
  | Current value for overall tracked memory usage on task 0  :           0.134 MB
  | Peak value for overall tracked memory usage on task 0     :           0.852 MB after allocating gradient_basis_wave
  | Largest tracked array allocation on task 0 so far         :           0.539 MB  when allocating gradient_basis_wave
  Note:  These values currently only include a subset of arrays which are explicitly tracked.
  The "true" memory usage will be greater.
------------------------------------------------------------

------------------------------------------------------------
          Begin self-consistency iteration #    3

  Date     :  20200603, Time     :  105154.523
------------------------------------------------------------
  Evaluating new KS density.
  Integration grid: deviation in total charge (<rho> - N_e) =   2.842171E-14
  Pulay mixing of updated and previous charge densities.

  Evaluating partitioned Hartree potential by multipole expansion.
  | Analytical far-field extrapolation by fixed multipoles:
  | Hartree multipole sum: apparent total charge =  -0.360471E-03
  Summing up the Hartree potential.
  Time summed over all CPUs for potential: real work        0.421 s, elapsed        0.439 s
  | RMS charge density error from multipole expansion :   0.222362E-01

  Integrating Hamiltonian matrix: batch-based integration.
  Time summed over all CPUs for integration: real work        0.511 s, elapsed        0.548 s

  Updating Kohn-Sham eigenvalues and eigenvectors using ELSI and the ELPA eigensolver.
  ELPA settings:
  | ELPA solver          1
  Finished transformation to standard eigenproblem
  | Time :     0.000 s
  Starting ELPA eigensolver
  | Time full => tridiagonal    :     0.002 s
  | Time solve tridiagonal      :     0.000 s
  | Time ev tridiagonal => full :     0.000 s
  Finished solving standard eigenproblem
  | Time :     0.003 s
  Finished back-transformation of eigenvectors
  | Time :     0.000 s

  Obtaining occupation numbers and chemical potential using ELSI.
  | Chemical potential (Fermi level):    -3.25628427eV
  Highest occupied state (VBM) at     -5.84794113 eV
  | Occupation number:      2.00000000

  Lowest unoccupied state (CBM) at    -1.09209423 eV
  | Occupation number:      0.00000000

  Overall HOMO-LUMO gap:      4.75584690 eV.

  Total energy components:
  | Sum of eigenvalues            :        -180.57527436 Ha       -4913.70322187 eV
  | XC energy correction          :         -42.62835009 Ha       -1159.97642479 eV
  | XC potential correction       :          54.80635468 Ha        1491.35679027 eV
  | Free-atom electrostatic energy:        -146.85105078 Ha       -3996.02040700 eV
  | Hartree energy correction     :          -8.25341525 Ha        -224.58685583 eV
  | vdW energy correction         :           0.00000000 Ha           0.00000000 eV
  | Entropy correction            :           0.00000000 Ha           0.00000000 eV
  | ---------------------------
  | Total energy                  :        -323.50173580 Ha       -8802.93011921 eV
  | Total energy, T -> 0          :        -323.50173580 Ha       -8802.93011921 eV  <-- do not rely on this value for anything but (periodic) metals
  | Electronic free energy        :        -323.50173580 Ha       -8802.93011921 eV

  Derived energy quantities:
  | Kinetic energy                :         323.17840535 Ha        8794.13185014 eV
  | Electrostatic energy          :        -604.05179106 Ha      -16437.08554456 eV
  | Energy correction for multipole
  | error in Hartree potential    :           0.03949479 Ha           1.07470784 eV
  | Sum of eigenvalues per atom                           :        -377.97717091 eV
  | Total energy (T->0) per atom                          :        -677.14847071 eV  <-- do not rely on this value for anything but (periodic) metals
  | Electronic free energy per atom                       :        -677.14847071 eV

  Self-consistency convergence accuracy:
  | Change of charge density      :  0.2000E+00
  | Change of sum of eigenvalues  :  0.3418E+02 eV
  | Change of total energy        :  0.3243E+00 eV

  End self-consistency iteration #     3       :  max(cpu_time)    wall_clock(cpu1)
  | Time for this iteration                    :        0.089 s           0.083 s
  | Charge density update                      :        0.033 s           0.027 s
  | Density mixing                             :        0.001 s           0.000 s
  | Hartree multipole update                   :        0.001 s           0.002 s
  | Hartree multipole summation                :        0.022 s           0.022 s
  | Integration                                :        0.028 s           0.028 s
  | Solution of K.-S. eqns.                    :        0.004 s           0.003 s
  | Total energy evaluation                    :        0.000 s           0.000 s

  Partial memory accounting:
  | Current value for overall tracked memory usage on task 0  :           0.134 MB
  | Peak value for overall tracked memory usage on task 0     :           0.853 MB after allocating gradient_basis_wave
  | Largest tracked array allocation on task 0 so far         :           0.539 MB  when allocating gradient_basis_wave
  Note:  These values currently only include a subset of arrays which are explicitly tracked.
  The "true" memory usage will be greater.
------------------------------------------------------------

------------------------------------------------------------
          Begin self-consistency iteration #    4

  Date     :  20200603, Time     :  105154.619
------------------------------------------------------------
  Evaluating new KS density.
  Integration grid: deviation in total charge (<rho> - N_e) =   2.131628E-14
  Pulay mixing of updated and previous charge densities.

  Evaluating partitioned Hartree potential by multipole expansion.
  | Analytical far-field extrapolation by fixed multipoles:
  | Hartree multipole sum: apparent total charge =  -0.391239E-03
  Summing up the Hartree potential.
  Time summed over all CPUs for potential: real work        0.421 s, elapsed        0.439 s
  | RMS charge density error from multipole expansion :   0.255732E-01

  Integrating Hamiltonian matrix: batch-based integration.
  Time summed over all CPUs for integration: real work        0.512 s, elapsed        0.552 s

  Updating Kohn-Sham eigenvalues and eigenvectors using ELSI and the ELPA eigensolver.
  ELPA settings:
  | ELPA solver          1
  Finished transformation to standard eigenproblem
  | Time :     0.000 s
  Starting ELPA eigensolver
  | Time full => tridiagonal    :     0.002 s
  | Time solve tridiagonal      :     0.000 s
  | Time ev tridiagonal => full :     0.000 s
  Finished solving standard eigenproblem
  | Time :     0.003 s
  Finished back-transformation of eigenvectors
  | Time :     0.000 s

  Obtaining occupation numbers and chemical potential using ELSI.
  | Chemical potential (Fermi level):    -3.13276181eV
  Highest occupied state (VBM) at     -5.67182785 eV
  | Occupation number:      2.00000000

  Lowest unoccupied state (CBM) at    -1.01164276 eV
  | Occupation number:      0.00000000

  Overall HOMO-LUMO gap:      4.66018509 eV.

  Total energy components:
  | Sum of eigenvalues            :        -180.41423193 Ha       -4909.32103429 eV
  | XC energy correction          :         -42.66584345 Ha       -1160.99667102 eV
  | XC potential correction       :          54.85364310 Ha        1492.64357370 eV
  | Free-atom electrostatic energy:        -146.85105078 Ha       -3996.02040700 eV
  | Hartree energy correction     :          -8.42356312 Ha        -229.21681483 eV
  | vdW energy correction         :           0.00000000 Ha           0.00000000 eV
  | Entropy correction            :           0.00000000 Ha           0.00000000 eV
  | ---------------------------
  | Total energy                  :        -323.50104617 Ha       -8802.91135344 eV
  | Total energy, T -> 0          :        -323.50104617 Ha       -8802.91135344 eV  <-- do not rely on this value for anything but (periodic) metals
  | Electronic free energy        :        -323.50104617 Ha       -8802.91135344 eV

  Derived energy quantities:
  | Kinetic energy                :         322.81819934 Ha        8784.33014572 eV
  | Electrostatic energy          :        -603.65340206 Ha      -16426.24482813 eV
  | Energy correction for multipole
  | error in Hartree potential    :           0.04376662 Ha           1.19095024 eV
  | Sum of eigenvalues per atom                           :        -377.64007956 eV
  | Total energy (T->0) per atom                          :        -677.14702719 eV  <-- do not rely on this value for anything but (periodic) metals
  | Electronic free energy per atom                       :        -677.14702719 eV

  Self-consistency convergence accuracy:
  | Change of charge density      :  0.6125E-01
  | Change of sum of eigenvalues  :  0.4382E+01 eV
  | Change of total energy        :  0.1877E-01 eV

  End self-consistency iteration #     4       :  max(cpu_time)    wall_clock(cpu1)
  | Time for this iteration                    :        0.091 s           0.081 s
  | Charge density update                      :        0.034 s           0.024 s
  | Density mixing                             :        0.001 s           0.001 s
  | Hartree multipole update                   :        0.001 s           0.001 s
  | Hartree multipole summation                :        0.022 s           0.023 s
  | Integration                                :        0.028 s           0.028 s
  | Solution of K.-S. eqns.                    :        0.004 s           0.003 s
  | Total energy evaluation                    :        0.000 s           0.001 s

  Partial memory accounting:
  | Current value for overall tracked memory usage on task 0  :           0.134 MB
  | Peak value for overall tracked memory usage on task 0     :           0.853 MB after allocating gradient_basis_wave
  | Largest tracked array allocation on task 0 so far         :           0.539 MB  when allocating gradient_basis_wave
  Note:  These values currently only include a subset of arrays which are explicitly tracked.
  The "true" memory usage will be greater.
------------------------------------------------------------

------------------------------------------------------------
          Begin self-consistency iteration #    5

  Date     :  20200603, Time     :  105154.713
------------------------------------------------------------
  Evaluating new KS density.
  Integration grid: deviation in total charge (<rho> - N_e) =   0.000000E+00
  Pulay mixing of updated and previous charge densities.

  Evaluating partitioned Hartree potential by multipole expansion.
  | Analytical far-field extrapolation by fixed multipoles:
  | Hartree multipole sum: apparent total charge =  -0.385259E-03
  Summing up the Hartree potential.
  Time summed over all CPUs for potential: real work        0.421 s, elapsed        0.440 s
  | RMS charge density error from multipole expansion :   0.253053E-01

  Integrating Hamiltonian matrix: batch-based integration.
  Time summed over all CPUs for integration: real work        0.513 s, elapsed        0.548 s

  Updating Kohn-Sham eigenvalues and eigenvectors using ELSI and the ELPA eigensolver.
  ELPA settings:
  | ELPA solver          1
  Finished transformation to standard eigenproblem
  | Time :     0.000 s
  Starting ELPA eigensolver
  | Time full => tridiagonal    :     0.002 s
  | Time solve tridiagonal      :     0.000 s
  | Time ev tridiagonal => full :     0.000 s
  Finished solving standard eigenproblem
  | Time :     0.003 s
  Finished back-transformation of eigenvectors
  | Time :     0.000 s

  Obtaining occupation numbers and chemical potential using ELSI.
  | Chemical potential (Fermi level):    -3.19954355eV
  Highest occupied state (VBM) at     -5.75355247 eV
  | Occupation number:      2.00000000

  Lowest unoccupied state (CBM) at    -1.10035623 eV
  | Occupation number:      0.00000000

  Overall HOMO-LUMO gap:      4.65319625 eV.

  Total energy components:
  | Sum of eigenvalues            :        -180.60353278 Ha       -4914.47217245 eV
  | XC energy correction          :         -42.64282302 Ha       -1160.37025329 eV
  | XC potential correction       :          54.82380458 Ha        1491.83162621 eV
  | Free-atom electrostatic energy:        -146.85105078 Ha       -3996.02040700 eV
  | Hartree energy correction     :          -8.22714273 Ha        -223.87194423 eV
  | vdW energy correction         :           0.00000000 Ha           0.00000000 eV
  | Entropy correction            :           0.00000000 Ha           0.00000000 eV
  | ---------------------------
  | Total energy                  :        -323.50074473 Ha       -8802.90315075 eV
  | Total energy, T -> 0          :        -323.50074473 Ha       -8802.90315075 eV  <-- do not rely on this value for anything but (periodic) metals
  | Electronic free energy        :        -323.50074473 Ha       -8802.90315075 eV

  Derived energy quantities:
  | Kinetic energy                :         322.71738100 Ha        8781.58673919 eV
  | Electrostatic energy          :        -603.57530271 Ha      -16424.11963665 eV
  | Energy correction for multipole
  | error in Hartree potential    :           0.04310616 Ha           1.17297836 eV
  | Sum of eigenvalues per atom                           :        -378.03632096 eV
  | Total energy (T->0) per atom                          :        -677.14639621 eV  <-- do not rely on this value for anything but (periodic) metals
  | Electronic free energy per atom                       :        -677.14639621 eV

  Self-consistency convergence accuracy:
  | Change of charge density      :  0.2039E-01
  | Change of sum of eigenvalues  : -0.5151E+01 eV
  | Change of total energy        :  0.8203E-02 eV

  End self-consistency iteration #     5       :  max(cpu_time)    wall_clock(cpu1)
  | Time for this iteration                    :        0.092 s           0.081 s
  | Charge density update                      :        0.036 s           0.025 s
  | Density mixing                             :        0.001 s           0.001 s
  | Hartree multipole update                   :        0.001 s           0.001 s
  | Hartree multipole summation                :        0.022 s           0.023 s
  | Integration                                :        0.028 s           0.027 s
  | Solution of K.-S. eqns.                    :        0.004 s           0.004 s
  | Total energy evaluation                    :        0.000 s           0.000 s

  Partial memory accounting:
  | Current value for overall tracked memory usage on task 0  :           0.134 MB
  | Peak value for overall tracked memory usage on task 0     :           0.853 MB after allocating gradient_basis_wave
  | Largest tracked array allocation on task 0 so far         :           0.539 MB  when allocating gradient_basis_wave
  Note:  These values currently only include a subset of arrays which are explicitly tracked.
  The "true" memory usage will be greater.
------------------------------------------------------------

------------------------------------------------------------
          Begin self-consistency iteration #    6

  Date     :  20200603, Time     :  105154.808
------------------------------------------------------------
  Evaluating new KS density.
  Integration grid: deviation in total charge (<rho> - N_e) =  -7.105427E-15
  Pulay mixing of updated and previous charge densities.

[...]
  |   Hirshfeld dipole moment :      0.06307601
  |   Hirshfeld second moments:     -0.01963570      -0.01086852      -0.00840408
  |                                 -0.01086852      -0.00472064       0.01606939
  |                                 -0.00840408       0.01606939       0.01706559
  ----------------------------------------------------------------------
  | Atom    12: O
  |   Hirshfeld charge        :     -0.14296104
  |   Free atom volume        :     23.61338643
  |   Hirshfeld volume        :     20.75783442
  |   Hirshfeld dipole vector :     -0.04365969      -0.00992852      -0.00926432
  |   Hirshfeld dipole moment :      0.04572277
  |   Hirshfeld second moments:      0.02550133      -0.00208068      -0.01373616
  |                                 -0.00208068       0.08848415      -0.02414509
  |                                 -0.01373616      -0.02414509       0.07068835
  ----------------------------------------------------------------------
  | Atom    13: H
  |   Hirshfeld charge        :      0.16938184
  |   Free atom volume        :      9.95071624
  |   Hirshfeld volume        :      6.43413508
  |   Hirshfeld dipole vector :     -0.02999117      -0.08924877       0.06046563
  |   Hirshfeld dipole moment :      0.11189686
  |   Hirshfeld second moments:      0.08068127      -0.01217622      -0.00921877
  |                                 -0.01217622       0.11837383      -0.00365771
  |                                 -0.00921877      -0.00365771       0.11866256
  ----------------------------------------------------------------------


  Total energy components:
  | Sum of eigenvalues            :        -180.61385615 Ha       -4914.75308564 eV
  | XC energy correction          :         -42.63718263 Ha       -1160.21677046 eV
  | XC potential correction       :          54.81656310 Ha        1491.63457559 eV
  | Free-atom electrostatic energy:        -146.85105078 Ha       -3996.02040700 eV
  | Hartree energy correction     :          -8.21514975 Ha        -223.54559860 eV
  | vdW energy correction         :          -0.00339323 Ha          -0.09233458 eV
  | Entropy correction            :           0.00000000 Ha           0.00000000 eV
  | ---------------------------
  | Total energy                  :        -323.50406943 Ha       -8802.99362069 eV
  | Total energy, T -> 0          :        -323.50406943 Ha       -8802.99362069 eV  <-- do not rely on this value for anything but (periodic) metals
  | Electronic free energy        :        -323.50406943 Ha       -8802.99362069 eV

  Derived energy quantities:
  | Kinetic energy                :         322.58606871 Ha        8778.01355005 eV
  | Electrostatic energy          :        -603.44956229 Ha      -16420.69806570 eV
  | Energy correction for multipole
  | error in Hartree potential    :           0.04351141 Ha           1.18400560 eV
  | Sum of eigenvalues per atom                           :        -378.05792966 eV
  | Total energy (T->0) per atom                          :        -677.15335544 eV  <-- do not rely on this value for anything but (periodic) metals
  | Electronic free energy per atom                       :        -677.15335544 eV

  atomic forces [eV/Ang]:
  -----------------------
  atom #    1
   Hellmann-Feynman              :  0.175762E+01 -0.128974E+00  0.116703E+01
   Ionic forces                  :  0.000000E+00  0.000000E+00  0.000000E+00
   Multipole                     :  0.576625E-01  0.315657E+00 -0.302351E+00
   Pulay + GGA                   : -0.181472E+01 -0.372046E+00 -0.141523E+01
   Van der Waals                 :  0.147209E-02  0.721374E-03 -0.149095E-02
   ----------------------------------------------------------------
   Total forces(   1)            :  0.204146E-02 -0.184641E+00 -0.552033E+00
  atom #    2
   Hellmann-Feynman              :  0.128518E+00  0.703408E-01 -0.828815E-01
   Ionic forces                  :  0.000000E+00  0.000000E+00  0.000000E+00
   Multipole                     :  0.214043E+00 -0.101502E-01  0.653764E-03
   Pulay + GGA                   : -0.106257E+00  0.257121E-01  0.200941E-01
   Van der Waals                 : -0.241639E-02 -0.175817E-02  0.128477E-02
   ----------------------------------------------------------------
   Total forces(   2)            :  0.233888E+00  0.841444E-01 -0.608489E-01
  atom #    3
   Hellmann-Feynman              : -0.513754E+01  0.104757E+02 -0.156935E+01
   Ionic forces                  :  0.000000E+00  0.000000E+00  0.000000E+00
   Multipole                     : -0.171051E-01  0.719097E-01 -0.900221E+00
   Pulay + GGA                   :  0.553028E+01 -0.104479E+02  0.300858E+01
   Van der Waals                 :  0.536169E-02  0.333969E-02 -0.943554E-03
   ----------------------------------------------------------------
   Total forces(   3)            :  0.380993E+00  0.103068E+00  0.538066E+00
  atom #    4
   Hellmann-Feynman              : -0.508839E-01 -0.356291E+00 -0.109586E+00
   Ionic forces                  :  0.000000E+00  0.000000E+00  0.000000E+00
   Multipole                     :  0.294456E-01 -0.212800E-01 -0.107476E+00
   Pulay + GGA                   : -0.164710E+00  0.108993E+00  0.115194E+00
   Van der Waals                 : -0.306880E-02  0.225057E-02  0.460671E-02
   ----------------------------------------------------------------
   Total forces(   4)            : -0.189217E+00 -0.266327E+00 -0.972614E-01
  atom #    5
   Hellmann-Feynman              : -0.136047E+00 -0.321336E+00 -0.170534E+00
   Ionic forces                  :  0.000000E+00  0.000000E+00  0.000000E+00
   Multipole                     : -0.651398E-01 -0.683192E-01 -0.784201E-01
   Pulay + GGA                   :  0.776700E-01  0.223139E+00  0.634949E-01
   Van der Waals                 :  0.539468E-03  0.301347E-02 -0.761174E-03
   ----------------------------------------------------------------
   Total forces(   5)            : -0.122977E+00 -0.163502E+00 -0.186221E+00
  atom #    6
   Hellmann-Feynman              : -0.426659E+00 -0.208737E+00  0.154961E+00
   Ionic forces                  :  0.000000E+00  0.000000E+00  0.000000E+00
   Multipole                     : -0.882210E-01  0.658634E+00  0.301113E+00
   Pulay + GGA                   :  0.490922E+00 -0.624355E+00 -0.222463E-01
   Van der Waals                 :  0.213450E-02  0.609072E-02  0.132903E-02
   ----------------------------------------------------------------
   Total forces(   6)            : -0.218229E-01 -0.168367E+00  0.435157E+00
  atom #    7
   Hellmann-Feynman              :  0.121185E+00  0.739492E-01  0.517519E-01
   Ionic forces                  :  0.000000E+00  0.000000E+00  0.000000E+00
   Multipole                     :  0.448574E-01  0.129458E+00  0.666336E-01
   Pulay + GGA                   : -0.804756E-01 -0.655892E-01 -0.293429E-01
   Van der Waals                 : -0.264910E-02 -0.627240E-02 -0.226655E-02
   ----------------------------------------------------------------
   Total forces(   7)            :  0.829181E-01  0.131546E+00  0.867760E-01
  atom #    8
   Hellmann-Feynman              : -0.733713E-01 -0.876536E-01 -0.143151E+00
   Ionic forces                  :  0.000000E+00  0.000000E+00  0.000000E+00
   Multipole                     : -0.923340E-01  0.129132E+00 -0.157604E-01
   Pulay + GGA                   :  0.898240E-01 -0.111257E+00  0.138412E-01
   Van der Waals                 :  0.209048E-02 -0.785148E-02 -0.176446E-03
   ----------------------------------------------------------------
   Total forces(   8)            : -0.737908E-01 -0.776296E-01 -0.145247E+00
  atom #    9
   Hellmann-Feynman              : -0.789592E-01  0.617514E-01  0.236459E+00
   Ionic forces                  :  0.000000E+00  0.000000E+00  0.000000E+00
   Multipole                     : -0.751770E-01  0.449160E-01  0.119981E+00
   Pulay + GGA                   :  0.284969E-01  0.430139E-01 -0.951718E-01
   Van der Waals                 :  0.241485E-02 -0.387592E-02 -0.411148E-02
   ----------------------------------------------------------------
   Total forces(   9)            : -0.123224E+00  0.145805E+00  0.257158E+00
  atom #   10
   Hellmann-Feynman              : -0.195156E+01  0.465206E+01 -0.396761E+01
   Ionic forces                  :  0.000000E+00  0.000000E+00  0.000000E+00
   Multipole                     : -0.548567E-01 -0.241039E+00  0.111334E-01
   Pulay + GGA                   :  0.108524E+01 -0.265860E+01  0.225316E+01
   Van der Waals                 :  0.937756E-03 -0.110688E-02  0.411935E-02
   ----------------------------------------------------------------
   Total forces(  10)            : -0.920234E+00  0.175131E+01 -0.169919E+01
  atom #   11
   Hellmann-Feynman              : -0.135250E+02 -0.644195E+01 -0.153888E+01
   Ionic forces                  :  0.000000E+00  0.000000E+00  0.000000E+00
   Multipole                     : -0.716342E+00 -0.675829E+00  0.173379E-01
   Pulay + GGA                   :  0.124018E+02  0.684894E+01  0.846796E+00
   Van der Waals                 : -0.235145E-02 -0.654077E-02  0.657206E-02
   ----------------------------------------------------------------
   Total forces(  11)            : -0.184185E+01 -0.275380E+00 -0.668172E+00
  atom #   12
   Hellmann-Feynman              :  0.150599E+02  0.462101E+01  0.287551E+01
   Ionic forces                  :  0.000000E+00  0.000000E+00  0.000000E+00
   Multipole                     :  0.116981E+01 -0.566645E+00  0.767045E+00
   Pulay + GGA                   : -0.138248E+02 -0.434351E+01 -0.218218E+01
   Van der Waals                 : -0.467025E-02  0.631777E-02 -0.502331E-02
   ----------------------------------------------------------------
   Total forces(  12)            :  0.240016E+01 -0.282826E+00  0.145535E+01
  atom #   13
   Hellmann-Feynman              :  0.109429E+00 -0.101351E+01  0.777143E+00
   Ionic forces                  :  0.000000E+00  0.000000E+00  0.000000E+00
   Multipole                     : -0.835054E-01 -0.747177E-01  0.195954E-01
   Pulay + GGA                   :  0.162495E+00  0.278833E+00 -0.159722E+00
   Van der Waals                 :  0.205159E-03  0.567201E-02 -0.313848E-02
   ----------------------------------------------------------------
   Total forces(  13)            :  0.188624E+00 -0.803727E+00  0.633877E+00

  Timings for VdW correction (Tkatchenko-Scheffler 2009 or later):
  | CPU time:        0.015 s, Wall clock time:        0.010 s.
  Removing unitary transformations (pure translations, rotations) from forces on atoms.
  Atomic forces before filtering:
  | Net force on center of mass :  -0.448362E-02 -0.652654E-02 -0.259332E-02 eV/A
  | Net torque on center of mass:  -0.105707E-02 -0.512977E-02 -0.110080E-01 eV
  Atomic forces after filtering:
  | Net force on center of mass :  -0.624421E-15 -0.892031E-16  0.356812E-15 eV/A
  | Net torque on center of mass:  -0.188817E-15 -0.103849E-14  0.188817E-15 eV

  Energy and forces in a compact form:
  | Total energy uncorrected      :         -0.880299362068754E+04 eV
  | Total energy corrected        :         -0.880299362068754E+04 eV  <-- do not rely on this value for anything but (periodic) metals
  | Electronic free energy        :         -0.880299362068754E+04 eV
  Total atomic forces (unitary forces cleaned) [eV/Ang]:
  |   1          0.228444433915621E-02         -0.184031177112105E+00         -0.551877367754838E+00
  |   2          0.234131259164977E+00          0.851203019682173E-01         -0.608673368566924E-01
  |   3          0.381010617593907E+00          0.103553577334517E+00          0.538298399746084E+00
  |   4         -0.189245894177411E+00         -0.265558740348452E+00         -0.971602553381922E-01
  |   5         -0.122727268187319E+00         -0.163242675523332E+00         -0.185898202084763E+00
  |   6         -0.218864130452093E-01         -0.167941820483202E+00          0.435424809835253E+00
  |   7          0.826792999772835E-01          0.132246425366892E+00          0.869257179837596E-01
  |   8         -0.741443721645671E-01         -0.774182881457034E-01         -0.144855277682393E+00
  |   9         -0.123050253956089E+00          0.146031392443911E+00          0.257501542286208E+00
  |  10         -0.919440458911836E+00          0.175176800968929E+01         -0.169900874830950E+01
  |  11         -0.184087695202953E+01         -0.275276549726374E+00         -0.667830465917045E+00
  |  12          0.240125075762594E+01         -0.282082924737810E+00          0.145537791891540E+01
  |  13          0.190015233770695E+00         -0.803167530725850E+00          0.633969265176718E+00

  ------------------------------------ 
  Start decomposition of the XC Energy 
  ------------------------------------ 
  X and C from original XC functional choice 
  Hartree-Fock Energy :          0.000000000 Ha              0.000000000 eV
  X Energy            :        -41.037327906 Ha          -1116.682508506 eV
  C Energy            :         -1.599854721 Ha            -43.534261951 eV
  Total XC Energy     :        -42.637182627 Ha          -1160.216770457 eV
  ------------------------------------ 
  LDA X and C from self-consistent density 
  X Energy LDA        :        -37.255181948 Ha          -1013.765080592 eV
  C Energy LDA        :         -3.138362525 Ha            -85.399189376 eV
  ------------------------------------ 
  End decomposition of the XC Energy 
  ------------------------------------ 

------------------------------------------------------------

------------------------------------------------------------------------------
  Final output of selected total energy values:

  The following output summarizes some interesting total energy values
  at the end of a run (AFTER all relaxation, molecular dynamics, etc.).

  | Total energy of the DFT / Hartree-Fock s.c.f. calculation      :          -8802.993620688 eV
  | Final zero-broadening corrected energy (caution - metals only) :          -8802.993620688 eV
  | For reference only, the value of 1 Hartree used in FHI-aims is :             27.211384500 eV

  Before relying on these values, please be sure to understand exactly which
  total energy value is referred to by a given number. Different objects may
  all carry the same name 'total energy'. Definitions:

  Total energy of the DFT / Hartree-Fock s.c.f. calculation:
  | Note that this energy does not include ANY quantities calculated after the
  | s.c.f. cycle, in particular not ANY RPA, MP2, etc. many-body perturbation terms.

  Final zero-broadening corrected energy:
  | For metallic systems only, a broadening of the occupation numbers at the Fermi
  | level can be extrapolated back to zero broadening by an electron-gas inspired
  | formula. For all systems that are not real metals, this value can be
  | meaningless and should be avoided.

------------------------------------------------------------------------------
  Methods described in the following list of references were used in this FHI-aims run.
  If you publish the results, please make sure to cite these reference if they apply.
  FHI-aims is an academic code, and for our developers (often, Ph.D. students
  and postdocs), scientific credit in the community is essential.
  Thank you for helping us!

  For any use of FHI-aims, please cite:

    Volker Blum, Ralf Gehrke, Felix Hanke, Paula Havu, Ville Havu,
    Xinguo Ren, Karsten Reuter, and Matthias Scheffler
    'Ab initio molecular simulations with numeric atom-centered orbitals'
    Computer Physics Communications 180, 2175-2196 (2009)
    http://dx.doi.org/10.1016/j.cpc.2009.06.022


  The scalable eigensolver library ELPA was used in your run.
  ELPA is essential especially for large systems on hundreds or thousands of CPUs.
  For ELPA, please cite:

    Andreas Marek, Volker Blum, Rainer Johanni, Ville Havu, Bruno Lang,
    Thomas Auckenthaler, Alexander Heinecke, Hans-Joachim Bungartz, and Hermann Lederer,
    'The ELPA Library - Scalable Parallel Eigenvalue Solutions
    for Electronic Structure Theory and Computational Science'
    The Journal of Physics: Condensed Matter 26, 213201 (2014).
    http://dx.doi.org/10.1088/0953-8984/26/21/213201


  The ELSI infrastructure was used in your run to solve the Kohn-Sham electronic structure.
  Please check out http://elsi-interchange.org to learn more.
  If scalability is important for your project, please acknowledge ELSI by citing:

    V. W-z. Yu, F. Corsetti, A. Garcia, W. P. Huhn, M. Jacquelin, W. Jia,
    B. Lange, L. Lin, J. Lu, W. Mi, A. Seifitokaldani, A. Vazquez-Mayagoitia,
    C. Yang, H. Yang, and V. Blum
    'ELSI: A unified software interface for Kohn-Sham electronic structure solvers'
    Computer Physics Communications 222, 267-285 (2018).
    http://dx.doi.org/10.1016/j.cpc.2017.09.007


  For the real-space grid partitioning and parallelization used in this calculation, please cite:

    Ville Havu, Volker Blum, Paula Havu, and Matthias Scheffler,
    'Efficient O(N) integration for all-electron electronic structure calculation'
    'using numerically tabulated basis functions'
    Journal of Computational Physics 228, 8367-8379 (2009).
    http://dx.doi.org/10.1016/j.jcp.2009.08.008

  Of course, there are many other important community references, e.g., those cited in the
  above references. Our list is limited to references that describe implementations in the
  FHI-aims code. The reason is purely practical (length of this list) - please credit others as well.

------------------------------------------------------------
          Leaving FHI-aims.
          Date     :  20200603, Time     :  105155.982

          Computational steps:
          | Number of self-consistency cycles          :           16
          | Number of SCF (re)initializations          :            1

          Detailed time accounting                     :  max(cpu_time)    wall_clock(cpu1)
          | Total time                                 :        1.866 s           1.950 s
          | Preparation time                           :        0.167 s           0.167 s
          | Boundary condition initalization           :        0.000 s           0.000 s
          | Grid partitioning                          :        0.021 s           0.021 s
          | Preloading free-atom quantities on grid    :        0.002 s           0.002 s
          | Free-atom superposition energy             :        0.005 s           0.005 s
          | Total time for integrations                :        0.485 s           0.482 s
          | Total time for solution of K.-S. equations :        0.067 s           0.067 s
          | Total time for density & force components  :        0.589 s           0.483 s
          | Total time for mixing                      :        0.018 s           0.015 s
          | Total time for Hartree multipole update    :        0.019 s           0.022 s
          | Total time for Hartree multipole sum       :        0.436 s           0.439 s
          | Total time for total energy evaluation     :        0.003 s           0.005 s
          | Total time for vdW correction              :        0.015 s           0.010 s

          Partial memory accounting:
          | Residual value for overall tracked memory usage across tasks :           0.000 MB (should be 0.000 MB)
          | Peak values for overall tracked memory usage (after allocating hessian_basis_wave):
          |   Minimum:        2.102 MB (on task 19)
          |   Maximum:        2.138 MB (on task  8)
          |   Average:        2.123 MB
          | Largest tracked array allocation (hessian_basis_wave):
          |   Minimum:        1.078 MB (on task  1)
          |   Maximum:        1.097 MB (on task  8)
          |   Average:        1.088 MB
          Note:  These values currently only include a subset of arrays which are explicitly tracked.
          The "true" memory usage will be greater.

          Have a nice day.
------------------------------------------------------------
