  MPI-parallelism will be employed.
------------------------------------------------------------
          Invoking FHI-aims ...
          Version 171221_1
          Compiled on 2019/09/09 at 14:39:39 on host puhti-login2.bullx.

          When using FHI-aims, please cite the following reference:

          Volker Blum, Ralf Gehrke, Felix Hanke, Paula Havu,
          Ville Havu, Xinguo Ren, Karsten Reuter, and Matthias Scheffler,
          'Ab Initio Molecular Simulations with Numeric Atom-Centered Orbitals',
          Computer Physics Communications 180, 2175-2196 (2009)

          For any questions about FHI-aims, please visit the aimsclub website
          with its forums and wiki. Contributions to both the forums and the
          wiki are warmly encouraged - they are for you, and everyone is welcome there.

------------------------------------------------------------



  Date     :  20200815, Time     :  004116.710
  Time zero on CPU 1             :   0.124820000000000E-01  s.
  Internal wall clock time zero  :           366684076.710  s.

  FHI-aims created a unique identifier for this run for later identification
  aims_uuid : 18160761-7DE9-49D1-AF73-54CED6758204

  Using        1 parallel tasks.
  Task        0 on host r18c47.bullx reporting.

  Performing system and environment tests:
  | Environment variable OMP_NUM_THREADS correctly set to 1.
  | Stacksize not measured: no C compiler
  | Checking for scalapack...
  | Testing pdtran()...
  | All pdtran() tests passed.

  Obtaining array dimensions for all initial allocations:
  
  -----------------------------------------------------------------------
  Parsing control.in (first pass over file, find array dimensions only).
  The contents of control.in will be repeated verbatim below
  unless switched off by setting 'verbatim_writeout .false.' .
  in the first line of control.in .
  -----------------------------------------------------------------------
  
  #########################################################################################
  #
  #  Volker Blum, FHI 2009 : Test run input file control.in for simple H2O
  #
  #########################################################################################
  #
  #  Physical model
  #
    xc                 pbe
    vdw_correction_hirshfeld
    spin               none
    relativistic       none
    charge             0.
  #
  #  SCF convergence
  #
    occupation_type    gaussian 0.01
    mixer              pulay
      n_max_pulay        10
      charge_mix_param   0.2
    sc_accuracy_rho    1E-5
    sc_accuracy_eev    1E-3
    sc_accuracy_etot   1E-6
    sc_accuracy_forces 1E-4
    sc_iter_limit      100
  #
  #  Relaxation
  #
  #  relax_geometry   bfgs 1.e-3
  #
  ################################################################################
  #
  #  FHI-aims code project
  #  VB, Fritz-Haber Institut, 2009
  #
  #  Suggested "light" defaults for H atom (to be pasted into control.in file)
  #  Be sure to double-check any results obtained with these settings for post-processing,
  #  e.g., with the "tight" defaults and larger basis sets.
  #
  ################################################################################
    species        H
  #     global species definitions
      nucleus             1
      mass                1.00794
  #
      l_hartree           4
  #
      cut_pot             3.5  1.5  1.0
      basis_dep_cutoff    1e-4
  #
      radial_base         24 5.0
      radial_multiplier   1
      angular_grids       specified
        division   0.2421   50
        division   0.3822  110
        division   0.4799  194
        division   0.5341  302
  #      division   0.5626  434
  #      division   0.5922  590
  #      division   0.6542  770
  #      division   0.6868 1202
  #      outer_grid  770
        outer_grid  302
  ################################################################################
  #
  #  Definition of "minimal" basis
  #
  ################################################################################
  #     valence basis states
      valence      1  s   1.
  #     ion occupancy
      ion_occ      1  s   0.5
  ################################################################################
  #
  #  Suggested additional basis functions. For production calculations,
  #  uncomment them one after another (the most important basis functions are
  #  listed first).
  #
  #  Basis constructed for dimers: 0.5 A, 0.7 A, 1.0 A, 1.5 A, 2.5 A
  #
  ################################################################################
  #  "First tier" - improvements: -1014.90 meV to -62.69 meV
       hydro 2 s 2.1
       hydro 2 p 3.5
  #  "Second tier" - improvements: -12.89 meV to -1.83 meV
  #     hydro 1 s 0.85
  #     hydro 2 p 3.7
  #     hydro 2 s 1.2
  #     hydro 3 d 7
  #  "Third tier" - improvements: -0.25 meV to -0.12 meV
  #     hydro 4 f 11.2
  #     hydro 3 p 4.8
  #     hydro 4 d 9
  #     hydro 3 s 3.2
  ################################################################################
  #
  #  FHI-aims code project
  #  VB, Fritz-Haber Institut, 2009
  #
  #  Suggested "light" defaults for C atom (to be pasted into control.in file)
  #  Be sure to double-check any results obtained with these settings for post-processing,
  #  e.g., with the "tight" defaults and larger basis sets.
  #
  ################################################################################
    species        C
  #     global species definitions
      nucleus             6
      mass                12.0107
  #
      l_hartree           4
  #
      cut_pot             3.5  1.5  1.0
      basis_dep_cutoff    1e-4
  #
      radial_base         34 5.0
      radial_multiplier   1
      angular_grids specified
        division   0.3326   50
        division   0.5710  110
        division   0.7727  194
        division   0.8772  302
  #      division   0.9334  434
  #      division   0.9625  590
  #      division   0.9924  770
  #      division   1.0230  974
  #      division   1.4589 1202
  #     outer_grid  974
       outer_grid 302
  ################################################################################
  #
  #  Definition of "minimal" basis
  #
  ################################################################################
  #     valence basis states
      valence      2  s   2.
      valence      2  p   2.
  #     ion occupancy
      ion_occ      2  s   1.
      ion_occ      2  p   1.
  ################################################################################
  #
  #  Suggested additional basis functions. For production calculations,
  #  uncomment them one after another (the most important basis functions are
  #  listed first).
  #
  #  Constructed for dimers: 1.0 A, 1.25 A, 1.5 A, 2.0 A, 3.0 A
  #
  ################################################################################
  #  "First tier" - improvements: -1214.57 meV to -155.61 meV
       hydro 2 p 1.7
       hydro 3 d 6
       hydro 2 s 4.9
  #  "Second tier" - improvements: -67.75 meV to -5.23 meV
  #     hydro 4 f 9.8
  #     hydro 3 p 5.2
  #     hydro 3 s 4.3
  #     hydro 5 g 14.4
  #     hydro 3 d 6.2
  #  "Third tier" - improvements: -2.43 meV to -0.60 meV
  #     hydro 2 p 5.6
  #     hydro 2 s 1.4
  #     hydro 3 d 4.9
  #     hydro 4 f 11.2
  #  "Fourth tier" - improvements: -0.39 meV to -0.18 meV
  #     hydro 2 p 2.1
  #     hydro 5 g 16.4
  #     hydro 4 d 13.2
  #     hydro 3 s 13.6
  #     hydro 4 f 17.6
  #  Further basis functions - improvements: -0.08 meV and below
  #     hydro 3 s 2
  #     hydro 3 p 6
  #     hydro 4 d 20
  ################################################################################
  #
  #  FHI-aims code project
  #  VB, Fritz-Haber Institut, 2009
  #
  #  Suggested "light" defaults for N atom (to be pasted into control.in file)
  #  Be sure to double-check any results obtained with these settings for post-processing,
  #  e.g., with the "tight" defaults and larger basis sets.
  #
  ################################################################################
    species        N
  #     global species definitions
      nucleus             7
      mass                14.0067
  #
      l_hartree           4
  #
      cut_pot             3.5  1.5  1.0
      basis_dep_cutoff    1e-4
  #
      radial_base         35 5.0
      radial_multiplier   1
      angular_grids       specified
        division   0.2599   50
        division   0.4601  110
        division   0.5885  194
        division   0.6503  302
  #      division   0.6939  434
  #      division   0.7396  590
  #      division   0.7632  770
  #      division   0.8122  974
  #      division   1.1604 1202
  #      outer_grid  974
        outer_grid  302
  ################################################################################
  #
  #  Definition of "minimal" basis
  #
  ################################################################################
  #     valence basis states
      valence      2  s   2.
      valence      2  p   3.
  #     ion occupancy
      ion_occ      2  s   1.
      ion_occ      2  p   2.
  ################################################################################
  #
  #  Suggested additional basis functions. For production calculations,
  #  uncomment them one after another (the most important basis functions are
  #  listed first).
  #
  #  Constructed for dimers: 1.0 A, 1.1 A, 1.5 A, 2.0 A, 3.0 A
  #
  ################################################################################
  #  "First tier" - improvements: -1193.42 meV to -220.60 meV
       hydro 2 p 1.8
       hydro 3 d 6.8
       hydro 3 s 5.8
  #  "Second tier" - improvements: -80.21 meV to -6.86 meV
  #     hydro 4 f 10.8
  #     hydro 3 p 5.8
  #     hydro 1 s 0.8
  #     hydro 5 g 16
  #     hydro 3 d 4.9
  #  "Third tier" - improvements: -4.29 meV to -0.53 meV
  #     hydro 3 s 16
  #     ionic 2 p auto
  #     hydro 3 d 6.6
  #     hydro 4 f 11.6
  #  "Fourth tier" - improvements: -0.75 meV to -0.25 meV
  #     hydro 2 p 4.5
  #     hydro 2 s 2.4
  #     hydro 5 g 14.4
  #     hydro 4 d 14.4
  #     hydro 4 f 16.8
  # Further basis functions - -0.21 meV and below
  #     hydro 3 p 14.8
  #     hydro 3 s 4.4
  #     hydro 3 d 19.6
  #     hydro 5 g 12.8
  ################################################################################
  #
  #  FHI-aims code project
  #  VB, Fritz-Haber Institut, 2009
  #
  #  Suggested "light" defaults for O atom (to be pasted into control.in file)
  #  Be sure to double-check any results obtained with these settings for post-processing,
  #  e.g., with the "tight" defaults and larger basis sets.
  #
  ################################################################################
    species        O
  #     global species definitions
      nucleus             8
      mass                15.9994
  #
      l_hartree           4
  #
      cut_pot             3.5  1.5  1.0
      basis_dep_cutoff    1e-4
  #
      radial_base         36 5.0
      radial_multiplier   1
       angular_grids specified
        division   0.2659   50
        division   0.4451  110
        division   0.6052  194
        division   0.7543  302
  #      division   0.8014  434
  #      division   0.8507  590
  #      division   0.8762  770
  #      division   0.9023  974
  #      division   1.2339 1202
  #      outer_grid 974
        outer_grid 302
  ################################################################################
  #
  #  Definition of "minimal" basis
  #
  ################################################################################
  #     valence basis states
      valence      2  s   2.
      valence      2  p   4.
  #     ion occupancy
      ion_occ      2  s   1.
      ion_occ      2  p   3.
  ################################################################################
  #
  #  Suggested additional basis functions. For production calculations,
  #  uncomment them one after another (the most important basis functions are
  #  listed first).
  #
  #  Constructed for dimers: 1.0 A, 1.208 A, 1.5 A, 2.0 A, 3.0 A
  #
  ################################################################################
  #  "First tier" - improvements: -699.05 meV to -159.38 meV
       hydro 2 p 1.8
       hydro 3 d 7.6
       hydro 3 s 6.4
  #  "Second tier" - improvements: -49.91 meV to -5.39 meV
  #     hydro 4 f 11.6
  #     hydro 3 p 6.2
  #     hydro 3 d 5.6
  #     hydro 5 g 17.6
  #     hydro 1 s 0.75
  #  "Third tier" - improvements: -2.83 meV to -0.50 meV
  #     ionic 2 p auto
  #     hydro 4 f 10.8
  #     hydro 4 d 4.7
  #     hydro 2 s 6.8
  #  "Fourth tier" - improvements: -0.40 meV to -0.12 meV
  #     hydro 3 p 5
  #     hydro 3 s 3.3
  #     hydro 5 g 15.6
  #     hydro 4 f 17.6
  #     hydro 4 d 14
  # Further basis functions - -0.08 meV and below
  #     hydro 3 s 2.1
  #     hydro 4 d 11.6
  #     hydro 3 p 16
  #     hydro 2 s 17.2
  
  -----------------------------------------------------------------------
  Completed first pass over input file control.in .
  -----------------------------------------------------------------------
  
  
  -----------------------------------------------------------------------
  Parsing geometry.in (first pass over file, find array dimensions only).
  The contents of geometry.in will be repeated verbatim below
  unless switched off by setting 'verbatim_writeout .false.' .
  in the first line of geometry.in .
  -----------------------------------------------------------------------
  
  atom  0.00000 0.00000 0.00000 C
  atom  1.09300 0.00000 0.00000 H
  atom  -0.47961 0.00000 -1.41207 N
  atom  -0.01219 -0.75442 -1.91626 H
  atom  -1.48697 -0.14607 -1.41512 H
  atom  -0.49584 1.26211 0.72868 C
  atom  -1.58789 1.28919 0.74431 H
  atom  -0.13407 1.27425 1.75947 H
  atom  -0.13407 2.16087 0.22380 H
  atom  -0.39425 -1.28861 0.74398 C
  atom  -0.10189 -1.56493 1.88303 O
  atom  -1.10210 -2.13717 0.06896 O
  atom  -1.60310 -2.52301 0.80727 H
  
  -----------------------------------------------------------------------
  Completed first pass over input file geometry.in .
  -----------------------------------------------------------------------
  

  Basic array size parameters:
  | Number of species                 :        4
  | Number of atoms                   :       13
  | Max. basis fn. angular momentum   :        2
  | Max. atomic/ionic basis occupied n:        2
  | Max. number of basis fn. types    :        2
  | Max. radial fns per species/type  :        3
  | Max. logarithmic grid size        :     1301
  | Max. radial integration grid size :       36
  | Max. angular integration grid size:      302
  | Max. angular grid division number :        8
  | Radial grid for Hartree potential :     1301
  | Number of spin channels           :        1

------------------------------------------------------------
          Reading file control.in.
------------------------------------------------------------
  XC: Using PBE gradient-corrected functionals.
  Spin treatment: No spin polarisation.
  Non-relativistic treatment of kinetic energy.
  Charge =   0.000000E+00: Neutral system requested explicitly.
  Occupation type: Gaussian broadening, width =   0.100000E-01 eV.
  Using pulay charge density mixing.
  Pulay mixing - number of memorized iterations:   10
  Charge density mixing - mixing parameter:     0.2000
  Convergence accuracy of self-consistent charge density:  0.1000E-04
  Convergence accuracy of sum of eigenvalues:  0.1000E-02
  Convergence accuracy of total energy:  0.1000E-05
  Convergence accuracy of forces:  0.1000E-03
  Maximum number of s.-c. iterations  :   100
 
  Reading configuration options for species H                   .
  | Found nuclear charge :   1.0000
  | Found atomic mass :    1.00794000000000      amu
  | Found l_max for Hartree potential  :   4
  | Found cutoff potl. onset [A], width [A], scale factor :    3.50000    1.50000    1.00000
  | Threshold for basis-dependent cutoff potential is   0.100000E-03
  | Found data for basic radial integration grid :    24 points, outermost radius =    5.000 A
  | Found multiplier for basic radial grid :   1
  | Found angular grid specification: user-specified.
  | Specified grid contains     5 separate shells.
  | Check grid settings after all constraints further below.
  | Found free-atom valence shell :  1 s   1.000
  | No ionic wave fns used. Skipping ion_occ.
  | Found hydrogenic basis function :  2 s   2.100
  | Found hydrogenic basis function :  2 p   3.500
  Species H                   : Missing cutoff potential type.
  Defaulting to exp(1/x)/(1-x)^2 type cutoff potential.
  Species H : No 'logarithmic' tag. Using default grid for free atom:
  | Default logarithmic grid data [bohr] : 0.1000E-03 0.1000E+03 0.1012E+01
  Species H : On-site basis accuracy parameter (for Gram-Schmidt orthonormalisation) not specified.
  Using default value basis_acc =  0.1000000E-03.
  Species H                   : Using default innermost maximum threshold i_radial=  2 for radial functions.
  Species H                   : Default cutoff onset for free atom density etc. : 0.35000000E+01 AA.
  Species H                   : Basic radial grid will be enhanced according to radial_multiplier =   1, to contain    24 grid points.
 
  Reading configuration options for species C                   .
  | Found nuclear charge :   6.0000
  | Found atomic mass :    12.0107000000000      amu
  | Found l_max for Hartree potential  :   4
  | Found cutoff potl. onset [A], width [A], scale factor :    3.50000    1.50000    1.00000
  | Threshold for basis-dependent cutoff potential is   0.100000E-03
  | Found data for basic radial integration grid :    34 points, outermost radius =    5.000 A
  | Found multiplier for basic radial grid :   1
  | Found angular grid specification: user-specified.
  | Specified grid contains     5 separate shells.
  | Check grid settings after all constraints further below.
  | Found free-atom valence shell :  2 s   2.000
  | Found free-atom valence shell :  2 p   2.000
  | No ionic wave fns used. Skipping ion_occ.
  | No ionic wave fns used. Skipping ion_occ.
  | Found hydrogenic basis function :  2 p   1.700
  | Found hydrogenic basis function :  3 d   6.000
  | Found hydrogenic basis function :  2 s   4.900
  Species C                   : Missing cutoff potential type.
  Defaulting to exp(1/x)/(1-x)^2 type cutoff potential.
  Species C : No 'logarithmic' tag. Using default grid for free atom:
  | Default logarithmic grid data [bohr] : 0.1000E-03 0.1000E+03 0.1012E+01
  Species C : On-site basis accuracy parameter (for Gram-Schmidt orthonormalisation) not specified.
  Using default value basis_acc =  0.1000000E-03.
  Species C                   : Using default innermost maximum threshold i_radial=  2 for radial functions.
  Species C                   : Default cutoff onset for free atom density etc. : 0.35000000E+01 AA.
  Species C                   : Basic radial grid will be enhanced according to radial_multiplier =   1, to contain    34 grid points.
 
  Reading configuration options for species N                   .
  | Found nuclear charge :   7.0000
  | Found atomic mass :    14.0067000000000      amu
  | Found l_max for Hartree potential  :   4
  | Found cutoff potl. onset [A], width [A], scale factor :    3.50000    1.50000    1.00000
  | Threshold for basis-dependent cutoff potential is   0.100000E-03
  | Found data for basic radial integration grid :    35 points, outermost radius =    5.000 A
  | Found multiplier for basic radial grid :   1
  | Found angular grid specification: user-specified.
  | Specified grid contains     5 separate shells.
  | Check grid settings after all constraints further below.
  | Found free-atom valence shell :  2 s   2.000
  | Found free-atom valence shell :  2 p   3.000
  | No ionic wave fns used. Skipping ion_occ.
  | No ionic wave fns used. Skipping ion_occ.
  | Found hydrogenic basis function :  2 p   1.800
  | Found hydrogenic basis function :  3 d   6.800
  | Found hydrogenic basis function :  3 s   5.800
  Species N                   : Missing cutoff potential type.
  Defaulting to exp(1/x)/(1-x)^2 type cutoff potential.
  Species N : No 'logarithmic' tag. Using default grid for free atom:
  | Default logarithmic grid data [bohr] : 0.1000E-03 0.1000E+03 0.1012E+01
  Species N : On-site basis accuracy parameter (for Gram-Schmidt orthonormalisation) not specified.
  Using default value basis_acc =  0.1000000E-03.
  Species N                   : Using default innermost maximum threshold i_radial=  2 for radial functions.
  Species N                   : Default cutoff onset for free atom density etc. : 0.35000000E+01 AA.
  Species N                   : Basic radial grid will be enhanced according to radial_multiplier =   1, to contain    35 grid points.
 
  Reading configuration options for species O                   .
  | Found nuclear charge :   8.0000
  | Found atomic mass :    15.9994000000000      amu
  | Found l_max for Hartree potential  :   4
  | Found cutoff potl. onset [A], width [A], scale factor :    3.50000    1.50000    1.00000
  | Threshold for basis-dependent cutoff potential is   0.100000E-03
  | Found data for basic radial integration grid :    36 points, outermost radius =    5.000 A
  | Found multiplier for basic radial grid :   1
  | Found angular grid specification: user-specified.
  | Specified grid contains     5 separate shells.
  | Check grid settings after all constraints further below.
  | Found free-atom valence shell :  2 s   2.000
  | Found free-atom valence shell :  2 p   4.000
  | No ionic wave fns used. Skipping ion_occ.
  | No ionic wave fns used. Skipping ion_occ.
  | Found hydrogenic basis function :  2 p   1.800
  | Found hydrogenic basis function :  3 d   7.600
  | Found hydrogenic basis function :  3 s   6.400
  Species O                   : Missing cutoff potential type.
  Defaulting to exp(1/x)/(1-x)^2 type cutoff potential.
  Species O : No 'logarithmic' tag. Using default grid for free atom:
  | Default logarithmic grid data [bohr] : 0.1000E-03 0.1000E+03 0.1012E+01
  Species O : On-site basis accuracy parameter (for Gram-Schmidt orthonormalisation) not specified.
  Using default value basis_acc =  0.1000000E-03.
  Species O                   : Using default innermost maximum threshold i_radial=  2 for radial functions.
  Species O                   : Default cutoff onset for free atom density etc. : 0.35000000E+01 AA.
  Species O                   : Basic radial grid will be enhanced according to radial_multiplier =   1, to contain    36 grid points.
 
  Finished reading input file 'control.in'. Consistency checks are next.
 
  MPI_IN_PLACE appears to work with this MPI implementation.
  | Keeping use_mpi_in_place .true. (see manual).
  Target number of points in a grid batch is not set. Defaulting to  100
  Method for grid partitioning is not set. Defaulting to parallel hash+maxmin partitioning.
  Batch size limit is not set. Defaulting to    200
  By default, will store active basis functions for each batch.
  If in need of memory, prune_basis_once .false. can be used to disable this option.
  communication_type for Hartree potential was not specified.
  Defaulting to calc_hartree .
  Pulay mixer: Number of initial linear mixing iterations not set.
  Defaulting to    0 iterations.
  Work space size for distributed Hartree potential not set.
  Defaulting to   0.200000E+03 MB.
  Algorithm-dependent basis array size parameters:
  | n_max_pulay                         :       10
  Presetting      1001 iterations before the initial mixing cycle
  is restarted anyway using the sc_init_iter criterion / keyword.
  Presetting a factor      1.000 between actual scf density residual
  and density convergence criterion sc_accuracy_rho below which sc_init_iter
  takes no effect.
  Geometry relaxation not requested: no relaxation will be performed.
  Handling of forces: Unphysical translation and rotation will be removed from forces.
  No accuracy limit for integral partition fn. given. Defaulting to  0.1000E-14.
  No threshold value for u(r) in integrations given. Defaulting to  0.1000E-05.
  No accuracy for occupation numbers given. Defaulting to  0.1000E-12.
  No threshold value for occupation numbers given. Defaulting to  0.0000E+00.
  No accuracy for fermi level given. Defaulting to  0.1000E-19.
  Maximum # of iterations to find E_F not set. Defaulting to  200.
  Preferred method for the eigenvalue solver ('KS_method') not specified in 'control.in'.
  Defaulting to serial version, 'lapack_fast'.
  Will not use alltoall communication since running on < 1024 CPUs.
  Threshold for basis singularities not set.
  Default threshold for basis singularities:  0.1000E-04
  partition_type (choice of integration weights) for integrals was not specified.
  | Using a version of the partition function of Stratmann and coworkers ('stratmann_smoother').
  | At each grid point, the set of atoms used to build the partition table is smoothly restricted to
  | only those atoms whose free-atom density would be non-zero at that grid point.
  Partitioning for Hartree potential was not defined. Using partition_type for integrals.
  | Adjusted default value of keyword multip_moments_threshold to:       0.10000000E-11
  | This value may affect high angular momentum components of the Hartree potential in periodic systems.
  No q(lm)/r^(l+1) cutoff set for long-range Hartree potential.
  | Using default value of  0.100000E-09 .
  | Verify using the multipole_threshold keyword.
  Defaulting to new monopole extrapolation.
  Density update method: automatic selection selected.
------------------------------------------------------------


------------------------------------------------------------
          Reading geometry description geometry.in.
------------------------------------------------------------
  Input structure read successfully.
  The structure contains       13 atoms,  and a total of         48.000 electrons.

  Input geometry:
  | No unit cell requested.
  | Atomic structure:
  |       Atom                x [A]            y [A]            z [A]
  |    1: Species C             0.00000000        0.00000000        0.00000000
  |    2: Species H             1.09300000        0.00000000        0.00000000
  |    3: Species N            -0.47961000        0.00000000       -1.41207000
  |    4: Species H            -0.01219000       -0.75442000       -1.91626000
  |    5: Species H            -1.48697000       -0.14607000       -1.41512000
  |    6: Species C            -0.49584000        1.26211000        0.72868000
  |    7: Species H            -1.58789000        1.28919000        0.74431000
  |    8: Species H            -0.13407000        1.27425000        1.75947000
  |    9: Species H            -0.13407000        2.16087000        0.22380000
  |   10: Species C            -0.39425000       -1.28861000        0.74398000
  |   11: Species O            -0.10189000       -1.56493000        1.88303000
  |   12: Species O            -1.10210000       -2.13717000        0.06896000
  |   13: Species H            -1.60310000       -2.52301000        0.80727000
  |

  | The smallest distance between any two atoms is         0.97209833 AA.
  |
  | The first atom of this pair is atom number                     12 .
  | The second atom of this pair is atom number                    13 .

  Number of empty states per atom not set in control.in - providing a guess from actual geometry.
  | Total number of empty states used during s.c.f. cycle:       29
  If you use a very high smearing, use empty_states (per atom!) in control.in to increase this value.

  Structure-dependent array size parameters: 
  | Maximum number of distinct radial functions  :       21
  | Maximum number of basis functions            :      119
  | Number of Kohn-Sham states (occupied + empty):       53
------------------------------------------------------------

------------------------------------------------------------
          Preparing all fixed parts of the calculation.
------------------------------------------------------------
  Determining machine precision:
    2.225073858507201E-308
  Setting up grids for atomic and cluster calculations.

  Creating wave function, potential, and density for free atoms.

  Species: H

  List of occupied orbitals and eigenvalues:
    n    l              occ      energy [Ha]    energy [eV]
    1    0           1.0000        -0.237589        -6.4651


  Species: C

  List of occupied orbitals and eigenvalues:
    n    l              occ      energy [Ha]    energy [eV]
    1    0           2.0000       -10.038835      -273.1706
    2    0           2.0000        -0.502696       -13.6791
    2    1           2.0000        -0.191971        -5.2238


  Species: N

  List of occupied orbitals and eigenvalues:
    n    l              occ      energy [Ha]    energy [eV]
    1    0           2.0000       -14.128000      -384.4424
    2    0           2.0000        -0.681077       -18.5330
    2    1           3.0000        -0.259788        -7.0692


  Species: O

  List of occupied orbitals and eigenvalues:
    n    l              occ      energy [Ha]    energy [eV]
    1    0           2.0000       -18.898188      -514.2459
    2    0           2.0000        -0.878505       -23.9053
    2    1           4.0000        -0.331779        -9.0282

  Creating fixed part of basis set: Ionic, confined, hydrogenic.
 
  H                    hydrogenic:
 
  List of hydrogenic basis orbitals: 
    n    l      effective z      eigenvalue [eV]  inner max. [A]     outer max. [A]     outer radius [A]   
    2    0         2.100000       -14.9728           0.193243           1.317208           4.583499
    2    1         3.500000       -41.6669           0.602369           0.602369           3.723403
 
 
  C                    hydrogenic:
 
  List of hydrogenic basis orbitals: 
    n    l      effective z      eigenvalue [eV]  inner max. [A]     outer max. [A]     outer radius [A]   
    2    1         1.700000        -9.7616           1.230570           1.230570           4.607917
    3    2         6.000000       -54.4224           0.792453           0.792453           3.883070
    2    0         4.900000       -81.6679           0.082559           0.562749           3.078220
 
 
  N                    hydrogenic:
 
  List of hydrogenic basis orbitals: 
    n    l      effective z      eigenvalue [eV]  inner max. [A]     outer max. [A]     outer radius [A]   
    2    1         1.800000       -10.9749           1.177451           1.177451           4.573712
    3    2         6.800000       -69.9026           0.704619           0.704619           3.538137
    3    0         5.800000       -50.8545           0.067388           1.191934           4.250239
 
 
  O                    hydrogenic:
 
  List of hydrogenic basis orbitals: 
    n    l      effective z      eigenvalue [eV]  inner max. [A]     outer max. [A]     outer radius [A]   
    2    1         1.800000       -10.9749           1.164242           1.164242           4.578029
    3    2         7.600000       -87.3180           0.624125           0.624125           3.251020
    3    0         6.400000       -61.9207           0.061167           1.081902           4.001998
 

  Adding cutoff potential to free-atom effective potential.
  Creating atomic-like basis functions for current effective potential.

  Species H                   :

  List of atomic basis orbitals and eigenvalues:
    n    l      energy [Ha]    energy [eV]    outer radius [A]
    1    0        -0.237589        -6.4651       4.527807


  Species C                   :

  List of atomic basis orbitals and eigenvalues:
    n    l      energy [Ha]    energy [eV]    outer radius [A]
    1    0       -10.038835      -273.1706       1.934409
    2    0        -0.502696       -13.6791       4.496620
    2    1        -0.191971        -5.2238       4.551928


  Species N                   :

  List of atomic basis orbitals and eigenvalues:
    n    l      energy [Ha]    energy [eV]    outer radius [A]
    1    0       -14.128000      -384.4424       1.637919
    2    0        -0.681077       -18.5330       4.463241
    2    1        -0.259788        -7.0692       4.518138


  Species O                   :

  List of atomic basis orbitals and eigenvalues:
    n    l      energy [Ha]    energy [eV]    outer radius [A]
    1    0       -18.898188      -514.2459       1.415765
    2    0        -0.878505       -23.9053       4.413171
    2    1        -0.331779        -9.0282       4.522403

  Assembling full basis from fixed parts.
  | Species H :   atomic orbital   1 s accepted.
  | Species H :    hydro orbital   2 s accepted.
  | Species H :    hydro orbital   2 p accepted.
  | Species C :   atomic orbital   1 s accepted.
  | Species C :    hydro orbital   2 s accepted.
  | Species C :   atomic orbital   2 s accepted.
  | Species C :   atomic orbital   2 p accepted.
  | Species C :    hydro orbital   2 p accepted.
  | Species C :    hydro orbital   3 d accepted.
  | Species N :   atomic orbital   1 s accepted.
  | Species N :    hydro orbital   3 s accepted.
  | Species N :   atomic orbital   2 s accepted.
  | Species N :   atomic orbital   2 p accepted.
  | Species N :    hydro orbital   2 p accepted.
  | Species N :    hydro orbital   3 d accepted.
  | Species O :   atomic orbital   1 s accepted.
  | Species O :    hydro orbital   3 s accepted.
  | Species O :   atomic orbital   2 s accepted.
  | Species O :   atomic orbital   2 p accepted.
  | Species O :    hydro orbital   2 p accepted.
  | Species O :    hydro orbital   3 d accepted.
 
  Basis size parameters after reduction:
  | Total number of radial functions:       21
  | Total number of basis functions :      119
 
  Per-task memory consumption for arrays in subroutine allocate_ext:
  |           5.250512MB.
  Testing on-site integration grid accuracy.
  |  Species  Function  <phi|h_atom|phi> (log., in eV)  <phi|h_atom|phi> (rad., in eV)
           1        1                 -6.4663192853                 -6.4651273558
           1        2                 13.7111246313                 13.7170609718
           1        3                 25.2673269279                 25.2674696378
           2        4               -273.1705927641               -273.1705631568
           2        5                -10.7109323383                -10.7107120029
           2        6                 17.4381822266                 17.4352413244
           2        7                 -5.2255326521                 -5.2270484734
           2        8                  8.6835629259                  8.6603288385
           2        9                 27.4952418996                 27.4953360207
           3       10               -384.4424306495               -384.4423701208
           3       11                 12.5842251816                 12.5842222903
           3       12                -15.7264628251                -15.7264433455
           3       13                 -7.0696854293                 -7.0701769954
           3       14                  8.8090390882                  8.7901077751
           3       15                 35.9586762123                 35.9588528632
           4       16               -514.2458688638               -514.2457643834
           4       17                 15.1795651126                 15.1795290741
           4       18                -21.5359799773                -21.5360846186
           4       19                 -9.0283069236                 -9.0284644067
           4       20                  8.3027758564                  8.2834874195
           4       21                 45.8339351984                 45.8338762259

  Preparing densities etc. for the partition functions (integrals / Hartree potential).

  Preparations completed.
  max(cpu_time)          :      0.151 s.
  Wall clock time (cpu1) :      0.154 s.
------------------------------------------------------------

------------------------------------------------------------
          Begin self-consistency loop: Initialization.

          Date     :  20200815, Time     :  004116.884
------------------------------------------------------------

  Initializing index lists of integration centers etc. from given atomic structure:
  | Number of centers in hartree potential         :        13
  | Number of centers in hartree multipole         :        13
  | Number of centers in electron density summation:        13
  | Number of centers in basis integrals           :        13
  | Number of centers in integrals                 :        13
  | Number of centers in hamiltonian               :        13
  Partitioning the integration grid into batches with parallel hashing+maxmin method.
  | Number of batches:      955
  | Maximal batch size:     139
  | Minimal batch size:      66
  | Average batch size:      72.928
  | Standard deviation of batch sizes:      17.651

  Integration load balanced across     1 MPI tasks.
  Work distribution over tasks is as follows:
  Task     0 has      69646 integration points.
  Initializing partition tables, free-atom densities, potentials, etc. across the integration grid (initialize_grid_storage).
  | initialize_grid_storage: Actual outermost partition radius vs. multipole_radius_free
  | (-- VB: in principle, multipole_radius_free should be larger, hence this output)
  | Species        1: Confinement radius =              4.999999999999999 AA, multipole_radius_free =              5.054417573612229 AA.
  | Species        1: outer_partition_radius set to              5.054417573612229 AA .
  | Species        2: Confinement radius =              4.999999999999999 AA, multipole_radius_free =              5.019602836301480 AA.
  | Species        2: outer_partition_radius set to              5.019602836301480 AA .
  | Species        3: Confinement radius =              4.999999999999999 AA, multipole_radius_free =              5.043624274424571 AA.
  | Species        3: outer_partition_radius set to              5.043624274424571 AA .
  | Species        4: Confinement radius =              4.999999999999999 AA, multipole_radius_free =              5.048384829883283 AA.
  | Species        4: outer_partition_radius set to              5.048384829883283 AA .
  | Original list of interatomic distances with          13 x         13 entries is created.
  | Net number of integration points:    69646
  | of which are non-zero points    :    59576
  Renormalizing the initial density to the exact electron count on the 3D integration grid.
  | Initial density: Formal number of electrons (from input files) :      48.0000000000
  | Integrated number of electrons on 3D grid     :      47.9998780243
  | Charge integration error                      :      -0.0001219757
  | Normalization factor for density and gradient :       1.0000025412
  Obtaining max. number of non-zero basis functions in each batch (get_n_compute_maxes).
  | Maximal number of non-zero basis functions:      119 in task     0
  Selecting the method for density update.
  Loop over occupied states selected for charge density update.
  Allocating        0.050 MB for KS_eigenvector
  Integrating Hamiltonian matrix: batch-based integration.
  Time summed over all CPUs for integration: real work        0.505 s, elapsed        0.505 s
  Integrating overlap matrix.
  Time summed over all CPUs for integration: real work        0.214 s, elapsed        0.214 s

  Updating Kohn-Sham eigenvalues and eigenvectors using ELSI and the ELPA eigensolver.
  Overlap matrix is nonsingular
  | Lowest eigenvalue of overlap  :  0.56E-02
  | Highest eigenvalue of overlap :  0.61E+01
  Finished singularity check of overlap matrix
  | Time :     0.002 s
  Finished Cholesky decomposition
  | Time :     0.000 s
  Finished transformation to standard eigenproblem
  | Time :     0.000 s
  Starting LAPACK eigensolver
  Finished solving standard eigenproblem
  | Time :     0.002 s
  Finished back-transformation of eigenvectors
  | Time :     0.000 s

  Obtaining occupation numbers and chemical potential using ELSI.
  | Chemical potential (Fermi level):    -8.65285961eV
  Writing Kohn-Sham eigenvalues.

  State    Occupation    Eigenvalue [Ha]    Eigenvalue [eV]
      1       2.00000         -19.007810         -517.22882
      2       2.00000         -18.978090         -516.42011
      3       2.00000         -14.245789         -387.64764
      4       2.00000         -10.166645         -276.64850
      5       2.00000         -10.141241         -275.95720
      6       2.00000         -10.132064         -275.70748
      7       2.00000          -1.187606          -32.31640
      8       2.00000          -1.093647          -29.75966
      9       2.00000          -0.991194          -26.97176
     10       2.00000          -0.861145          -23.43294
     11       2.00000          -0.758597          -20.64246
     12       2.00000          -0.681037          -18.53196
     13       2.00000          -0.620922          -16.89613
     14       2.00000          -0.611487          -16.63941
     15       2.00000          -0.594426          -16.17516
     16       2.00000          -0.562770          -15.31376
     17       2.00000          -0.548703          -14.93097
     18       2.00000          -0.520797          -14.17161
     19       2.00000          -0.515975          -14.04040
     20       2.00000          -0.504055          -13.71605
     21       2.00000          -0.466692          -12.69932
     22       2.00000          -0.430769          -11.72181
     23       2.00000          -0.423123          -11.51375
     24       2.00000          -0.378080          -10.28808
     25       0.00000          -0.153421           -4.17481
     26       0.00000          -0.059098           -1.60814
     27       0.00000          -0.028341           -0.77120
     28       0.00000          -0.014752           -0.40143
     29       0.00000          -0.002681           -0.07295
     30       0.00000           0.011753            0.31983
     31       0.00000           0.015824            0.43060
     32       0.00000           0.029965            0.81540
     33       0.00000           0.044925            1.22247
     34       0.00000           0.061384            1.67034
     35       0.00000           0.083456            2.27096
     36       0.00000           0.135064            3.67528
     37       0.00000           0.151257            4.11590
     38       0.00000           0.197589            5.37666
     39       0.00000           0.211895            5.76595
     40       0.00000           0.232277            6.32058
     41       0.00000           0.259520            7.06191
     42       0.00000           0.274475            7.46884
     43       0.00000           0.279499            7.60557
     44       0.00000           0.312402            8.50090
     45       0.00000           0.337312            9.17872
     46       0.00000           0.351267            9.55847
     47       0.00000           0.352065            9.58017
     48       0.00000           0.386025           10.50427
     49       0.00000           0.449558           12.23311
     50       0.00000           0.478177           13.01187
     51       0.00000           0.487309           13.26036
     52       0.00000           0.523895           14.25590
     53       0.00000           0.601185           16.35907

  Highest occupied state (VBM) at    -10.28807997 eV
  | Occupation number:      2.00000000

  Lowest unoccupied state (CBM) at    -4.17480598 eV
  | Occupation number:      0.00000000

  Overall HOMO-LUMO gap:      6.11327399 eV.
  Calculating total energy contributions from superposition of free atom densities.

  Total energy components:
  | Sum of eigenvalues            :        -188.84532694 Ha       -5138.74280241 eV
  | XC energy correction          :         -41.78608963 Ha       -1137.05735160 eV
  | XC potential correction       :          53.71637712 Ha        1461.69699184 eV
  | Free-atom electrostatic energy:        -146.85636086 Ha       -3996.16490162 eV
  | Hartree energy correction     :           0.00000000 Ha           0.00000000 eV
  | vdW energy correction         :           0.00000000 Ha           0.00000000 eV
  | Entropy correction            :           0.00000000 Ha           0.00000000 eV
  | ---------------------------
  | Total energy                  :        -323.77140030 Ha       -8810.26806380 eV
  | Total energy, T -> 0          :        -323.77140030 Ha       -8810.26806380 eV  <-- do not rely on this value for anything but (periodic) metals
  | Electronic free energy        :        -323.77140030 Ha       -8810.26806380 eV

  Derived energy quantities:
  | Kinetic energy                :         320.48038727 Ha        8720.71504271 eV
  | Electrostatic energy          :        -602.46569795 Ha      -16393.92575490 eV
  | Energy correction for multipole
  | error in Hartree potential    :           0.00000000 Ha           0.00000000 eV
  | Sum of eigenvalues per atom                           :        -395.28790788 eV
  | Total energy (T->0) per atom                          :        -677.71292798 eV  <-- do not rely on this value for anything but (periodic) metals
  | Electronic free energy per atom                       :        -677.71292798 eV
  Initialize hartree_potential_storage
  Max. number of atoms included in rho_multipole:           13

  End scf initialization - timings             :  max(cpu_time)    wall_clock(cpu1)
  | Time for scf. initialization               :        1.169 s           1.171 s
  | Boundary condition initialization          :        0.000 s           0.000 s
  | Integration                                :        0.719 s           0.720 s
  | Solution of K.-S. eqns.                    :        0.004 s           0.004 s
  | Grid partitioning                          :        0.113 s           0.113 s
  | Preloading free-atom quantities on grid    :        0.002 s           0.003 s
  | Free-atom superposition energy             :        0.086 s           0.086 s
  | Total energy evaluation                    :        0.000 s           0.000 s

  Partial memory accounting:
  | Current value for overall tracked memory usage on task 0  :           0.165 MB
  | Peak value for overall tracked memory usage on task 0     :           0.678 MB after allocating wave
  | Largest tracked array allocation on task 0 so far         :           0.132 MB  when allocating H_times_psi
  Note:  These values currently only include a subset of arrays which are explicitly tracked.
  The "true" memory usage will be greater.
------------------------------------------------------------

------------------------------------------------------------
          Begin self-consistency iteration #    1

  Date     :  20200815, Time     :  004118.056
------------------------------------------------------------
  Evaluating new KS density.
  Integration grid: deviation in total charge (<rho> - N_e) =   7.105427E-15
  Pulay mixing of updated and previous charge densities.

  Evaluating partitioned Hartree potential by multipole expansion.
  | Analytical far-field extrapolation by fixed multipoles:
  | Hartree multipole sum: apparent total charge =  -0.235378E-03
  Summing up the Hartree potential.
  Time summed over all CPUs for potential: real work        0.289 s, elapsed        0.289 s
  | RMS charge density error from multipole expansion :   0.589522E-02

  Integrating Hamiltonian matrix: batch-based integration.
  Time summed over all CPUs for integration: real work        0.509 s, elapsed        0.509 s

  Updating Kohn-Sham eigenvalues and eigenvectors using ELSI and the ELPA eigensolver.
  Finished Cholesky decomposition
  | Time :     0.000 s
  Finished transformation to standard eigenproblem
  | Time :     0.000 s
  Starting LAPACK eigensolver
  Finished solving standard eigenproblem
  | Time :     0.001 s
  Finished back-transformation of eigenvectors
  | Time :     0.000 s

  Obtaining occupation numbers and chemical potential using ELSI.
  | Chemical potential (Fermi level):    -7.46085756eV
  Writing Kohn-Sham eigenvalues.

  State    Occupation    Eigenvalue [Ha]    Eigenvalue [eV]
      1       2.00000         -18.907321         -514.49438
      2       2.00000         -18.838765         -512.62888
      3       2.00000         -14.094787         -383.53867
      4       2.00000         -10.115961         -275.26930
      5       2.00000         -10.061675         -273.79210
      6       2.00000         -10.029986         -272.92981
      7       2.00000          -1.140197          -31.02633
      8       2.00000          -1.032367          -28.09214
      9       2.00000          -0.920436          -25.04635
     10       2.00000          -0.793863          -21.60211
     11       2.00000          -0.708218          -19.27158
     12       2.00000          -0.634363          -17.26189
     13       2.00000          -0.563897          -15.34440
     14       2.00000          -0.552268          -15.02797
     15       2.00000          -0.535433          -14.56987
     16       2.00000          -0.504467          -13.72724
     17       2.00000          -0.490109          -13.33655
     18       2.00000          -0.462850          -12.59479
     19       2.00000          -0.451138          -12.27610
     20       2.00000          -0.443268          -12.06195
     21       2.00000          -0.413855          -11.26157
     22       2.00000          -0.369877          -10.06487
     23       2.00000          -0.351987           -9.57806
     24       2.00000          -0.304717           -8.29176
     25       0.00000          -0.117870           -3.20741
     26       0.00000          -0.034848           -0.94827
     27       0.00000           0.002816            0.07664
     28       0.00000           0.016698            0.45438
     29       0.00000           0.025292            0.68824
     30       0.00000           0.053753            1.46271
     31       0.00000           0.060313            1.64121
     32       0.00000           0.068352            1.85995
     33       0.00000           0.084322            2.29452
     34       0.00000           0.102522            2.78977
     35       0.00000           0.126351            3.43819
     36       0.00000           0.162701            4.42731
     37       0.00000           0.175144            4.76591
     38       0.00000           0.225802            6.14439
     39       0.00000           0.242595            6.60135
     40       0.00000           0.266778            7.25939
     41       0.00000           0.296857            8.07788
     42       0.00000           0.312616            8.50671
     43       0.00000           0.314125            8.54776
     44       0.00000           0.350347            9.53344
     45       0.00000           0.376925           10.25666
     46       0.00000           0.382313           10.40328
     47       0.00000           0.389297           10.59331
     48       0.00000           0.424544           11.55243
     49       0.00000           0.490535           13.34815
     50       0.00000           0.510189           13.88296
     51       0.00000           0.526604           14.32961
     52       0.00000           0.557880           15.18070
     53       0.00000           0.642202           17.47522

  Highest occupied state (VBM) at     -8.29176310 eV
  | Occupation number:      2.00000000

  Lowest unoccupied state (CBM) at    -3.20740741 eV
  | Occupation number:      0.00000000

  Overall HOMO-LUMO gap:      5.08435569 eV.

  Total energy components:
  | Sum of eigenvalues            :        -185.44361136 Ha       -5046.17741188 eV
  | XC energy correction          :         -42.11539962 Ha       -1146.01833250 eV
  | XC potential correction       :          54.14470814 Ha        1473.35247172 eV
  | Free-atom electrostatic energy:        -146.85636086 Ha       -3996.16490162 eV
  | Hartree energy correction     :          -3.31994957 Ha         -90.34042434 eV
  | vdW energy correction         :           0.00000000 Ha           0.00000000 eV
  | Entropy correction            :           0.00000000 Ha           0.00000000 eV
  | ---------------------------
  | Total energy                  :        -323.59061328 Ha       -8805.34859861 eV
  | Total energy, T -> 0          :        -323.59061328 Ha       -8805.34859861 eV  <-- do not rely on this value for anything but (periodic) metals
  | Electronic free energy        :        -323.59061328 Ha       -8805.34859861 eV

  Derived energy quantities:
  | Kinetic energy                :         322.27318323 Ha        8769.49950301 eV
  | Electrostatic energy          :        -603.74839689 Ha      -16428.82976912 eV
  | Energy correction for multipole
  | error in Hartree potential    :           0.01197928 Ha           0.32597277 eV
  | Sum of eigenvalues per atom                           :        -388.16749322 eV
  | Total energy (T->0) per atom                          :        -677.33450759 eV  <-- do not rely on this value for anything but (periodic) metals
  | Electronic free energy per atom                       :        -677.33450759 eV

  Self-consistency convergence accuracy:
  | Change of charge density      :  0.5819E+00
  | Change of sum of eigenvalues  :  0.9257E+02 eV
  | Change of total energy        :  0.4919E+01 eV

  End self-consistency iteration #     1       :  max(cpu_time)    wall_clock(cpu1)
  | Time for this iteration                    :        1.212 s           1.217 s
  | Charge density update                      :        0.400 s           0.400 s
  | Density mixing                             :        0.006 s           0.005 s
  | Hartree multipole update                   :        0.009 s           0.009 s
  | Hartree multipole summation                :        0.286 s           0.291 s
  | Integration                                :        0.509 s           0.509 s
  | Solution of K.-S. eqns.                    :        0.002 s           0.002 s
  | Total energy evaluation                    :        0.000 s           0.000 s

  Partial memory accounting:
  | Current value for overall tracked memory usage on task 0  :           0.165 MB
  | Peak value for overall tracked memory usage on task 0     :           0.695 MB after allocating gradient_basis_wave
  | Largest tracked array allocation on task 0 so far         :           0.397 MB  when allocating gradient_basis_wave
  Note:  These values currently only include a subset of arrays which are explicitly tracked.
  The "true" memory usage will be greater.
------------------------------------------------------------

------------------------------------------------------------
          Begin self-consistency iteration #    2

  Date     :  20200815, Time     :  004119.275
------------------------------------------------------------
  Evaluating new KS density.
  Integration grid: deviation in total charge (<rho> - N_e) =  -2.842171E-14
  Pulay mixing of updated and previous charge densities.

  Evaluating partitioned Hartree potential by multipole expansion.
  | Analytical far-field extrapolation by fixed multipoles:
  | Hartree multipole sum: apparent total charge =  -0.381591E-03
  Summing up the Hartree potential.
  Time summed over all CPUs for potential: real work        0.287 s, elapsed        0.287 s
  | RMS charge density error from multipole expansion :   0.140910E-01

  Integrating Hamiltonian matrix: batch-based integration.
  Time summed over all CPUs for integration: real work        0.506 s, elapsed        0.506 s

  Updating Kohn-Sham eigenvalues and eigenvectors using ELSI and the ELPA eigensolver.
  Finished Cholesky decomposition
  | Time :     0.000 s
  Finished transformation to standard eigenproblem
  | Time :     0.000 s
  Starting LAPACK eigensolver
  Finished solving standard eigenproblem
  | Time :     0.001 s
  Finished back-transformation of eigenvectors
  | Time :     0.000 s

  Obtaining occupation numbers and chemical potential using ELSI.
  | Chemical potential (Fermi level):    -6.06404449eV
  Highest occupied state (VBM) at     -6.26376081 eV
  | Occupation number:      2.00000000

  Lowest unoccupied state (CBM) at    -1.94847246 eV
  | Occupation number:      0.00000000

  Overall HOMO-LUMO gap:      4.31528835 eV.

  Checking to see if s.c.f. parameters should be adjusted.

  Total energy components:
  | Sum of eigenvalues            :        -181.82887347 Ha       -4947.81538918 eV
  | XC energy correction          :         -42.47971682 Ha       -1155.93190794 eV
  | XC potential correction       :          54.61706481 Ha        1486.20595094 eV
  | Free-atom electrostatic energy:        -146.85636086 Ha       -3996.16490162 eV
  | Hartree energy correction     :          -6.96478425 Ha        -189.52142224 eV
  | vdW energy correction         :           0.00000000 Ha           0.00000000 eV
  | Entropy correction            :          -0.00000000 Ha          -0.00000000 eV
  | ---------------------------
  | Total energy                  :        -323.51267059 Ha       -8803.22767005 eV
  | Total energy, T -> 0          :        -323.51267059 Ha       -8803.22767005 eV  <-- do not rely on this value for anything but (periodic) metals
  | Electronic free energy        :        -323.51267059 Ha       -8803.22767005 eV

  Derived energy quantities:
  | Kinetic energy                :         323.61221520 Ha        8805.93641678 eV
  | Electrostatic energy          :        -604.64516897 Ha      -16453.23217888 eV
  | Energy correction for multipole
  | error in Hartree potential    :           0.02671056 Ha           0.72683130 eV
  | Sum of eigenvalues per atom                           :        -380.60118378 eV
  | Total energy (T->0) per atom                          :        -677.17135923 eV  <-- do not rely on this value for anything but (periodic) metals
  | Electronic free energy per atom                       :        -677.17135923 eV

  Self-consistency convergence accuracy:
  | Change of charge density      :  0.3635E+00
  | Change of sum of eigenvalues  :  0.9836E+02 eV
  | Change of total energy        :  0.2121E+01 eV

  End self-consistency iteration #     2       :  max(cpu_time)    wall_clock(cpu1)
  | Time for this iteration                    :        1.204 s           1.206 s
  | Charge density update                      :        0.393 s           0.394 s
  | Density mixing                             :        0.007 s           0.007 s
  | Hartree multipole update                   :        0.009 s           0.009 s
  | Hartree multipole summation                :        0.288 s           0.288 s
  | Integration                                :        0.505 s           0.506 s
  | Solution of K.-S. eqns.                    :        0.002 s           0.002 s
  | Total energy evaluation                    :        0.000 s           0.000 s

  Partial memory accounting:
  | Current value for overall tracked memory usage on task 0  :           0.166 MB
  | Peak value for overall tracked memory usage on task 0     :           0.695 MB after allocating gradient_basis_wave
  | Largest tracked array allocation on task 0 so far         :           0.397 MB  when allocating gradient_basis_wave
  Note:  These values currently only include a subset of arrays which are explicitly tracked.
  The "true" memory usage will be greater.
------------------------------------------------------------

------------------------------------------------------------
          Begin self-consistency iteration #    3

  Date     :  20200815, Time     :  004120.484
------------------------------------------------------------
  Evaluating new KS density.
  Integration grid: deviation in total charge (<rho> - N_e) =  -7.105427E-14
  Pulay mixing of updated and previous charge densities.

  Evaluating partitioned Hartree potential by multipole expansion.
  | Analytical far-field extrapolation by fixed multipoles:
  | Hartree multipole sum: apparent total charge =  -0.486244E-03
  Summing up the Hartree potential.
  Time summed over all CPUs for potential: real work        0.289 s, elapsed        0.289 s
  | RMS charge density error from multipole expansion :   0.223725E-01

  Integrating Hamiltonian matrix: batch-based integration.
  Time summed over all CPUs for integration: real work        0.505 s, elapsed        0.505 s

  Updating Kohn-Sham eigenvalues and eigenvectors using ELSI and the ELPA eigensolver.
  Finished Cholesky decomposition
  | Time :     0.000 s
  Finished transformation to standard eigenproblem
  | Time :     0.000 s
  Starting LAPACK eigensolver
  Finished solving standard eigenproblem
  | Time :     0.002 s
  Finished back-transformation of eigenvectors
  | Time :     0.000 s

  Obtaining occupation numbers and chemical potential using ELSI.
  | Chemical potential (Fermi level):    -5.35501067eV
  Highest occupied state (VBM) at     -5.59866644 eV
  | Occupation number:      2.00000000

  Lowest unoccupied state (CBM) at    -1.22299935 eV
  | Occupation number:      0.00000000

  Overall HOMO-LUMO gap:      4.37566710 eV.

  Total energy components:
  | Sum of eigenvalues            :        -180.51731081 Ha       -4912.12595323 eV
  | XC energy correction          :         -42.63141259 Ha       -1160.05975978 eV
  | XC potential correction       :          54.81054005 Ha        1491.47067997 eV
  | Free-atom electrostatic energy:        -146.85636086 Ha       -3996.16490162 eV
  | Hartree energy correction     :          -8.30591629 Ha        -226.01548193 eV
  | vdW energy correction         :           0.00000000 Ha           0.00000000 eV
  | Entropy correction            :          -0.00000000 Ha          -0.00000000 eV
  | ---------------------------
  | Total energy                  :        -323.50046050 Ha       -8802.89541658 eV
  | Total energy, T -> 0          :        -323.50046050 Ha       -8802.89541658 eV  <-- do not rely on this value for anything but (periodic) metals
  | Electronic free energy        :        -323.50046050 Ha       -8802.89541658 eV

  Derived energy quantities:
  | Kinetic energy                :         323.17186627 Ha        8793.95391252 eV
  | Electrostatic energy          :        -604.04091417 Ha      -16436.78956933 eV
  | Energy correction for multipole
  | error in Hartree potential    :           0.03832958 Ha           1.04300084 eV
  | Sum of eigenvalues per atom                           :        -377.85584256 eV
  | Total energy (T->0) per atom                          :        -677.14580128 eV  <-- do not rely on this value for anything but (periodic) metals
  | Electronic free energy per atom                       :        -677.14580128 eV

  Self-consistency convergence accuracy:
  | Change of charge density      :  0.2021E+00
  | Change of sum of eigenvalues  :  0.3569E+02 eV
  | Change of total energy        :  0.3323E+00 eV

  End self-consistency iteration #     3       :  max(cpu_time)    wall_clock(cpu1)
  | Time for this iteration                    :        1.208 s           1.210 s
  | Charge density update                      :        0.395 s           0.395 s
  | Density mixing                             :        0.009 s           0.009 s
  | Hartree multipole update                   :        0.009 s           0.009 s
  | Hartree multipole summation                :        0.289 s           0.289 s
  | Integration                                :        0.505 s           0.505 s
  | Solution of K.-S. eqns.                    :        0.002 s           0.003 s
  | Total energy evaluation                    :        0.000 s           0.000 s

  Partial memory accounting:
  | Current value for overall tracked memory usage on task 0  :           0.166 MB
  | Peak value for overall tracked memory usage on task 0     :           0.695 MB after allocating gradient_basis_wave
  | Largest tracked array allocation on task 0 so far         :           0.397 MB  when allocating gradient_basis_wave
  Note:  These values currently only include a subset of arrays which are explicitly tracked.
  The "true" memory usage will be greater.
------------------------------------------------------------

------------------------------------------------------------
          Begin self-consistency iteration #    4

  Date     :  20200815, Time     :  004121.695
------------------------------------------------------------
  Evaluating new KS density.
  Integration grid: deviation in total charge (<rho> - N_e) =  -7.105427E-15
  Pulay mixing of updated and previous charge densities.

  Evaluating partitioned Hartree potential by multipole expansion.
  | Analytical far-field extrapolation by fixed multipoles:
  | Hartree multipole sum: apparent total charge =  -0.519421E-03
  Summing up the Hartree potential.
  Time summed over all CPUs for potential: real work        0.298 s, elapsed        0.298 s
  | RMS charge density error from multipole expansion :   0.256952E-01

  Integrating Hamiltonian matrix: batch-based integration.
  Time summed over all CPUs for integration: real work        0.504 s, elapsed        0.504 s

  Updating Kohn-Sham eigenvalues and eigenvectors using ELSI and the ELPA eigensolver.
  Finished Cholesky decomposition
  | Time :     0.000 s
  Finished transformation to standard eigenproblem
  | Time :     0.000 s
  Starting LAPACK eigensolver
  Finished solving standard eigenproblem
  | Time :     0.002 s
  Finished back-transformation of eigenvectors
  | Time :     0.000 s

  Obtaining occupation numbers and chemical potential using ELSI.
  | Chemical potential (Fermi level):    -5.25622758eV
  Highest occupied state (VBM) at     -5.40831747 eV
  | Occupation number:      2.00000000

  Lowest unoccupied state (CBM) at    -1.15489298 eV
  | Occupation number:      0.00000000

  Overall HOMO-LUMO gap:      4.25342449 eV.

  Total energy components:
  | Sum of eigenvalues            :        -180.38396396 Ha       -4908.49740107 eV
  | XC energy correction          :         -42.66707250 Ha       -1161.03011520 eV
  | XC potential correction       :          54.85544396 Ha        1492.69257747 eV
  | Free-atom electrostatic energy:        -146.85636086 Ha       -3996.16490162 eV
  | Hartree energy correction     :          -8.44768052 Ha        -229.87308272 eV
  | vdW energy correction         :           0.00000000 Ha           0.00000000 eV
  | Entropy correction            :          -0.00000000 Ha          -0.00000000 eV
  | ---------------------------
  | Total energy                  :        -323.49963388 Ha       -8802.87292313 eV
  | Total energy, T -> 0          :        -323.49963388 Ha       -8802.87292313 eV  <-- do not rely on this value for anything but (periodic) metals
  | Electronic free energy        :        -323.49963388 Ha       -8802.87292313 eV

  Derived energy quantities:
  | Kinetic energy                :         322.79771498 Ha        8783.77273817 eV
  | Electrostatic energy          :        -603.63027637 Ha      -16425.61554610 eV
  | Energy correction for multipole
  | error in Hartree potential    :           0.04254656 Ha           1.15775068 eV
  | Sum of eigenvalues per atom                           :        -377.57672316 eV
  | Total energy (T->0) per atom                          :        -677.14407101 eV  <-- do not rely on this value for anything but (periodic) metals
  | Electronic free energy per atom                       :        -677.14407101 eV

  Self-consistency convergence accuracy:
  | Change of charge density      :  0.6163E-01
  | Change of sum of eigenvalues  :  0.3629E+01 eV
  | Change of total energy        :  0.2249E-01 eV

  End self-consistency iteration #     4       :  max(cpu_time)    wall_clock(cpu1)
  | Time for this iteration                    :        1.202 s           1.217 s
  | Charge density update                      :        0.391 s           0.392 s
  | Density mixing                             :        0.010 s           0.010 s
  | Hartree multipole update                   :        0.009 s           0.009 s
  | Hartree multipole summation                :        0.286 s           0.299 s
  | Integration                                :        0.504 s           0.504 s
  | Solution of K.-S. eqns.                    :        0.002 s           0.003 s
  | Total energy evaluation                    :        0.000 s           0.000 s

  Partial memory accounting:
  | Current value for overall tracked memory usage on task 0  :           0.166 MB
  | Peak value for overall tracked memory usage on task 0     :           0.696 MB after allocating gradient_basis_wave
  | Largest tracked array allocation on task 0 so far         :           0.397 MB  when allocating gradient_basis_wave
  Note:  These values currently only include a subset of arrays which are explicitly tracked.
  The "true" memory usage will be greater.
------------------------------------------------------------

------------------------------------------------------------
          Begin self-consistency iteration #    5

  Date     :  20200815, Time     :  004122.914
------------------------------------------------------------
  Evaluating new KS density.
  Integration grid: deviation in total charge (<rho> - N_e) =  -1.421085E-14
  Pulay mixing of updated and previous charge densities.

  Evaluating partitioned Hartree potential by multipole expansion.
  | Analytical far-field extrapolation by fixed multipoles:
  | Hartree multipole sum: apparent total charge =  -0.513157E-03
  Summing up the Hartree potential.
  Time summed over all CPUs for potential: real work        0.549 s, elapsed        0.549 s
  | RMS charge density error from multipole expansion :   0.254271E-01

  Integrating Hamiltonian matrix: batch-based integration.
  Time summed over all CPUs for integration: real work        0.506 s, elapsed        0.506 s

  Updating Kohn-Sham eigenvalues and eigenvectors using ELSI and the ELPA eigensolver.
  Finished Cholesky decomposition
  | Time :     0.000 s
  Finished transformation to standard eigenproblem
  | Time :     0.000 s
  Starting LAPACK eigensolver
  Finished solving standard eigenproblem
  | Time :     0.001 s
  Finished back-transformation of eigenvectors
  | Time :     0.000 s

  Obtaining occupation numbers and chemical potential using ELSI.
  | Chemical potential (Fermi level):    -5.32117184eV
  Highest occupied state (VBM) at     -5.49798882 eV
  | Occupation number:      2.00000000

  Lowest unoccupied state (CBM) at    -1.23467500 eV
  | Occupation number:      0.00000000

  Overall HOMO-LUMO gap:      4.26331382 eV.

  Total energy components:
  | Sum of eigenvalues            :        -180.56165420 Ha       -4913.33259826 eV
  | XC energy correction          :         -42.64498802 Ha       -1160.42916610 eV
  | XC potential correction       :          54.82681066 Ha        1491.91342574 eV
  | Free-atom electrostatic energy:        -146.85636086 Ha       -3996.16490162 eV
  | Hartree energy correction     :          -8.26314630 Ha        -224.85165103 eV
  | vdW energy correction         :           0.00000000 Ha           0.00000000 eV
  | Entropy correction            :          -0.00000000 Ha          -0.00000000 eV
  | ---------------------------
  | Total energy                  :        -323.49933872 Ha       -8802.86489127 eV
  | Total energy, T -> 0          :        -323.49933872 Ha       -8802.86489127 eV  <-- do not rely on this value for anything but (periodic) metals
  | Electronic free energy        :        -323.49933872 Ha       -8802.86489127 eV

  Derived energy quantities:
  | Kinetic energy                :         322.70307485 Ha        8781.19744911 eV
  | Electrostatic energy          :        -603.55742554 Ha      -16423.63317428 eV
  | Energy correction for multipole
  | error in Hartree potential    :           0.04193628 Ha           1.14114434 eV
  | Sum of eigenvalues per atom                           :        -377.94866140 eV
  | Total energy (T->0) per atom                          :        -677.14345317 eV  <-- do not rely on this value for anything but (periodic) metals
  | Electronic free energy per atom                       :        -677.14345317 eV

  Self-consistency convergence accuracy:
  | Change of charge density      :  0.2059E-01
  | Change of sum of eigenvalues  : -0.4835E+01 eV
  | Change of total energy        :  0.8032E-02 eV

  End self-consistency iteration #     5       :  max(cpu_time)    wall_clock(cpu1)
  | Time for this iteration                    :        1.208 s           1.472 s
  | Charge density update                      :        0.393 s           0.394 s
  | Density mixing                             :        0.011 s           0.011 s
  | Hartree multipole update                   :        0.009 s           0.009 s
  | Hartree multipole summation                :        0.288 s           0.550 s
  | Integration                                :        0.505 s           0.506 s
  | Solution of K.-S. eqns.                    :        0.002 s           0.002 s
  | Total energy evaluation                    :        0.000 s           0.000 s

  Partial memory accounting:
  | Current value for overall tracked memory usage on task 0  :           0.166 MB
  | Peak value for overall tracked memory usage on task 0     :           0.696 MB after allocating gradient_basis_wave
  | Largest tracked array allocation on task 0 so far         :           0.397 MB  when allocating gradient_basis_wave
  Note:  These values currently only include a subset of arrays which are explicitly tracked.
  The "true" memory usage will be greater.
------------------------------------------------------------

------------------------------------------------------------
          Begin self-consistency iteration #    6

  Date     :  20200815, Time     :  004124.391
------------------------------------------------------------
  Evaluating new KS density.
  Integration grid: deviation in total charge (<rho> - N_e) =   3.552714E-14
  Pulay mixing of updated and previous charge densities.

  Evaluating partitioned Hartree potential by multipole expansion.
  | Analytical far-field extrapolation by fixed multipoles:
  | Hartree multipole sum: apparent total charge =  -0.515688E-03
  Summing up the Hartree potential.
  Time summed over all CPUs for potential: real work        0.286 s, elapsed        0.286 s
  | RMS charge density error from multipole expansion :   0.257920E-01

  Integrating Hamiltonian matrix: batch-based integration.
  Time summed over all CPUs for integration: real work        0.507 s, elapsed        0.507 s

  Updating Kohn-Sham eigenvalues and eigenvectors using ELSI and the ELPA eigensolver.
  Finished Cholesky decomposition
  | Time :     0.000 s
  Finished transformation to standard eigenproblem
  | Time :     0.000 s
  Starting LAPACK eigensolver
  Finished solving standard eigenproblem
  | Time :     0.002 s
  Finished back-transformation of eigenvectors
  | Time :     0.000 s

  Obtaining occupation numbers and chemical potential using ELSI.
  | Chemical potential (Fermi level):    -5.32969927eV
  Highest occupied state (VBM) at     -5.48431185 eV
  | Occupation number:      2.00000000

  Lowest unoccupied state (CBM) at    -1.26101775 eV
  | Occupation number:      0.00000000

  Overall HOMO-LUMO gap:      4.22329410 eV.

  Total energy components:
  | Sum of eigenvalues            :        -180.59003847 Ha       -4914.10497363 eV
  | XC energy correction          :         -42.64067604 Ha       -1160.31183106 eV
  | XC potential correction       :          54.82119968 Ha        1491.76074321 eV
  | Free-atom electrostatic energy:        -146.85636086 Ha       -3996.16490162 eV
  | Hartree energy correction     :          -8.23340605 Ha        -224.04237764 eV
  | vdW energy correction         :           0.00000000 Ha           0.00000000 eV
  | Entropy correction            :          -0.00000000 Ha          -0.00000000 eV
  | ---------------------------
  | Total energy                  :        -323.49928173 Ha       -8802.86334074 eV
  | Total energy, T -> 0          :        -323.49928173 Ha       -8802.86334074 eV  <-- do not rely on this value for anything but (periodic) metals
  | Electronic free energy        :        -323.49928173 Ha       -8802.86334074 eV

  Derived energy quantities:
  | Kinetic energy                :         322.61391176 Ha        8778.77119804 eV
  | Electrostatic energy          :        -603.47251746 Ha      -16421.32270772 eV
  | Energy correction for multipole
  | error in Hartree potential    :           0.04222529 Ha           1.14900859 eV
  | Sum of eigenvalues per atom                           :        -378.00807489 eV
  | Total energy (T->0) per atom                          :        -677.14333390 eV  <-- do not rely on this value for anything but (periodic) metals
  | Electronic free energy per atom                       :        -677.14333390 eV

  Self-consistency convergence accuracy:
  | Change of charge density      :  0.1044E-01
  | Change of sum of eigenvalues  : -0.7724E+00 eV
  | Change of total energy        :  0.1551E-02 eV

  End self-consistency iteration #     6       :  max(cpu_time)    wall_clock(cpu1)
  | Time for this iteration                    :        1.209 s           1.217 s
  | Charge density update                      :        0.391 s           0.398 s
  | Density mixing                             :        0.013 s           0.012 s
  | Hartree multipole update                   :        0.009 s           0.009 s
  | Hartree multipole summation                :        0.287 s           0.287 s
  | Integration                                :        0.507 s           0.508 s
  | Solution of K.-S. eqns.                    :        0.002 s           0.002 s
  | Total energy evaluation                    :        0.000 s           0.000 s

  Partial memory accounting:
  | Current value for overall tracked memory usage on task 0  :           0.166 MB
  | Peak value for overall tracked memory usage on task 0     :           0.696 MB after allocating gradient_basis_wave
  | Largest tracked array allocation on task 0 so far         :           0.397 MB  when allocating gradient_basis_wave
  Note:  These values currently only include a subset of arrays which are explicitly tracked.
  The "true" memory usage will be greater.
------------------------------------------------------------

------------------------------------------------------------
          Begin self-consistency iteration #    7

  Date     :  20200815, Time     :  004125.611
------------------------------------------------------------
  Evaluating new KS density.
  Integration grid: deviation in total charge (<rho> - N_e) =   7.105427E-15
  Pulay mixing of updated and previous charge densities.

  Evaluating partitioned Hartree potential by multipole expansion.
  | Analytical far-field extrapolation by fixed multipoles:
  | Hartree multipole sum: apparent total charge =  -0.517105E-03
  Summing up the Hartree potential.
  Time summed over all CPUs for potential: real work        0.286 s, elapsed        0.286 s
  | RMS charge density error from multipole expansion :   0.259450E-01

  Integrating Hamiltonian matrix: batch-based integration.
  Time summed over all CPUs for integration: real work        0.509 s, elapsed        0.509 s

  Updating Kohn-Sham eigenvalues and eigenvectors using ELSI and the ELPA eigensolver.
  Finished Cholesky decomposition
  | Time :     0.000 s
  Finished transformation to standard eigenproblem
  | Time :     0.000 s
  Starting LAPACK eigensolver
  Finished solving standard eigenproblem
  | Time :     0.002 s
  Finished back-transformation of eigenvectors
  | Time :     0.000 s

[...]
  |   Hirshfeld dipole moment :      0.06460688
  |   Hirshfeld second moments:      0.01368396      -0.01690108      -0.01395305
  |                                 -0.01690108      -0.01748867       0.00633067
  |                                 -0.01395305       0.00633067      -0.02416134
  ----------------------------------------------------------------------
  | Atom    12: O
  |   Hirshfeld charge        :     -0.14664648
  |   Free atom volume        :     23.61338643
  |   Hirshfeld volume        :     20.68882675
  |   Hirshfeld dipole vector :      0.00799252       0.01089973       0.03836503
  |   Hirshfeld dipole moment :      0.04067628
  |   Hirshfeld second moments:      0.08041409       0.01854971      -0.02405748
  |                                  0.01854971       0.06914213      -0.01360072
  |                                 -0.02405748      -0.01360072       0.03909529
  ----------------------------------------------------------------------
  | Atom    13: H
  |   Hirshfeld charge        :      0.17527406
  |   Free atom volume        :      9.95071624
  |   Hirshfeld volume        :      6.30056720
  |   Hirshfeld dipole vector :     -0.08281608      -0.05198389       0.06626682
  |   Hirshfeld dipole moment :      0.11811909
  |   Hirshfeld second moments:      0.11753286       0.00171789      -0.01201117
  |                                  0.00171789       0.12369603      -0.00043744
  |                                 -0.01201117      -0.00043744       0.08793000
  ----------------------------------------------------------------------


  Total energy components:
  | Sum of eigenvalues            :        -180.57933408 Ha       -4913.81369234 eV
  | XC energy correction          :         -42.63843045 Ha       -1160.25072539 eV
  | XC potential correction       :          54.81837425 Ha        1491.68385937 eV
  | Free-atom electrostatic energy:        -146.85636086 Ha       -3996.16490162 eV
  | Hartree energy correction     :          -8.24350852 Ha        -224.31728010 eV
  | vdW energy correction         :          -0.00316923 Ha          -0.08623906 eV
  | Entropy correction            :          -0.00000000 Ha          -0.00000000 eV
  | ---------------------------
  | Total energy                  :        -323.50242889 Ha       -8802.94897915 eV
  | Total energy, T -> 0          :        -323.50242889 Ha       -8802.94897915 eV  <-- do not rely on this value for anything but (periodic) metals
  | Electronic free energy        :        -323.50242889 Ha       -8802.94897915 eV

  Derived energy quantities:
  | Kinetic energy                :         322.57502055 Ha        8777.71291436 eV
  | Electrostatic energy          :        -603.43584977 Ha      -16420.32492906 eV
  | Energy correction for multipole
  | error in Hartree potential    :           0.04234506 Ha           1.15226760 eV
  | Sum of eigenvalues per atom                           :        -377.98566864 eV
  | Total energy (T->0) per atom                          :        -677.14992147 eV  <-- do not rely on this value for anything but (periodic) metals
  | Electronic free energy per atom                       :        -677.14992147 eV

  atomic forces [eV/Ang]:
  -----------------------
  atom #    1
   Hellmann-Feynman              :  0.370117E+00 -0.576877E+00  0.371370E+00
   Ionic forces                  :  0.000000E+00  0.000000E+00  0.000000E+00
   Multipole                     :  0.227413E-01  0.256022E+00 -0.219477E+00
   Pulay + GGA                   : -0.959075E+00  0.778233E-01 -0.104744E+01
   Van der Waals                 :  0.269038E-02  0.217618E-02 -0.189210E-02
   ----------------------------------------------------------------
   Total forces(   1)            : -0.563526E+00 -0.240856E+00 -0.897436E+00
  atom #    2
   Hellmann-Feynman              :  0.262372E+00  0.572929E-01 -0.115717E+00
   Ionic forces                  :  0.000000E+00  0.000000E+00  0.000000E+00
   Multipole                     :  0.185954E+00  0.264869E-01 -0.124056E-01
   Pulay + GGA                   : -0.147272E+00  0.270804E-01  0.236204E-01
   Van der Waals                 :  0.391807E-02 -0.341272E-02 -0.584736E-02
   ----------------------------------------------------------------
   Total forces(   2)            :  0.304972E+00  0.107447E+00 -0.110349E+00
  atom #    3
   Hellmann-Feynman              :  0.322007E+01  0.105426E+02 -0.380095E+01
   Ionic forces                  :  0.000000E+00  0.000000E+00  0.000000E+00
   Multipole                     : -0.183884E+00  0.240988E+00 -0.886742E+00
   Pulay + GGA                   : -0.215837E+01 -0.101589E+02  0.535575E+01
   Van der Waals                 :  0.246410E-02 -0.768491E-02 -0.612667E-02
   ----------------------------------------------------------------
   Total forces(   3)            :  0.880275E+00  0.616974E+00  0.661925E+00
  atom #    4
   Hellmann-Feynman              : -0.230907E+00 -0.216471E+00 -0.864064E-01
   Ionic forces                  :  0.000000E+00  0.000000E+00  0.000000E+00
   Multipole                     : -0.496804E-03 -0.777418E-01 -0.830168E-01
   Pulay + GGA                   : -0.822462E-01  0.212932E+00  0.686141E-01
   Van der Waals                 :  0.378895E-03  0.663601E-02 -0.674956E-02
   ----------------------------------------------------------------
   Total forces(   4)            : -0.313271E+00 -0.746453E-01 -0.107559E+00
  atom #    5
   Hellmann-Feynman              : -0.223780E+00 -0.262448E+00 -0.879222E-01
   Ionic forces                  :  0.000000E+00  0.000000E+00  0.000000E+00
   Multipole                     : -0.842379E-01 -0.447323E-01 -0.480336E-01
   Pulay + GGA                   :  0.237274E+00  0.738920E-01 -0.329108E-01
   Van der Waals                 : -0.121608E-02 -0.332585E-03 -0.973819E-02
   ----------------------------------------------------------------
   Total forces(   5)            : -0.719596E-01 -0.233621E+00 -0.178605E+00
  atom #    6
   Hellmann-Feynman              :  0.243253E+00 -0.366984E+00  0.378755E+00
   Ionic forces                  :  0.000000E+00  0.000000E+00  0.000000E+00
   Multipole                     : -0.160217E+00  0.677464E+00  0.255131E+00
   Pulay + GGA                   :  0.958587E-01 -0.741176E+00 -0.533870E+00
   Van der Waals                 : -0.377272E-03  0.651032E-02 -0.776186E-03
   ----------------------------------------------------------------
   Total forces(   6)            :  0.178517E+00 -0.424185E+00  0.992398E-01
  atom #    7
   Hellmann-Feynman              : -0.247354E+00 -0.414964E-01 -0.351448E-01
   Ionic forces                  :  0.000000E+00  0.000000E+00  0.000000E+00
   Multipole                     : -0.117516E+00  0.491815E-01  0.318960E-01
   Pulay + GGA                   :  0.111496E+00  0.268099E-01  0.137331E-01
   Van der Waals                 : -0.233073E-02  0.494783E-02  0.885726E-02
   ----------------------------------------------------------------
   Total forces(   7)            : -0.255705E+00  0.394429E-01  0.193415E-01
  atom #    8
   Hellmann-Feynman              :  0.270472E-01 -0.700570E-01  0.148267E+00
   Ionic forces                  :  0.000000E+00  0.000000E+00  0.000000E+00
   Multipole                     :  0.173234E-01  0.678517E-01  0.126310E+00
   Pulay + GGA                   : -0.404339E-01 -0.377104E-01 -0.929152E-01
   Van der Waals                 : -0.295110E-02  0.112617E-01  0.147901E-02
   ----------------------------------------------------------------
   Total forces(   8)            :  0.985663E-03 -0.286541E-01  0.183141E+00
  atom #    9
   Hellmann-Feynman              :  0.890461E-01 -0.315054E-02 -0.200924E+00
   Ionic forces                  :  0.000000E+00  0.000000E+00  0.000000E+00
   Multipole                     :  0.203973E-01  0.133554E+00 -0.702285E-02
   Pulay + GGA                   : -0.476619E-01 -0.115346E+00  0.175502E-01
   Van der Waals                 : -0.311512E-02  0.204475E-02  0.328769E-02
   ----------------------------------------------------------------
   Total forces(   9)            :  0.586664E-01  0.171025E-01 -0.187109E+00
  atom #   10
   Hellmann-Feynman              :  0.334213E+01  0.571433E+01  0.990008E+00
   Ionic forces                  :  0.000000E+00  0.000000E+00  0.000000E+00
   Multipole                     :  0.818359E-02 -0.142999E+00  0.218504E+00
   Pulay + GGA                   : -0.153562E+01 -0.347178E+01 -0.334728E+00
   Van der Waals                 :  0.389906E-02 -0.159445E-01  0.934161E-02
   ----------------------------------------------------------------
   Total forces(  10)            :  0.181860E+01  0.208361E+01  0.883126E+00
  atom #   11
   Hellmann-Feynman              :  0.414055E+01 -0.232784E+01  0.142229E+02
   Ionic forces                  :  0.000000E+00  0.000000E+00  0.000000E+00
   Multipole                     :  0.695792E-01 -0.546731E+00  0.831163E+00
   Pulay + GGA                   : -0.362761E+01  0.340612E+01 -0.133176E+02
   Van der Waals                 : -0.338204E-02 -0.117125E-01  0.921352E-03
   ----------------------------------------------------------------
   Total forces(  11)            :  0.579142E+00  0.519841E+00  0.173737E+01
  atom #   12
   Hellmann-Feynman              : -0.279224E+01 -0.181579E+01 -0.160775E+02
   Ionic forces                  :  0.000000E+00  0.000000E+00  0.000000E+00
   Multipole                     : -0.688741E+00 -0.113912E+01 -0.763146E+00
   Pulay + GGA                   :  0.101338E+01  0.178405E+01  0.147619E+02
   Van der Waals                 : -0.157902E-02 -0.124404E-02  0.118340E-01
   ----------------------------------------------------------------
   Total forces(  12)            : -0.246918E+01 -0.117210E+01 -0.206685E+01
  atom #   13
   Hellmann-Feynman              : -0.323968E+00 -0.134712E+01  0.155164E+00
   Ionic forces                  :  0.000000E+00  0.000000E+00  0.000000E+00
   Multipole                     : -0.489498E-01 -0.316691E-01  0.720825E-01
   Pulay + GGA                   :  0.219384E+00  0.157810E+00 -0.259082E+00
   Van der Waals                 :  0.160084E-02  0.675450E-02 -0.459085E-02
   ----------------------------------------------------------------
   Total forces(  13)            : -0.151933E+00 -0.121423E+01 -0.364261E-01

  Timings for VdW correction (Tkatchenko-Scheffler 2009 or later):
  | CPU time:        0.091 s, Wall clock time:        0.092 s.
  Removing unitary transformations (pure translations, rotations) from forces on atoms.
  Atomic forces before filtering:
  | Net force on center of mass :  -0.441927E-02 -0.387931E-02 -0.197611E-03 eV/A
  | Net torque on center of mass:  -0.607726E-02  0.471086E-02  0.720074E-03 eV
  Atomic forces after filtering:
  | Net force on center of mass :   0.312211E-15 -0.356812E-15 -0.490617E-15 eV/A
  | Net torque on center of mass:  -0.566451E-15  0.778870E-15 -0.122731E-14 eV

  Energy and forces in a compact form:
  | Total energy uncorrected      :         -0.880294897914576E+04 eV
  | Total energy corrected        :         -0.880294897914576E+04 eV  <-- do not rely on this value for anything but (periodic) metals
  | Electronic free energy        :         -0.880294897914576E+04 eV
  Total atomic forces (unitary forces cleaned) [eV/Ang]:
  |   1         -0.563150280594769E+00         -0.240546727634939E+00         -0.897304334731911E+00
  |   2          0.305347557621792E+00          0.107729295003275E+00         -0.110016263311568E+00
  |   3          0.880911181039769E+00          0.617484849197141E+00          0.661968012562535E+00
  |   4         -0.312560685092684E+00         -0.740776908396627E-01         -0.107530948272082E+00
  |   5         -0.713264545772377E-01         -0.233084371446659E+00         -0.178766802279298E+00
  |   6          0.178790336717674E+00         -0.423962098536067E+00          0.994501324032322E-01
  |   7         -0.255433643716770E+00          0.396911445716966E-01          0.193542599306121E-01
  |   8          0.106915307448652E-02         -0.285787884727014E-01          0.183419364996277E+00
  |   9          0.590549891087116E-01          0.173846871221177E-01         -0.186710832644462E+00
  |  10          0.181880223100827E+01          0.208382445837054E+01          0.883011074228301E+00
  |  11          0.579132033982003E+00          0.519899220364742E+00          0.173726962495998E+01
  |  12         -0.246886771837544E+01         -0.117177578235741E+01         -0.206721338712785E+01
  |  13         -0.151768700195810E+00         -0.121398819534207E+01         -0.369299007137672E-01

  ------------------------------------ 
  Start decomposition of the XC Energy 
  ------------------------------------ 
  X and C from original XC functional choice 
  Hartree-Fock Energy :          0.000000000 Ha              0.000000000 eV
  X Energy            :        -41.038137205 Ha          -1116.704530636 eV
  C Energy            :         -1.600293243 Ha            -43.546194755 eV
  Total XC Energy     :        -42.638430448 Ha          -1160.250725391 eV
  ------------------------------------ 
  LDA X and C from self-consistent density 
  X Energy LDA        :        -37.256751917 Ha          -1013.807801626 eV
  C Energy LDA        :         -3.138548711 Ha            -85.404255736 eV
  ------------------------------------ 
  End decomposition of the XC Energy 
  ------------------------------------ 

------------------------------------------------------------

------------------------------------------------------------------------------
  Final output of selected total energy values:

  The following output summarizes some interesting total energy values
  at the end of a run (AFTER all relaxation, molecular dynamics, etc.).

  | Total energy of the DFT / Hartree-Fock s.c.f. calculation      :          -8802.948979146 eV
  | Final zero-broadening corrected energy (caution - metals only) :          -8802.948979146 eV
  | For reference only, the value of 1 Hartree used in FHI-aims is :             27.211384500 eV

  Before relying on these values, please be sure to understand exactly which
  total energy value is referred to by a given number. Different objects may
  all carry the same name 'total energy'. Definitions:

  Total energy of the DFT / Hartree-Fock s.c.f. calculation:
  | Note that this energy does not include ANY quantities calculated after the
  | s.c.f. cycle, in particular not ANY RPA, MP2, etc. many-body perturbation terms.

  Final zero-broadening corrected energy:
  | For metallic systems only, a broadening of the occupation numbers at the Fermi
  | level can be extrapolated back to zero broadening by an electron-gas inspired
  | formula. For all systems that are not real metals, this value can be
  | meaningless and should be avoided.

------------------------------------------------------------------------------
  Methods described in the following list of references were used in this FHI-aims run.
  If you publish the results, please make sure to cite these reference if they apply.
  FHI-aims is an academic code, and for our developers (often, Ph.D. students
  and postdocs), scientific credit in the community is essential.
  Thank you for helping us!

  For any use of FHI-aims, please cite:

    Volker Blum, Ralf Gehrke, Felix Hanke, Paula Havu, Ville Havu,
    Xinguo Ren, Karsten Reuter, and Matthias Scheffler
    'Ab initio molecular simulations with numeric atom-centered orbitals'
    Computer Physics Communications 180, 2175-2196 (2009)
    http://dx.doi.org/10.1016/j.cpc.2009.06.022


  The scalable eigensolver library ELPA was used in your run.
  ELPA is essential especially for large systems on hundreds or thousands of CPUs.
  For ELPA, please cite:

    Andreas Marek, Volker Blum, Rainer Johanni, Ville Havu, Bruno Lang,
    Thomas Auckenthaler, Alexander Heinecke, Hans-Joachim Bungartz, and Hermann Lederer,
    'The ELPA Library - Scalable Parallel Eigenvalue Solutions
    for Electronic Structure Theory and Computational Science'
    The Journal of Physics: Condensed Matter 26, 213201 (2014).
    http://dx.doi.org/10.1088/0953-8984/26/21/213201


  The ELSI infrastructure was used in your run to solve the Kohn-Sham electronic structure.
  Please check out http://elsi-interchange.org to learn more.
  If scalability is important for your project, please acknowledge ELSI by citing:

    V. W-z. Yu, F. Corsetti, A. Garcia, W. P. Huhn, M. Jacquelin, W. Jia,
    B. Lange, L. Lin, J. Lu, W. Mi, A. Seifitokaldani, A. Vazquez-Mayagoitia,
    C. Yang, H. Yang, and V. Blum
    'ELSI: A unified software interface for Kohn-Sham electronic structure solvers'
    Computer Physics Communications 222, 267-285 (2018).
    http://dx.doi.org/10.1016/j.cpc.2017.09.007


  For the real-space grid partitioning and parallelization used in this calculation, please cite:

    Ville Havu, Volker Blum, Paula Havu, and Matthias Scheffler,
    'Efficient O(N) integration for all-electron electronic structure calculation'
    'using numerically tabulated basis functions'
    Journal of Computational Physics 228, 8367-8379 (2009).
    http://dx.doi.org/10.1016/j.jcp.2009.08.008

  Of course, there are many other important community references, e.g., those cited in the
  above references. Our list is limited to references that describe implementations in the
  FHI-aims code. The reason is purely practical (length of this list) - please credit others as well.

------------------------------------------------------------
          Leaving FHI-aims.
          Date     :  20200815, Time     :  004139.078

          Computational steps:
          | Number of self-consistency cycles          :           15
          | Number of SCF (re)initializations          :            1

          Detailed time accounting                     :  max(cpu_time)    wall_clock(cpu1)
          | Total time                                 :       21.901 s          22.368 s
          | Preparation time                           :        0.151 s           0.154 s
          | Boundary condition initalization           :        0.000 s           0.000 s
          | Grid partitioning                          :        0.113 s           0.113 s
          | Preloading free-atom quantities on grid    :        0.002 s           0.003 s
          | Free-atom superposition energy             :        0.086 s           0.086 s
          | Total time for integrations                :        8.311 s           8.325 s
          | Total time for solution of K.-S. equations :        0.035 s           0.037 s
          | Total time for density & force components  :        6.878 s           6.949 s
          | Total time for mixing                      :        0.207 s           0.207 s
          | Total time for Hartree multipole update    :        0.132 s           0.136 s
          | Total time for Hartree multipole sum       :        5.579 s           5.901 s
          | Total time for total energy evaluation     :        0.003 s           0.002 s
          | Total time for vdW correction              :        0.091 s           0.092 s

          Partial memory accounting:
          | Residual value for overall tracked memory usage across tasks :           0.000 MB (should be 0.000 MB)
          | Peak values for overall tracked memory usage (after allocating hessian_basis_wave):
          |   Minimum:        1.622 MB (on task 1)
          |   Maximum:        1.622 MB (on task 1)
          |   Average:        1.622 MB
          | Largest tracked array allocation (hessian_basis_wave):
          |   Minimum:        0.794 MB (on task 1)
          |   Maximum:        0.794 MB (on task 1)
          |   Average:        0.794 MB
          Note:  These values currently only include a subset of arrays which are explicitly tracked.
          The "true" memory usage will be greater.

          Have a nice day.
------------------------------------------------------------
