  MPI-parallelism will be employed.
------------------------------------------------------------
          Invoking FHI-aims ...
          Version 171221_1
          Compiled on 2019/09/09 at 14:39:39 on host puhti-login2.bullx.

          When using FHI-aims, please cite the following reference:

          Volker Blum, Ralf Gehrke, Felix Hanke, Paula Havu,
          Ville Havu, Xinguo Ren, Karsten Reuter, and Matthias Scheffler,
          'Ab Initio Molecular Simulations with Numeric Atom-Centered Orbitals',
          Computer Physics Communications 180, 2175-2196 (2009)

          For any questions about FHI-aims, please visit the aimsclub website
          with its forums and wiki. Contributions to both the forums and the
          wiki are warmly encouraged - they are for you, and everyone is welcome there.

------------------------------------------------------------



  Date     :  20200710, Time     :  151528.957
  Time zero on CPU 1             :   0.113570000000000E-01  s.
  Internal wall clock time zero  :           363626128.957  s.

  FHI-aims created a unique identifier for this run for later identification
  aims_uuid : 5A333266-6D61-47E4-A87F-C78A4E68BD44

  Using        1 parallel tasks.
  Task        0 on host r18c43.bullx reporting.

  Performing system and environment tests:
  | Environment variable OMP_NUM_THREADS correctly set to 1.
  | Stacksize not measured: no C compiler
  | Checking for scalapack...
  | Testing pdtran()...
  | All pdtran() tests passed.

  Obtaining array dimensions for all initial allocations:
  
  -----------------------------------------------------------------------
  Parsing control.in (first pass over file, find array dimensions only).
  The contents of control.in will be repeated verbatim below
  unless switched off by setting 'verbatim_writeout .false.' .
  in the first line of control.in .
  -----------------------------------------------------------------------
  
  #########################################################################################
  #
  #  Volker Blum, FHI 2009 : Test run input file control.in for simple H2O
  #
  #########################################################################################
  #
  #  Physical model
  #
    xc                 pbe
    vdw_correction_hirshfeld
    spin               none
    relativistic       none
    charge             0.
  #
  #  SCF convergence
  #
    occupation_type    gaussian 0.01
    mixer              pulay
      n_max_pulay        10
      charge_mix_param   0.2
    sc_accuracy_rho    1E-5
    sc_accuracy_eev    1E-3
    sc_accuracy_etot   1E-6
    sc_accuracy_forces 1E-4
    sc_iter_limit      100
  #
  #  Relaxation
  #
  #  relax_geometry   bfgs 1.e-3
  #
  ################################################################################
  #
  #  FHI-aims code project
  #  VB, Fritz-Haber Institut, 2009
  #
  #  Suggested "light" defaults for H atom (to be pasted into control.in file)
  #  Be sure to double-check any results obtained with these settings for post-processing,
  #  e.g., with the "tight" defaults and larger basis sets.
  #
  ################################################################################
    species        H
  #     global species definitions
      nucleus             1
      mass                1.00794
  #
      l_hartree           4
  #
      cut_pot             3.5  1.5  1.0
      basis_dep_cutoff    1e-4
  #
      radial_base         24 5.0
      radial_multiplier   1
      angular_grids       specified
        division   0.2421   50
        division   0.3822  110
        division   0.4799  194
        division   0.5341  302
  #      division   0.5626  434
  #      division   0.5922  590
  #      division   0.6542  770
  #      division   0.6868 1202
  #      outer_grid  770
        outer_grid  302
  ################################################################################
  #
  #  Definition of "minimal" basis
  #
  ################################################################################
  #     valence basis states
      valence      1  s   1.
  #     ion occupancy
      ion_occ      1  s   0.5
  ################################################################################
  #
  #  Suggested additional basis functions. For production calculations,
  #  uncomment them one after another (the most important basis functions are
  #  listed first).
  #
  #  Basis constructed for dimers: 0.5 A, 0.7 A, 1.0 A, 1.5 A, 2.5 A
  #
  ################################################################################
  #  "First tier" - improvements: -1014.90 meV to -62.69 meV
       hydro 2 s 2.1
       hydro 2 p 3.5
  #  "Second tier" - improvements: -12.89 meV to -1.83 meV
  #     hydro 1 s 0.85
  #     hydro 2 p 3.7
  #     hydro 2 s 1.2
  #     hydro 3 d 7
  #  "Third tier" - improvements: -0.25 meV to -0.12 meV
  #     hydro 4 f 11.2
  #     hydro 3 p 4.8
  #     hydro 4 d 9
  #     hydro 3 s 3.2
  ################################################################################
  #
  #  FHI-aims code project
  #  VB, Fritz-Haber Institut, 2009
  #
  #  Suggested "light" defaults for C atom (to be pasted into control.in file)
  #  Be sure to double-check any results obtained with these settings for post-processing,
  #  e.g., with the "tight" defaults and larger basis sets.
  #
  ################################################################################
    species        C
  #     global species definitions
      nucleus             6
      mass                12.0107
  #
      l_hartree           4
  #
      cut_pot             3.5  1.5  1.0
      basis_dep_cutoff    1e-4
  #
      radial_base         34 5.0
      radial_multiplier   1
      angular_grids specified
        division   0.3326   50
        division   0.5710  110
        division   0.7727  194
        division   0.8772  302
  #      division   0.9334  434
  #      division   0.9625  590
  #      division   0.9924  770
  #      division   1.0230  974
  #      division   1.4589 1202
  #     outer_grid  974
       outer_grid 302
  ################################################################################
  #
  #  Definition of "minimal" basis
  #
  ################################################################################
  #     valence basis states
      valence      2  s   2.
      valence      2  p   2.
  #     ion occupancy
      ion_occ      2  s   1.
      ion_occ      2  p   1.
  ################################################################################
  #
  #  Suggested additional basis functions. For production calculations,
  #  uncomment them one after another (the most important basis functions are
  #  listed first).
  #
  #  Constructed for dimers: 1.0 A, 1.25 A, 1.5 A, 2.0 A, 3.0 A
  #
  ################################################################################
  #  "First tier" - improvements: -1214.57 meV to -155.61 meV
       hydro 2 p 1.7
       hydro 3 d 6
       hydro 2 s 4.9
  #  "Second tier" - improvements: -67.75 meV to -5.23 meV
  #     hydro 4 f 9.8
  #     hydro 3 p 5.2
  #     hydro 3 s 4.3
  #     hydro 5 g 14.4
  #     hydro 3 d 6.2
  #  "Third tier" - improvements: -2.43 meV to -0.60 meV
  #     hydro 2 p 5.6
  #     hydro 2 s 1.4
  #     hydro 3 d 4.9
  #     hydro 4 f 11.2
  #  "Fourth tier" - improvements: -0.39 meV to -0.18 meV
  #     hydro 2 p 2.1
  #     hydro 5 g 16.4
  #     hydro 4 d 13.2
  #     hydro 3 s 13.6
  #     hydro 4 f 17.6
  #  Further basis functions - improvements: -0.08 meV and below
  #     hydro 3 s 2
  #     hydro 3 p 6
  #     hydro 4 d 20
  ################################################################################
  #
  #  FHI-aims code project
  #  VB, Fritz-Haber Institut, 2009
  #
  #  Suggested "light" defaults for N atom (to be pasted into control.in file)
  #  Be sure to double-check any results obtained with these settings for post-processing,
  #  e.g., with the "tight" defaults and larger basis sets.
  #
  ################################################################################
    species        N
  #     global species definitions
      nucleus             7
      mass                14.0067
  #
      l_hartree           4
  #
      cut_pot             3.5  1.5  1.0
      basis_dep_cutoff    1e-4
  #
      radial_base         35 5.0
      radial_multiplier   1
      angular_grids       specified
        division   0.2599   50
        division   0.4601  110
        division   0.5885  194
        division   0.6503  302
  #      division   0.6939  434
  #      division   0.7396  590
  #      division   0.7632  770
  #      division   0.8122  974
  #      division   1.1604 1202
  #      outer_grid  974
        outer_grid  302
  ################################################################################
  #
  #  Definition of "minimal" basis
  #
  ################################################################################
  #     valence basis states
      valence      2  s   2.
      valence      2  p   3.
  #     ion occupancy
      ion_occ      2  s   1.
      ion_occ      2  p   2.
  ################################################################################
  #
  #  Suggested additional basis functions. For production calculations,
  #  uncomment them one after another (the most important basis functions are
  #  listed first).
  #
  #  Constructed for dimers: 1.0 A, 1.1 A, 1.5 A, 2.0 A, 3.0 A
  #
  ################################################################################
  #  "First tier" - improvements: -1193.42 meV to -220.60 meV
       hydro 2 p 1.8
       hydro 3 d 6.8
       hydro 3 s 5.8
  #  "Second tier" - improvements: -80.21 meV to -6.86 meV
  #     hydro 4 f 10.8
  #     hydro 3 p 5.8
  #     hydro 1 s 0.8
  #     hydro 5 g 16
  #     hydro 3 d 4.9
  #  "Third tier" - improvements: -4.29 meV to -0.53 meV
  #     hydro 3 s 16
  #     ionic 2 p auto
  #     hydro 3 d 6.6
  #     hydro 4 f 11.6
  #  "Fourth tier" - improvements: -0.75 meV to -0.25 meV
  #     hydro 2 p 4.5
  #     hydro 2 s 2.4
  #     hydro 5 g 14.4
  #     hydro 4 d 14.4
  #     hydro 4 f 16.8
  # Further basis functions - -0.21 meV and below
  #     hydro 3 p 14.8
  #     hydro 3 s 4.4
  #     hydro 3 d 19.6
  #     hydro 5 g 12.8
  ################################################################################
  #
  #  FHI-aims code project
  #  VB, Fritz-Haber Institut, 2009
  #
  #  Suggested "light" defaults for O atom (to be pasted into control.in file)
  #  Be sure to double-check any results obtained with these settings for post-processing,
  #  e.g., with the "tight" defaults and larger basis sets.
  #
  ################################################################################
    species        O
  #     global species definitions
      nucleus             8
      mass                15.9994
  #
      l_hartree           4
  #
      cut_pot             3.5  1.5  1.0
      basis_dep_cutoff    1e-4
  #
      radial_base         36 5.0
      radial_multiplier   1
       angular_grids specified
        division   0.2659   50
        division   0.4451  110
        division   0.6052  194
        division   0.7543  302
  #      division   0.8014  434
  #      division   0.8507  590
  #      division   0.8762  770
  #      division   0.9023  974
  #      division   1.2339 1202
  #      outer_grid 974
        outer_grid 302
  ################################################################################
  #
  #  Definition of "minimal" basis
  #
  ################################################################################
  #     valence basis states
      valence      2  s   2.
      valence      2  p   4.
  #     ion occupancy
      ion_occ      2  s   1.
      ion_occ      2  p   3.
  ################################################################################
  #
  #  Suggested additional basis functions. For production calculations,
  #  uncomment them one after another (the most important basis functions are
  #  listed first).
  #
  #  Constructed for dimers: 1.0 A, 1.208 A, 1.5 A, 2.0 A, 3.0 A
  #
  ################################################################################
  #  "First tier" - improvements: -699.05 meV to -159.38 meV
       hydro 2 p 1.8
       hydro 3 d 7.6
       hydro 3 s 6.4
  #  "Second tier" - improvements: -49.91 meV to -5.39 meV
  #     hydro 4 f 11.6
  #     hydro 3 p 6.2
  #     hydro 3 d 5.6
  #     hydro 5 g 17.6
  #     hydro 1 s 0.75
  #  "Third tier" - improvements: -2.83 meV to -0.50 meV
  #     ionic 2 p auto
  #     hydro 4 f 10.8
  #     hydro 4 d 4.7
  #     hydro 2 s 6.8
  #  "Fourth tier" - improvements: -0.40 meV to -0.12 meV
  #     hydro 3 p 5
  #     hydro 3 s 3.3
  #     hydro 5 g 15.6
  #     hydro 4 f 17.6
  #     hydro 4 d 14
  # Further basis functions - -0.08 meV and below
  #     hydro 3 s 2.1
  #     hydro 4 d 11.6
  #     hydro 3 p 16
  #     hydro 2 s 17.2
  
  -----------------------------------------------------------------------
  Completed first pass over input file control.in .
  -----------------------------------------------------------------------
  
  
  -----------------------------------------------------------------------
  Parsing geometry.in (first pass over file, find array dimensions only).
  The contents of geometry.in will be repeated verbatim below
  unless switched off by setting 'verbatim_writeout .false.' .
  in the first line of geometry.in .
  -----------------------------------------------------------------------
  
  atom  0.00000 0.00000 0.00000 C
  atom  1.09300 0.00000 0.00000 H
  atom  -0.47961 0.00000 -1.41207 N
  atom  -1.36205 -0.51092 -1.45779 H
  atom  -0.61498 0.96346 -1.71129 H
  atom  -0.49584 1.26211 0.72868 C
  atom  -1.58789 1.28919 0.74431 H
  atom  -0.13407 1.27425 1.75947 H
  atom  -0.13407 2.16087 0.22380 H
  atom  -0.39425 -1.28861 0.74398 C
  atom  -0.10189 -1.56493 1.88303 O
  atom  -1.10210 -2.13717 0.06896 O
  atom  -1.87179 -1.57050 -0.10837 H
  
  -----------------------------------------------------------------------
  Completed first pass over input file geometry.in .
  -----------------------------------------------------------------------
  

  Basic array size parameters:
  | Number of species                 :        4
  | Number of atoms                   :       13
  | Max. basis fn. angular momentum   :        2
  | Max. atomic/ionic basis occupied n:        2
  | Max. number of basis fn. types    :        2
  | Max. radial fns per species/type  :        3
  | Max. logarithmic grid size        :     1301
  | Max. radial integration grid size :       36
  | Max. angular integration grid size:      302
  | Max. angular grid division number :        8
  | Radial grid for Hartree potential :     1301
  | Number of spin channels           :        1

------------------------------------------------------------
          Reading file control.in.
------------------------------------------------------------
  XC: Using PBE gradient-corrected functionals.
  Spin treatment: No spin polarisation.
  Non-relativistic treatment of kinetic energy.
  Charge =   0.000000E+00: Neutral system requested explicitly.
  Occupation type: Gaussian broadening, width =   0.100000E-01 eV.
  Using pulay charge density mixing.
  Pulay mixing - number of memorized iterations:   10
  Charge density mixing - mixing parameter:     0.2000
  Convergence accuracy of self-consistent charge density:  0.1000E-04
  Convergence accuracy of sum of eigenvalues:  0.1000E-02
  Convergence accuracy of total energy:  0.1000E-05
  Convergence accuracy of forces:  0.1000E-03
  Maximum number of s.-c. iterations  :   100
 
  Reading configuration options for species H                   .
  | Found nuclear charge :   1.0000
  | Found atomic mass :    1.00794000000000      amu
  | Found l_max for Hartree potential  :   4
  | Found cutoff potl. onset [A], width [A], scale factor :    3.50000    1.50000    1.00000
  | Threshold for basis-dependent cutoff potential is   0.100000E-03
  | Found data for basic radial integration grid :    24 points, outermost radius =    5.000 A
  | Found multiplier for basic radial grid :   1
  | Found angular grid specification: user-specified.
  | Specified grid contains     5 separate shells.
  | Check grid settings after all constraints further below.
  | Found free-atom valence shell :  1 s   1.000
  | No ionic wave fns used. Skipping ion_occ.
  | Found hydrogenic basis function :  2 s   2.100
  | Found hydrogenic basis function :  2 p   3.500
  Species H                   : Missing cutoff potential type.
  Defaulting to exp(1/x)/(1-x)^2 type cutoff potential.
  Species H : No 'logarithmic' tag. Using default grid for free atom:
  | Default logarithmic grid data [bohr] : 0.1000E-03 0.1000E+03 0.1012E+01
  Species H : On-site basis accuracy parameter (for Gram-Schmidt orthonormalisation) not specified.
  Using default value basis_acc =  0.1000000E-03.
  Species H                   : Using default innermost maximum threshold i_radial=  2 for radial functions.
  Species H                   : Default cutoff onset for free atom density etc. : 0.35000000E+01 AA.
  Species H                   : Basic radial grid will be enhanced according to radial_multiplier =   1, to contain    24 grid points.
 
  Reading configuration options for species C                   .
  | Found nuclear charge :   6.0000
  | Found atomic mass :    12.0107000000000      amu
  | Found l_max for Hartree potential  :   4
  | Found cutoff potl. onset [A], width [A], scale factor :    3.50000    1.50000    1.00000
  | Threshold for basis-dependent cutoff potential is   0.100000E-03
  | Found data for basic radial integration grid :    34 points, outermost radius =    5.000 A
  | Found multiplier for basic radial grid :   1
  | Found angular grid specification: user-specified.
  | Specified grid contains     5 separate shells.
  | Check grid settings after all constraints further below.
  | Found free-atom valence shell :  2 s   2.000
  | Found free-atom valence shell :  2 p   2.000
  | No ionic wave fns used. Skipping ion_occ.
  | No ionic wave fns used. Skipping ion_occ.
  | Found hydrogenic basis function :  2 p   1.700
  | Found hydrogenic basis function :  3 d   6.000
  | Found hydrogenic basis function :  2 s   4.900
  Species C                   : Missing cutoff potential type.
  Defaulting to exp(1/x)/(1-x)^2 type cutoff potential.
  Species C : No 'logarithmic' tag. Using default grid for free atom:
  | Default logarithmic grid data [bohr] : 0.1000E-03 0.1000E+03 0.1012E+01
  Species C : On-site basis accuracy parameter (for Gram-Schmidt orthonormalisation) not specified.
  Using default value basis_acc =  0.1000000E-03.
  Species C                   : Using default innermost maximum threshold i_radial=  2 for radial functions.
  Species C                   : Default cutoff onset for free atom density etc. : 0.35000000E+01 AA.
  Species C                   : Basic radial grid will be enhanced according to radial_multiplier =   1, to contain    34 grid points.
 
  Reading configuration options for species N                   .
  | Found nuclear charge :   7.0000
  | Found atomic mass :    14.0067000000000      amu
  | Found l_max for Hartree potential  :   4
  | Found cutoff potl. onset [A], width [A], scale factor :    3.50000    1.50000    1.00000
  | Threshold for basis-dependent cutoff potential is   0.100000E-03
  | Found data for basic radial integration grid :    35 points, outermost radius =    5.000 A
  | Found multiplier for basic radial grid :   1
  | Found angular grid specification: user-specified.
  | Specified grid contains     5 separate shells.
  | Check grid settings after all constraints further below.
  | Found free-atom valence shell :  2 s   2.000
  | Found free-atom valence shell :  2 p   3.000
  | No ionic wave fns used. Skipping ion_occ.
  | No ionic wave fns used. Skipping ion_occ.
  | Found hydrogenic basis function :  2 p   1.800
  | Found hydrogenic basis function :  3 d   6.800
  | Found hydrogenic basis function :  3 s   5.800
  Species N                   : Missing cutoff potential type.
  Defaulting to exp(1/x)/(1-x)^2 type cutoff potential.
  Species N : No 'logarithmic' tag. Using default grid for free atom:
  | Default logarithmic grid data [bohr] : 0.1000E-03 0.1000E+03 0.1012E+01
  Species N : On-site basis accuracy parameter (for Gram-Schmidt orthonormalisation) not specified.
  Using default value basis_acc =  0.1000000E-03.
  Species N                   : Using default innermost maximum threshold i_radial=  2 for radial functions.
  Species N                   : Default cutoff onset for free atom density etc. : 0.35000000E+01 AA.
  Species N                   : Basic radial grid will be enhanced according to radial_multiplier =   1, to contain    35 grid points.
 
  Reading configuration options for species O                   .
  | Found nuclear charge :   8.0000
  | Found atomic mass :    15.9994000000000      amu
  | Found l_max for Hartree potential  :   4
  | Found cutoff potl. onset [A], width [A], scale factor :    3.50000    1.50000    1.00000
  | Threshold for basis-dependent cutoff potential is   0.100000E-03
  | Found data for basic radial integration grid :    36 points, outermost radius =    5.000 A
  | Found multiplier for basic radial grid :   1
  | Found angular grid specification: user-specified.
  | Specified grid contains     5 separate shells.
  | Check grid settings after all constraints further below.
  | Found free-atom valence shell :  2 s   2.000
  | Found free-atom valence shell :  2 p   4.000
  | No ionic wave fns used. Skipping ion_occ.
  | No ionic wave fns used. Skipping ion_occ.
  | Found hydrogenic basis function :  2 p   1.800
  | Found hydrogenic basis function :  3 d   7.600
  | Found hydrogenic basis function :  3 s   6.400
  Species O                   : Missing cutoff potential type.
  Defaulting to exp(1/x)/(1-x)^2 type cutoff potential.
  Species O : No 'logarithmic' tag. Using default grid for free atom:
  | Default logarithmic grid data [bohr] : 0.1000E-03 0.1000E+03 0.1012E+01
  Species O : On-site basis accuracy parameter (for Gram-Schmidt orthonormalisation) not specified.
  Using default value basis_acc =  0.1000000E-03.
  Species O                   : Using default innermost maximum threshold i_radial=  2 for radial functions.
  Species O                   : Default cutoff onset for free atom density etc. : 0.35000000E+01 AA.
  Species O                   : Basic radial grid will be enhanced according to radial_multiplier =   1, to contain    36 grid points.
 
  Finished reading input file 'control.in'. Consistency checks are next.
 
  MPI_IN_PLACE appears to work with this MPI implementation.
  | Keeping use_mpi_in_place .true. (see manual).
  Target number of points in a grid batch is not set. Defaulting to  100
  Method for grid partitioning is not set. Defaulting to parallel hash+maxmin partitioning.
  Batch size limit is not set. Defaulting to    200
  By default, will store active basis functions for each batch.
  If in need of memory, prune_basis_once .false. can be used to disable this option.
  communication_type for Hartree potential was not specified.
  Defaulting to calc_hartree .
  Pulay mixer: Number of initial linear mixing iterations not set.
  Defaulting to    0 iterations.
  Work space size for distributed Hartree potential not set.
  Defaulting to   0.200000E+03 MB.
  Algorithm-dependent basis array size parameters:
  | n_max_pulay                         :       10
  Presetting      1001 iterations before the initial mixing cycle
  is restarted anyway using the sc_init_iter criterion / keyword.
  Presetting a factor      1.000 between actual scf density residual
  and density convergence criterion sc_accuracy_rho below which sc_init_iter
  takes no effect.
  Geometry relaxation not requested: no relaxation will be performed.
  Handling of forces: Unphysical translation and rotation will be removed from forces.
  No accuracy limit for integral partition fn. given. Defaulting to  0.1000E-14.
  No threshold value for u(r) in integrations given. Defaulting to  0.1000E-05.
  No accuracy for occupation numbers given. Defaulting to  0.1000E-12.
  No threshold value for occupation numbers given. Defaulting to  0.0000E+00.
  No accuracy for fermi level given. Defaulting to  0.1000E-19.
  Maximum # of iterations to find E_F not set. Defaulting to  200.
  Preferred method for the eigenvalue solver ('KS_method') not specified in 'control.in'.
  Defaulting to serial version, 'lapack_fast'.
  Will not use alltoall communication since running on < 1024 CPUs.
  Threshold for basis singularities not set.
  Default threshold for basis singularities:  0.1000E-04
  partition_type (choice of integration weights) for integrals was not specified.
  | Using a version of the partition function of Stratmann and coworkers ('stratmann_smoother').
  | At each grid point, the set of atoms used to build the partition table is smoothly restricted to
  | only those atoms whose free-atom density would be non-zero at that grid point.
  Partitioning for Hartree potential was not defined. Using partition_type for integrals.
  | Adjusted default value of keyword multip_moments_threshold to:       0.10000000E-11
  | This value may affect high angular momentum components of the Hartree potential in periodic systems.
  No q(lm)/r^(l+1) cutoff set for long-range Hartree potential.
  | Using default value of  0.100000E-09 .
  | Verify using the multipole_threshold keyword.
  Defaulting to new monopole extrapolation.
  Density update method: automatic selection selected.
------------------------------------------------------------


------------------------------------------------------------
          Reading geometry description geometry.in.
------------------------------------------------------------
  Input structure read successfully.
  The structure contains       13 atoms,  and a total of         48.000 electrons.

  Input geometry:
  | No unit cell requested.
  | Atomic structure:
  |       Atom                x [A]            y [A]            z [A]
  |    1: Species C             0.00000000        0.00000000        0.00000000
  |    2: Species H             1.09300000        0.00000000        0.00000000
  |    3: Species N            -0.47961000        0.00000000       -1.41207000
  |    4: Species H            -1.36205000       -0.51092000       -1.45779000
  |    5: Species H            -0.61498000        0.96346000       -1.71129000
  |    6: Species C            -0.49584000        1.26211000        0.72868000
  |    7: Species H            -1.58789000        1.28919000        0.74431000
  |    8: Species H            -0.13407000        1.27425000        1.75947000
  |    9: Species H            -0.13407000        2.16087000        0.22380000
  |   10: Species C            -0.39425000       -1.28861000        0.74398000
  |   11: Species O            -0.10189000       -1.56493000        1.88303000
  |   12: Species O            -1.10210000       -2.13717000        0.06896000
  |   13: Species H            -1.87179000       -1.57050000       -0.10837000
  |

  | The smallest distance between any two atoms is         0.97210263 AA.
  |
  | The first atom of this pair is atom number                     12 .
  | The second atom of this pair is atom number                    13 .

  Number of empty states per atom not set in control.in - providing a guess from actual geometry.
  | Total number of empty states used during s.c.f. cycle:       29
  If you use a very high smearing, use empty_states (per atom!) in control.in to increase this value.

  Structure-dependent array size parameters: 
  | Maximum number of distinct radial functions  :       21
  | Maximum number of basis functions            :      119
  | Number of Kohn-Sham states (occupied + empty):       53
------------------------------------------------------------

------------------------------------------------------------
          Preparing all fixed parts of the calculation.
------------------------------------------------------------
  Determining machine precision:
    2.225073858507201E-308
  Setting up grids for atomic and cluster calculations.

  Creating wave function, potential, and density for free atoms.

  Species: H

  List of occupied orbitals and eigenvalues:
    n    l              occ      energy [Ha]    energy [eV]
    1    0           1.0000        -0.237589        -6.4651


  Species: C

  List of occupied orbitals and eigenvalues:
    n    l              occ      energy [Ha]    energy [eV]
    1    0           2.0000       -10.038835      -273.1706
    2    0           2.0000        -0.502696       -13.6791
    2    1           2.0000        -0.191971        -5.2238


  Species: N

  List of occupied orbitals and eigenvalues:
    n    l              occ      energy [Ha]    energy [eV]
    1    0           2.0000       -14.128000      -384.4424
    2    0           2.0000        -0.681077       -18.5330
    2    1           3.0000        -0.259788        -7.0692


  Species: O

  List of occupied orbitals and eigenvalues:
    n    l              occ      energy [Ha]    energy [eV]
    1    0           2.0000       -18.898188      -514.2459
    2    0           2.0000        -0.878505       -23.9053
    2    1           4.0000        -0.331779        -9.0282

  Creating fixed part of basis set: Ionic, confined, hydrogenic.
 
  H                    hydrogenic:
 
  List of hydrogenic basis orbitals: 
    n    l      effective z      eigenvalue [eV]  inner max. [A]     outer max. [A]     outer radius [A]   
    2    0         2.100000       -14.9728           0.193243           1.317208           4.583499
    2    1         3.500000       -41.6669           0.602369           0.602369           3.723403
 
 
  C                    hydrogenic:
 
  List of hydrogenic basis orbitals: 
    n    l      effective z      eigenvalue [eV]  inner max. [A]     outer max. [A]     outer radius [A]   
    2    1         1.700000        -9.7616           1.230570           1.230570           4.607917
    3    2         6.000000       -54.4224           0.792453           0.792453           3.883070
    2    0         4.900000       -81.6679           0.082559           0.562749           3.078220
 
 
  N                    hydrogenic:
 
  List of hydrogenic basis orbitals: 
    n    l      effective z      eigenvalue [eV]  inner max. [A]     outer max. [A]     outer radius [A]   
    2    1         1.800000       -10.9749           1.177451           1.177451           4.573712
    3    2         6.800000       -69.9026           0.704619           0.704619           3.538137
    3    0         5.800000       -50.8545           0.067388           1.191934           4.250239
 
 
  O                    hydrogenic:
 
  List of hydrogenic basis orbitals: 
    n    l      effective z      eigenvalue [eV]  inner max. [A]     outer max. [A]     outer radius [A]   
    2    1         1.800000       -10.9749           1.164242           1.164242           4.578029
    3    2         7.600000       -87.3180           0.624125           0.624125           3.251020
    3    0         6.400000       -61.9207           0.061167           1.081902           4.001998
 

  Adding cutoff potential to free-atom effective potential.
  Creating atomic-like basis functions for current effective potential.

  Species H                   :

  List of atomic basis orbitals and eigenvalues:
    n    l      energy [Ha]    energy [eV]    outer radius [A]
    1    0        -0.237589        -6.4651       4.527807


  Species C                   :

  List of atomic basis orbitals and eigenvalues:
    n    l      energy [Ha]    energy [eV]    outer radius [A]
    1    0       -10.038835      -273.1706       1.934409
    2    0        -0.502696       -13.6791       4.496620
    2    1        -0.191971        -5.2238       4.551928


  Species N                   :

  List of atomic basis orbitals and eigenvalues:
    n    l      energy [Ha]    energy [eV]    outer radius [A]
    1    0       -14.128000      -384.4424       1.637919
    2    0        -0.681077       -18.5330       4.463241
    2    1        -0.259788        -7.0692       4.518138


  Species O                   :

  List of atomic basis orbitals and eigenvalues:
    n    l      energy [Ha]    energy [eV]    outer radius [A]
    1    0       -18.898188      -514.2459       1.415765
    2    0        -0.878505       -23.9053       4.413171
    2    1        -0.331779        -9.0282       4.522403

  Assembling full basis from fixed parts.
  | Species H :   atomic orbital   1 s accepted.
  | Species H :    hydro orbital   2 s accepted.
  | Species H :    hydro orbital   2 p accepted.
  | Species C :   atomic orbital   1 s accepted.
  | Species C :    hydro orbital   2 s accepted.
  | Species C :   atomic orbital   2 s accepted.
  | Species C :   atomic orbital   2 p accepted.
  | Species C :    hydro orbital   2 p accepted.
  | Species C :    hydro orbital   3 d accepted.
  | Species N :   atomic orbital   1 s accepted.
  | Species N :    hydro orbital   3 s accepted.
  | Species N :   atomic orbital   2 s accepted.
  | Species N :   atomic orbital   2 p accepted.
  | Species N :    hydro orbital   2 p accepted.
  | Species N :    hydro orbital   3 d accepted.
  | Species O :   atomic orbital   1 s accepted.
  | Species O :    hydro orbital   3 s accepted.
  | Species O :   atomic orbital   2 s accepted.
  | Species O :   atomic orbital   2 p accepted.
  | Species O :    hydro orbital   2 p accepted.
  | Species O :    hydro orbital   3 d accepted.
 
  Basis size parameters after reduction:
  | Total number of radial functions:       21
  | Total number of basis functions :      119
 
  Per-task memory consumption for arrays in subroutine allocate_ext:
  |           5.250512MB.
  Testing on-site integration grid accuracy.
  |  Species  Function  <phi|h_atom|phi> (log., in eV)  <phi|h_atom|phi> (rad., in eV)
           1        1                 -6.4663192853                 -6.4651273558
           1        2                 13.7111246313                 13.7170609718
           1        3                 25.2673269279                 25.2674696378
           2        4               -273.1705927641               -273.1705631568
           2        5                -10.7109323383                -10.7107120029
           2        6                 17.4381822266                 17.4352413244
           2        7                 -5.2255326521                 -5.2270484734
           2        8                  8.6835629259                  8.6603288385
           2        9                 27.4952418996                 27.4953360207
           3       10               -384.4424306495               -384.4423701208
           3       11                 12.5842251816                 12.5842222903
           3       12                -15.7264628251                -15.7264433455
           3       13                 -7.0696854293                 -7.0701769954
           3       14                  8.8090390882                  8.7901077751
           3       15                 35.9586762123                 35.9588528632
           4       16               -514.2458688638               -514.2457643834
           4       17                 15.1795651126                 15.1795290741
           4       18                -21.5359799773                -21.5360846186
           4       19                 -9.0283069236                 -9.0284644067
           4       20                  8.3027758564                  8.2834874195
           4       21                 45.8339351984                 45.8338762259

  Preparing densities etc. for the partition functions (integrals / Hartree potential).

  Preparations completed.
  max(cpu_time)          :      0.148 s.
  Wall clock time (cpu1) :      0.149 s.
------------------------------------------------------------

------------------------------------------------------------
          Begin self-consistency loop: Initialization.

          Date     :  20200710, Time     :  151529.120
------------------------------------------------------------

  Initializing index lists of integration centers etc. from given atomic structure:
  | Number of centers in hartree potential         :        13
  | Number of centers in hartree multipole         :        13
  | Number of centers in electron density summation:        13
  | Number of centers in basis integrals           :        13
  | Number of centers in integrals                 :        13
  | Number of centers in hamiltonian               :        13
  Partitioning the integration grid into batches with parallel hashing+maxmin method.
  | Number of batches:      958
  | Maximal batch size:     139
  | Minimal batch size:      66
  | Average batch size:      72.699
  | Standard deviation of batch sizes:      17.178

  Integration load balanced across     1 MPI tasks.
  Work distribution over tasks is as follows:
  Task     0 has      69646 integration points.
  Initializing partition tables, free-atom densities, potentials, etc. across the integration grid (initialize_grid_storage).
  | initialize_grid_storage: Actual outermost partition radius vs. multipole_radius_free
  | (-- VB: in principle, multipole_radius_free should be larger, hence this output)
  | Species        1: Confinement radius =              4.999999999999999 AA, multipole_radius_free =              5.054417573612229 AA.
  | Species        1: outer_partition_radius set to              5.054417573612229 AA .
  | Species        2: Confinement radius =              4.999999999999999 AA, multipole_radius_free =              5.019602836301480 AA.
  | Species        2: outer_partition_radius set to              5.019602836301480 AA .
  | Species        3: Confinement radius =              4.999999999999999 AA, multipole_radius_free =              5.043624274424571 AA.
  | Species        3: outer_partition_radius set to              5.043624274424571 AA .
  | Species        4: Confinement radius =              4.999999999999999 AA, multipole_radius_free =              5.048384829883283 AA.
  | Species        4: outer_partition_radius set to              5.048384829883283 AA .
  | Original list of interatomic distances with          13 x         13 entries is created.
  | Net number of integration points:    69646
  | of which are non-zero points    :    59348
  Renormalizing the initial density to the exact electron count on the 3D integration grid.
  | Initial density: Formal number of electrons (from input files) :      48.0000000000
  | Integrated number of electrons on 3D grid     :      48.0000967144
  | Charge integration error                      :       0.0000967144
  | Normalization factor for density and gradient :       0.9999979851
  Obtaining max. number of non-zero basis functions in each batch (get_n_compute_maxes).
  | Maximal number of non-zero basis functions:      119 in task     0
  Selecting the method for density update.
  Loop over occupied states selected for charge density update.
  Allocating        0.050 MB for KS_eigenvector
  Integrating Hamiltonian matrix: batch-based integration.
  Time summed over all CPUs for integration: real work        0.497 s, elapsed        0.497 s
  Integrating overlap matrix.
  Time summed over all CPUs for integration: real work        0.214 s, elapsed        0.214 s

  Updating Kohn-Sham eigenvalues and eigenvectors using ELSI and the ELPA eigensolver.
  Overlap matrix is nonsingular
  | Lowest eigenvalue of overlap  :  0.45E-02
  | Highest eigenvalue of overlap :  0.64E+01
  Finished singularity check of overlap matrix
  | Time :     0.002 s
  Finished Cholesky decomposition
  | Time :     0.000 s
  Finished transformation to standard eigenproblem
  | Time :     0.000 s
  Starting LAPACK eigensolver
  Finished solving standard eigenproblem
  | Time :     0.002 s
  Finished back-transformation of eigenvectors
  | Time :     0.000 s

  Obtaining occupation numbers and chemical potential using ELSI.
  | Chemical potential (Fermi level):    -9.32097484eV
  Writing Kohn-Sham eigenvalues.

  State    Occupation    Eigenvalue [Ha]    Eigenvalue [eV]
      1       2.00000         -19.008042         -517.23513
      2       2.00000         -18.977177         -516.39526
      3       2.00000         -14.246036         -387.65436
      4       2.00000         -10.166863         -276.65441
      5       2.00000         -10.141500         -275.96427
      6       2.00000         -10.132066         -275.70754
      7       2.00000          -1.182966          -32.19015
      8       2.00000          -1.099850          -29.92845
      9       2.00000          -0.992307          -27.00205
     10       2.00000          -0.858772          -23.36838
     11       2.00000          -0.757030          -20.59984
     12       2.00000          -0.679473          -18.48941
     13       2.00000          -0.644922          -17.54922
     14       2.00000          -0.596082          -16.22020
     15       2.00000          -0.583787          -15.88565
     16       2.00000          -0.558233          -15.19030
     17       2.00000          -0.549416          -14.95036
     18       2.00000          -0.545989          -14.85711
     19       2.00000          -0.527122          -14.34373
     20       2.00000          -0.493175          -13.41998
     21       2.00000          -0.464450          -12.63834
     22       2.00000          -0.427693          -11.63812
     23       2.00000          -0.401000          -10.91176
     24       2.00000          -0.389717          -10.60474
     25       0.00000          -0.158598           -4.31567
     26       0.00000          -0.078261           -2.12960
     27       0.00000          -0.030963           -0.84255
     28       0.00000          -0.026633           -0.72473
     29       0.00000           0.003300            0.08980
     30       0.00000           0.010481            0.28520
     31       0.00000           0.024026            0.65378
     32       0.00000           0.038123            1.03737
     33       0.00000           0.058655            1.59608
     34       0.00000           0.066044            1.79715
     35       0.00000           0.090757            2.46963
     36       0.00000           0.132902            3.61644
     37       0.00000           0.155035            4.21871
     38       0.00000           0.206624            5.62253
     39       0.00000           0.220895            6.01086
     40       0.00000           0.229877            6.25527
     41       0.00000           0.253138            6.88825
     42       0.00000           0.266888            7.26239
     43       0.00000           0.293921            7.99801
     44       0.00000           0.297572            8.09733
     45       0.00000           0.320463            8.72023
     46       0.00000           0.343955            9.35950
     47       0.00000           0.372035           10.12360
     48       0.00000           0.381326           10.37640
     49       0.00000           0.453571           12.34228
     50       0.00000           0.467870           12.73139
     51       0.00000           0.511399           13.91588
     52       0.00000           0.541825           14.74380
     53       0.00000           0.575436           15.65841

  Highest occupied state (VBM) at    -10.60474235 eV
  | Occupation number:      2.00000000

  Lowest unoccupied state (CBM) at    -4.31566800 eV
  | Occupation number:      0.00000000

  Overall HOMO-LUMO gap:      6.28907435 eV.
  Calculating total energy contributions from superposition of free atom densities.

  Total energy components:
  | Sum of eigenvalues            :        -188.84733753 Ha       -5138.79751321 eV
  | XC energy correction          :         -41.79866493 Ha       -1137.39954297 eV
  | XC potential correction       :          53.73393469 Ha        1462.17475751 eV
  | Free-atom electrostatic energy:        -146.83946685 Ha       -3995.70519233 eV
  | Hartree energy correction     :           0.00000000 Ha           0.00000000 eV
  | vdW energy correction         :           0.00000000 Ha           0.00000000 eV
  | Entropy correction            :           0.00000000 Ha           0.00000000 eV
  | ---------------------------
  | Total energy                  :        -323.75153462 Ha       -8809.72749099 eV
  | Total energy, T -> 0          :        -323.75153462 Ha       -8809.72749099 eV  <-- do not rely on this value for anything but (periodic) metals
  | Electronic free energy        :        -323.75153462 Ha       -8809.72749099 eV

  Derived energy quantities:
  | Kinetic energy                :         320.52342935 Ha        8721.88627739 eV
  | Electrostatic energy          :        -602.47629904 Ha      -16394.21422541 eV
  | Energy correction for multipole
  | error in Hartree potential    :           0.00000000 Ha           0.00000000 eV
  | Sum of eigenvalues per atom                           :        -395.29211640 eV
  | Total energy (T->0) per atom                          :        -677.67134546 eV  <-- do not rely on this value for anything but (periodic) metals
  | Electronic free energy per atom                       :        -677.67134546 eV
  Initialize hartree_potential_storage
  Max. number of atoms included in rho_multipole:           13

  End scf initialization - timings             :  max(cpu_time)    wall_clock(cpu1)
  | Time for scf. initialization               :        1.160 s           1.162 s
  | Boundary condition initialization          :        0.000 s           0.000 s
  | Integration                                :        0.711 s           0.712 s
  | Solution of K.-S. eqns.                    :        0.004 s           0.004 s
  | Grid partitioning                          :        0.112 s           0.113 s
  | Preloading free-atom quantities on grid    :        0.002 s           0.003 s
  | Free-atom superposition energy             :        0.085 s           0.084 s
  | Total energy evaluation                    :        0.000 s           0.001 s

  Partial memory accounting:
  | Current value for overall tracked memory usage on task 0  :           0.165 MB
  | Peak value for overall tracked memory usage on task 0     :           0.678 MB after allocating wave
  | Largest tracked array allocation on task 0 so far         :           0.132 MB  when allocating H_times_psi
  Note:  These values currently only include a subset of arrays which are explicitly tracked.
  The "true" memory usage will be greater.
------------------------------------------------------------

------------------------------------------------------------
          Begin self-consistency iteration #    1

  Date     :  20200710, Time     :  151530.282
------------------------------------------------------------
  Evaluating new KS density.
  Integration grid: deviation in total charge (<rho> - N_e) =   3.552714E-14
  Pulay mixing of updated and previous charge densities.

  Evaluating partitioned Hartree potential by multipole expansion.
  | Analytical far-field extrapolation by fixed multipoles:
  | Hartree multipole sum: apparent total charge =  -0.120627E-04
  Summing up the Hartree potential.
  Time summed over all CPUs for potential: real work        0.287 s, elapsed        0.287 s
  | RMS charge density error from multipole expansion :   0.595682E-02

  Integrating Hamiltonian matrix: batch-based integration.
  Time summed over all CPUs for integration: real work        0.505 s, elapsed        0.505 s

  Updating Kohn-Sham eigenvalues and eigenvectors using ELSI and the ELPA eigensolver.
  Finished Cholesky decomposition
  | Time :     0.000 s
  Finished transformation to standard eigenproblem
  | Time :     0.000 s
  Starting LAPACK eigensolver
  Finished solving standard eigenproblem
  | Time :     0.002 s
  Finished back-transformation of eigenvectors
  | Time :     0.000 s

  Obtaining occupation numbers and chemical potential using ELSI.
  | Chemical potential (Fermi level):    -8.27291353eV
  Writing Kohn-Sham eigenvalues.

  State    Occupation    Eigenvalue [Ha]    Eigenvalue [eV]
      1       2.00000         -18.902885         -514.37367
      2       2.00000         -18.837017         -512.58133
      3       2.00000         -14.100793         -383.70210
      4       2.00000         -10.118315         -275.33337
      5       2.00000         -10.065516         -273.89662
      6       2.00000         -10.035042         -273.06740
      7       2.00000          -1.134824          -30.88014
      8       2.00000          -1.037084          -28.22048
      9       2.00000          -0.926191          -25.20295
     10       2.00000          -0.795891          -21.65729
     11       2.00000          -0.706996          -19.23835
     12       2.00000          -0.636942          -17.33208
     13       2.00000          -0.594145          -16.16752
     14       2.00000          -0.535867          -14.58168
     15       2.00000          -0.530601          -14.43839
     16       2.00000          -0.497297          -13.53215
     17       2.00000          -0.491708          -13.38004
     18       2.00000          -0.486053          -13.22618
     19       2.00000          -0.467706          -12.72693
     20       2.00000          -0.439179          -11.95066
     21       2.00000          -0.405339          -11.02982
     22       2.00000          -0.371402          -10.10636
     23       2.00000          -0.328948           -8.95113
     24       2.00000          -0.318292           -8.66117
     25       0.00000          -0.123160           -3.35136
     26       0.00000          -0.061511           -1.67381
     27       0.00000          -0.001490           -0.04054
     28       0.00000           0.013104            0.35657
     29       0.00000           0.030834            0.83904
     30       0.00000           0.045030            1.22533
     31       0.00000           0.062745            1.70738
     32       0.00000           0.076259            2.07512
     33       0.00000           0.093633            2.54788
     34       0.00000           0.098244            2.67335
     35       0.00000           0.127230            3.46211
     36       0.00000           0.160244            4.36047
     37       0.00000           0.178516            4.85768
     38       0.00000           0.234074            6.36948
     39       0.00000           0.251895            6.85441
     40       0.00000           0.265101            7.21377
     41       0.00000           0.283276            7.70834
     42       0.00000           0.299801            8.15800
     43       0.00000           0.326678            8.88936
     44       0.00000           0.336907            9.16770
     45       0.00000           0.359028            9.76964
     46       0.00000           0.376297           10.23956
     47       0.00000           0.414093           11.26804
     48       0.00000           0.420675           11.44714
     49       0.00000           0.483530           13.15753
     50       0.00000           0.504393           13.72524
     51       0.00000           0.546130           14.86095
     52       0.00000           0.573235           15.59851
     53       0.00000           0.610674           16.61729

  Highest occupied state (VBM) at     -8.66117328 eV
  | Occupation number:      2.00000000

  Lowest unoccupied state (CBM) at    -3.35135838 eV
  | Occupation number:      0.00000000

  Overall HOMO-LUMO gap:      5.30981490 eV.

  Total energy components:
  | Sum of eigenvalues            :        -185.52807046 Ha       -5048.47566096 eV
  | XC energy correction          :         -42.12457674 Ha       -1146.26805461 eV
  | XC potential correction       :          54.15771478 Ha        1473.70640050 eV
  | Free-atom electrostatic energy:        -146.83946685 Ha       -3995.70519233 eV
  | Hartree energy correction     :          -3.23370268 Ha         -87.99352703 eV
  | vdW energy correction         :           0.00000000 Ha           0.00000000 eV
  | Entropy correction            :           0.00000000 Ha           0.00000000 eV
  | ---------------------------
  | Total energy                  :        -323.56810196 Ha       -8804.73603442 eV
  | Total energy, T -> 0          :        -323.56810196 Ha       -8804.73603442 eV  <-- do not rely on this value for anything but (periodic) metals
  | Electronic free energy        :        -323.56810196 Ha       -8804.73603442 eV

  Derived energy quantities:
  | Kinetic energy                :         322.30618805 Ha        8770.39760981 eV
  | Electrostatic energy          :        -603.74971327 Ha      -16428.86558962 eV
  | Energy correction for multipole
  | error in Hartree potential    :           0.01192967 Ha           0.32462288 eV
  | Sum of eigenvalues per atom                           :        -388.34428161 eV
  | Total energy (T->0) per atom                          :        -677.28738726 eV  <-- do not rely on this value for anything but (periodic) metals
  | Electronic free energy per atom                       :        -677.28738726 eV

  Self-consistency convergence accuracy:
  | Change of charge density      :  0.5858E+00
  | Change of sum of eigenvalues  :  0.9032E+02 eV
  | Change of total energy        :  0.4991E+01 eV

  End self-consistency iteration #     1       :  max(cpu_time)    wall_clock(cpu1)
  | Time for this iteration                    :        1.209 s           1.211 s
  | Charge density update                      :        0.400 s           0.400 s
  | Density mixing                             :        0.006 s           0.006 s
  | Hartree multipole update                   :        0.009 s           0.009 s
  | Hartree multipole summation                :        0.288 s           0.289 s
  | Integration                                :        0.504 s           0.505 s
  | Solution of K.-S. eqns.                    :        0.002 s           0.002 s
  | Total energy evaluation                    :        0.000 s           0.000 s

  Partial memory accounting:
  | Current value for overall tracked memory usage on task 0  :           0.165 MB
  | Peak value for overall tracked memory usage on task 0     :           0.695 MB after allocating gradient_basis_wave
  | Largest tracked array allocation on task 0 so far         :           0.397 MB  when allocating gradient_basis_wave
  Note:  These values currently only include a subset of arrays which are explicitly tracked.
  The "true" memory usage will be greater.
------------------------------------------------------------

------------------------------------------------------------
          Begin self-consistency iteration #    2

  Date     :  20200710, Time     :  151531.496
------------------------------------------------------------
  Evaluating new KS density.
  Integration grid: deviation in total charge (<rho> - N_e) =   4.263256E-14
  Pulay mixing of updated and previous charge densities.

  Evaluating partitioned Hartree potential by multipole expansion.
  | Analytical far-field extrapolation by fixed multipoles:
  | Hartree multipole sum: apparent total charge =  -0.147988E-03
  Summing up the Hartree potential.
  Time summed over all CPUs for potential: real work        0.285 s, elapsed        0.285 s
  | RMS charge density error from multipole expansion :   0.140631E-01

  Integrating Hamiltonian matrix: batch-based integration.
  Time summed over all CPUs for integration: real work        0.497 s, elapsed        0.497 s

  Updating Kohn-Sham eigenvalues and eigenvectors using ELSI and the ELPA eigensolver.
  Finished Cholesky decomposition
  | Time :     0.000 s
  Finished transformation to standard eigenproblem
  | Time :     0.000 s
  Starting LAPACK eigensolver
  Finished solving standard eigenproblem
  | Time :     0.001 s
  Finished back-transformation of eigenvectors
  | Time :     0.000 s

  Obtaining occupation numbers and chemical potential using ELSI.
  | Chemical potential (Fermi level):    -2.97240099eV
  Highest occupied state (VBM) at     -6.70630086 eV
  | Occupation number:      2.00000000

  Lowest unoccupied state (CBM) at    -2.13536748 eV
  | Occupation number:      0.00000000

  Overall HOMO-LUMO gap:      4.57093337 eV.

  Checking to see if s.c.f. parameters should be adjusted.

  Total energy components:
  | Sum of eigenvalues            :        -182.08115177 Ha       -4954.68023101 eV
  | XC energy correction          :         -42.47613751 Ha       -1155.83450996 eV
  | XC potential correction       :          54.61320551 Ha        1486.10093398 eV
  | Free-atom electrostatic energy:        -146.83946685 Ha       -3995.70519233 eV
  | Hartree energy correction     :          -6.70603060 Ha        -182.48037717 eV
  | vdW energy correction         :           0.00000000 Ha           0.00000000 eV
  | Entropy correction            :           0.00000000 Ha           0.00000000 eV
  | ---------------------------
  | Total energy                  :        -323.48958123 Ha       -8802.59937648 eV
  | Total energy, T -> 0          :        -323.48958123 Ha       -8802.59937648 eV  <-- do not rely on this value for anything but (periodic) metals
  | Electronic free energy        :        -323.48958123 Ha       -8802.59937648 eV

  Derived energy quantities:
  | Kinetic energy                :         323.59810238 Ha        8805.55238746 eV
  | Electrostatic energy          :        -604.61154610 Ha      -16452.31725398 eV
  | Energy correction for multipole
  | error in Hartree potential    :           0.02607562 Ha           0.70955379 eV
  | Sum of eigenvalues per atom                           :        -381.12924854 eV
  | Total energy (T->0) per atom                          :        -677.12302896 eV  <-- do not rely on this value for anything but (periodic) metals
  | Electronic free energy per atom                       :        -677.12302896 eV

  Self-consistency convergence accuracy:
  | Change of charge density      :  0.3663E+00
  | Change of sum of eigenvalues  :  0.9380E+02 eV
  | Change of total energy        :  0.2137E+01 eV

  End self-consistency iteration #     2       :  max(cpu_time)    wall_clock(cpu1)
  | Time for this iteration                    :        1.190 s           1.198 s
  | Charge density update                      :        0.389 s           0.396 s
  | Density mixing                             :        0.007 s           0.007 s
  | Hartree multipole update                   :        0.009 s           0.009 s
  | Hartree multipole summation                :        0.286 s           0.286 s
  | Integration                                :        0.497 s           0.497 s
  | Solution of K.-S. eqns.                    :        0.002 s           0.003 s
  | Total energy evaluation                    :        0.000 s           0.000 s

  Partial memory accounting:
  | Current value for overall tracked memory usage on task 0  :           0.166 MB
  | Peak value for overall tracked memory usage on task 0     :           0.695 MB after allocating gradient_basis_wave
  | Largest tracked array allocation on task 0 so far         :           0.397 MB  when allocating gradient_basis_wave
  Note:  These values currently only include a subset of arrays which are explicitly tracked.
  The "true" memory usage will be greater.
------------------------------------------------------------

------------------------------------------------------------
          Begin self-consistency iteration #    3

  Date     :  20200710, Time     :  151532.696
------------------------------------------------------------
  Evaluating new KS density.
  Integration grid: deviation in total charge (<rho> - N_e) =   2.131628E-14
  Pulay mixing of updated and previous charge densities.

  Evaluating partitioned Hartree potential by multipole expansion.
  | Analytical far-field extrapolation by fixed multipoles:
  | Hartree multipole sum: apparent total charge =  -0.241805E-03
  Summing up the Hartree potential.
  Time summed over all CPUs for potential: real work        0.288 s, elapsed        0.288 s
  | RMS charge density error from multipole expansion :   0.221344E-01

  Integrating Hamiltonian matrix: batch-based integration.
  Time summed over all CPUs for integration: real work        0.507 s, elapsed        0.507 s

  Updating Kohn-Sham eigenvalues and eigenvectors using ELSI and the ELPA eigensolver.
  Finished Cholesky decomposition
  | Time :     0.000 s
  Finished transformation to standard eigenproblem
  | Time :     0.000 s
  Starting LAPACK eigensolver
  Finished solving standard eigenproblem
  | Time :     0.002 s
  Finished back-transformation of eigenvectors
  | Time :     0.000 s

  Obtaining occupation numbers and chemical potential using ELSI.
  | Chemical potential (Fermi level):    -2.43459092eV
  Highest occupied state (VBM) at     -6.03963519 eV
  | Occupation number:      2.00000000

  Lowest unoccupied state (CBM) at    -1.46635901 eV
  | Occupation number:      0.00000000

  Overall HOMO-LUMO gap:      4.57327617 eV.

  Total energy components:
  | Sum of eigenvalues            :        -180.80030638 Ha       -4919.82665457 eV
  | XC energy correction          :         -42.62768102 Ha       -1159.95821848 eV
  | XC potential correction       :          54.80622857 Ha        1491.35335866 eV
  | Free-atom electrostatic energy:        -146.83946685 Ha       -3995.70519233 eV
  | Hartree energy correction     :          -8.01539799 Ha        -218.11007664 eV
  | vdW energy correction         :           0.00000000 Ha           0.00000000 eV
  | Entropy correction            :           0.00000000 Ha           0.00000000 eV
  | ---------------------------
  | Total energy                  :        -323.47662367 Ha       -8802.24678335 eV
  | Total energy, T -> 0          :        -323.47662367 Ha       -8802.24678335 eV  <-- do not rely on this value for anything but (periodic) metals
  | Electronic free energy        :        -323.47662367 Ha       -8802.24678335 eV

  Derived energy quantities:
  | Kinetic energy                :         323.21819274 Ha        8795.21452001 eV
  | Electrostatic energy          :        -604.06713539 Ha      -16437.50308488 eV
  | Energy correction for multipole
  | error in Hartree potential    :           0.03686529 Ha           1.00315561 eV
  | Sum of eigenvalues per atom                           :        -378.44820420 eV
  | Total energy (T->0) per atom                          :        -677.09590641 eV  <-- do not rely on this value for anything but (periodic) metals
  | Electronic free energy per atom                       :        -677.09590641 eV

  Self-consistency convergence accuracy:
  | Change of charge density      :  0.2069E+00
  | Change of sum of eigenvalues  :  0.3485E+02 eV
  | Change of total energy        :  0.3526E+00 eV

  End self-consistency iteration #     3       :  max(cpu_time)    wall_clock(cpu1)
  | Time for this iteration                    :        1.207 s           1.208 s
  | Charge density update                      :        0.391 s           0.391 s
  | Density mixing                             :        0.009 s           0.009 s
  | Hartree multipole update                   :        0.009 s           0.009 s
  | Hartree multipole summation                :        0.288 s           0.289 s
  | Integration                                :        0.507 s           0.507 s
  | Solution of K.-S. eqns.                    :        0.002 s           0.003 s
  | Total energy evaluation                    :        0.000 s           0.000 s

  Partial memory accounting:
  | Current value for overall tracked memory usage on task 0  :           0.166 MB
  | Peak value for overall tracked memory usage on task 0     :           0.695 MB after allocating gradient_basis_wave
  | Largest tracked array allocation on task 0 so far         :           0.397 MB  when allocating gradient_basis_wave
  Note:  These values currently only include a subset of arrays which are explicitly tracked.
  The "true" memory usage will be greater.
------------------------------------------------------------

------------------------------------------------------------
          Begin self-consistency iteration #    4

  Date     :  20200710, Time     :  151533.906
------------------------------------------------------------
  Evaluating new KS density.
  Integration grid: deviation in total charge (<rho> - N_e) =   1.421085E-14
  Pulay mixing of updated and previous charge densities.

  Evaluating partitioned Hartree potential by multipole expansion.
  | Analytical far-field extrapolation by fixed multipoles:
  | Hartree multipole sum: apparent total charge =  -0.273424E-03
  Summing up the Hartree potential.
  Time summed over all CPUs for potential: real work        0.283 s, elapsed        0.283 s
  | RMS charge density error from multipole expansion :   0.256996E-01

  Integrating Hamiltonian matrix: batch-based integration.
  Time summed over all CPUs for integration: real work        0.501 s, elapsed        0.501 s

  Updating Kohn-Sham eigenvalues and eigenvectors using ELSI and the ELPA eigensolver.
  Finished Cholesky decomposition
  | Time :     0.000 s
  Finished transformation to standard eigenproblem
  | Time :     0.000 s
  Starting LAPACK eigensolver
  Finished solving standard eigenproblem
  | Time :     0.002 s
  Finished back-transformation of eigenvectors
  | Time :     0.000 s

  Obtaining occupation numbers and chemical potential using ELSI.
  | Chemical potential (Fermi level):    -2.34306295eV
  Highest occupied state (VBM) at     -5.90772055 eV
  | Occupation number:      2.00000000

  Lowest unoccupied state (CBM) at    -1.37105041 eV
  | Occupation number:      0.00000000

  Overall HOMO-LUMO gap:      4.53667014 eV.

  Total energy components:
  | Sum of eigenvalues            :        -180.66897468 Ha       -4916.25293716 eV
  | XC energy correction          :         -42.66714765 Ha       -1161.03216024 eV
  | XC potential correction       :          54.85574575 Ha        1492.70078961 eV
  | Free-atom electrostatic energy:        -146.83946685 Ha       -3995.70519233 eV
  | Hartree energy correction     :          -8.15571705 Ha        -221.92835243 eV
  | vdW energy correction         :           0.00000000 Ha           0.00000000 eV
  | Entropy correction            :           0.00000000 Ha           0.00000000 eV
  | ---------------------------
  | Total energy                  :        -323.47556048 Ha       -8802.21785255 eV
  | Total energy, T -> 0          :        -323.47556048 Ha       -8802.21785255 eV  <-- do not rely on this value for anything but (periodic) metals
  | Electronic free energy        :        -323.47556048 Ha       -8802.21785255 eV

  Derived energy quantities:
  | Kinetic energy                :         322.83278636 Ha        8784.72707890 eV
  | Electrostatic energy          :        -603.64119919 Ha      -16425.91277121 eV
  | Energy correction for multipole
  | error in Hartree potential    :           0.04117798 Ha           1.12050998 eV
  | Sum of eigenvalues per atom                           :        -378.17330286 eV
  | Total energy (T->0) per atom                          :        -677.09368097 eV  <-- do not rely on this value for anything but (periodic) metals
  | Electronic free energy per atom                       :        -677.09368097 eV

  Self-consistency convergence accuracy:
  | Change of charge density      :  0.6852E-01
  | Change of sum of eigenvalues  :  0.3574E+01 eV
  | Change of total energy        :  0.2893E-01 eV

  End self-consistency iteration #     4       :  max(cpu_time)    wall_clock(cpu1)
  | Time for this iteration                    :        1.192 s           1.193 s
  | Charge density update                      :        0.387 s           0.387 s
  | Density mixing                             :        0.009 s           0.010 s
  | Hartree multipole update                   :        0.009 s           0.009 s
  | Hartree multipole summation                :        0.284 s           0.284 s
  | Integration                                :        0.500 s           0.501 s
  | Solution of K.-S. eqns.                    :        0.002 s           0.002 s
  | Total energy evaluation                    :        0.000 s           0.000 s

  Partial memory accounting:
  | Current value for overall tracked memory usage on task 0  :           0.166 MB
  | Peak value for overall tracked memory usage on task 0     :           0.696 MB after allocating gradient_basis_wave
  | Largest tracked array allocation on task 0 so far         :           0.397 MB  when allocating gradient_basis_wave
  Note:  These values currently only include a subset of arrays which are explicitly tracked.
  The "true" memory usage will be greater.
------------------------------------------------------------

------------------------------------------------------------
          Begin self-consistency iteration #    5

  Date     :  20200710, Time     :  151535.102
------------------------------------------------------------
  Evaluating new KS density.
  Integration grid: deviation in total charge (<rho> - N_e) =  -7.815970E-14
  Pulay mixing of updated and previous charge densities.

  Evaluating partitioned Hartree potential by multipole expansion.
  | Analytical far-field extrapolation by fixed multipoles:
  | Hartree multipole sum: apparent total charge =  -0.267224E-03
  Summing up the Hartree potential.
  Time summed over all CPUs for potential: real work        0.285 s, elapsed        0.285 s
  | RMS charge density error from multipole expansion :   0.254605E-01

  Integrating Hamiltonian matrix: batch-based integration.
  Time summed over all CPUs for integration: real work        0.510 s, elapsed        0.510 s

  Updating Kohn-Sham eigenvalues and eigenvectors using ELSI and the ELPA eigensolver.
  Finished Cholesky decomposition
  | Time :     0.000 s
  Finished transformation to standard eigenproblem
  | Time :     0.000 s
  Starting LAPACK eigensolver
  Finished solving standard eigenproblem
  | Time :     0.002 s
  Finished back-transformation of eigenvectors
  | Time :     0.000 s

  Obtaining occupation numbers and chemical potential using ELSI.
  | Chemical potential (Fermi level):    -2.39739886eV
  Highest occupied state (VBM) at     -5.97991578 eV
  | Occupation number:      2.00000000

  Lowest unoccupied state (CBM) at    -1.46270418 eV
  | Occupation number:      0.00000000

  Overall HOMO-LUMO gap:      4.51721160 eV.

  Total energy components:
  | Sum of eigenvalues            :        -180.86151185 Ha       -4921.49214027 eV
  | XC energy correction          :         -42.64330823 Ha       -1160.38345650 eV
  | XC potential correction       :          54.82481507 Ha        1491.85912298 eV
  | Free-atom electrostatic energy:        -146.83946685 Ha       -3995.70519233 eV
  | Hartree energy correction     :          -7.95579871 Ha        -216.48829769 eV
  | vdW energy correction         :           0.00000000 Ha           0.00000000 eV
  | Entropy correction            :           0.00000000 Ha           0.00000000 eV
  | ---------------------------
  | Total energy                  :        -323.47527057 Ha       -8802.20996380 eV
  | Total energy, T -> 0          :        -323.47527057 Ha       -8802.20996380 eV  <-- do not rely on this value for anything but (periodic) metals
  | Electronic free energy        :        -323.47527057 Ha       -8802.20996380 eV

  Derived energy quantities:
  | Kinetic energy                :         322.72062615 Ha        8781.67504428 eV
  | Electrostatic energy          :        -603.55258850 Ha      -16423.50155159 eV
  | Energy correction for multipole
  | error in Hartree potential    :           0.04055686 Ha           1.10360844 eV
  | Sum of eigenvalues per atom                           :        -378.57631848 eV
  | Total energy (T->0) per atom                          :        -677.09307414 eV  <-- do not rely on this value for anything but (periodic) metals
  | Electronic free energy per atom                       :        -677.09307414 eV

  Self-consistency convergence accuracy:
  | Change of charge density      :  0.2103E-01
  | Change of sum of eigenvalues  : -0.5239E+01 eV
  | Change of total energy        :  0.7889E-02 eV

  End self-consistency iteration #     5       :  max(cpu_time)    wall_clock(cpu1)
  | Time for this iteration                    :        1.205 s           1.206 s
  | Charge density update                      :        0.387 s           0.387 s
  | Density mixing                             :        0.011 s           0.011 s
  | Hartree multipole update                   :        0.009 s           0.009 s
  | Hartree multipole summation                :        0.286 s           0.286 s
  | Integration                                :        0.510 s           0.510 s
  | Solution of K.-S. eqns.                    :        0.002 s           0.003 s
  | Total energy evaluation                    :        0.000 s           0.000 s

  Partial memory accounting:
  | Current value for overall tracked memory usage on task 0  :           0.166 MB
  | Peak value for overall tracked memory usage on task 0     :           0.696 MB after allocating gradient_basis_wave
  | Largest tracked array allocation on task 0 so far         :           0.397 MB  when allocating gradient_basis_wave
  Note:  These values currently only include a subset of arrays which are explicitly tracked.
  The "true" memory usage will be greater.
------------------------------------------------------------

------------------------------------------------------------
          Begin self-consistency iteration #    6

  Date     :  20200710, Time     :  151536.310
------------------------------------------------------------
  Evaluating new KS density.
  Integration grid: deviation in total charge (<rho> - N_e) =   4.973799E-14
  Pulay mixing of updated and previous charge densities.

  Evaluating partitioned Hartree potential by multipole expansion.
  | Analytical far-field extrapolation by fixed multipoles:
  | Hartree multipole sum: apparent total charge =  -0.270445E-03
  Summing up the Hartree potential.
  Time summed over all CPUs for potential: real work        0.282 s, elapsed        0.282 s
  | RMS charge density error from multipole expansion :   0.258884E-01

  Integrating Hamiltonian matrix: batch-based integration.
  Time summed over all CPUs for integration: real work        0.502 s, elapsed        0.502 s

  Updating Kohn-Sham eigenvalues and eigenvectors using ELSI and the ELPA eigensolver.
  Finished Cholesky decomposition
  | Time :     0.000 s
  Finished transformation to standard eigenproblem
  | Time :     0.000 s
  Starting LAPACK eigensolver
  Finished solving standard eigenproblem
  | Time :     0.001 s
  Finished back-transformation of eigenvectors
  | Time :     0.000 s

  Obtaining occupation numbers and chemical potential using ELSI.
  | Chemical potential (Fermi level):    -2.39110969eV
  Highest occupied state (VBM) at     -5.94582896 eV
  | Occupation number:      2.00000000

  Lowest unoccupied state (CBM) at    -1.47679207 eV
  | Occupation number:      0.00000000

  Overall HOMO-LUMO gap:      4.46903689 eV.

  Total energy components:
  | Sum of eigenvalues            :        -180.86102846 Ha       -4921.47898640 eV
  | XC energy correction          :         -42.64330786 Ha       -1160.38344655 eV
  | XC potential correction       :          54.82477171 Ha        1491.85794310 eV
  | Free-atom electrostatic energy:        -146.83946685 Ha       -3995.70519233 eV
  | Hartree energy correction     :          -7.95619463 Ha        -216.49907114 eV
  | vdW energy correction         :           0.00000000 Ha           0.00000000 eV
  | Entropy correction            :           0.00000000 Ha           0.00000000 eV
  | ---------------------------
  | Total energy                  :        -323.47522609 Ha       -8802.20875332 eV
  | Total energy, T -> 0          :        -323.47522609 Ha       -8802.20875332 eV  <-- do not rely on this value for anything but (periodic) metals
  | Electronic free energy        :        -323.47522609 Ha       -8802.20875332 eV

  Derived energy quantities:
  | Kinetic energy                :         322.64984422 Ha        8779.74896987 eV
  | Electrostatic energy          :        -603.48176245 Ha      -16421.57427664 eV
  | Energy correction for multipole
  | error in Hartree potential    :           0.04094310 Ha           1.11411838 eV
  | Sum of eigenvalues per atom                           :        -378.57530665 eV
  | Total energy (T->0) per atom                          :        -677.09298102 eV  <-- do not rely on this value for anything but (periodic) metals
  | Electronic free energy per atom                       :        -677.09298102 eV

  Self-consistency convergence accuracy:
  | Change of charge density      :  0.1065E-01
  | Change of sum of eigenvalues  :  0.1315E-01 eV
  | Change of total energy        :  0.1210E-02 eV

  End self-consistency iteration #     6       :  max(cpu_time)    wall_clock(cpu1)
  | Time for this iteration                    :        1.199 s           1.200 s
  | Charge density update                      :        0.391 s           0.392 s
  | Density mixing                             :        0.012 s           0.012 s
  | Hartree multipole update                   :        0.009 s           0.009 s
  | Hartree multipole summation                :        0.283 s           0.283 s
  | Integration                                :        0.502 s           0.502 s
  | Solution of K.-S. eqns.                    :        0.002 s           0.002 s
  | Total energy evaluation                    :        0.000 s           0.000 s

  Partial memory accounting:
  | Current value for overall tracked memory usage on task 0  :           0.166 MB
  | Peak value for overall tracked memory usage on task 0     :           0.696 MB after allocating gradient_basis_wave
  | Largest tracked array allocation on task 0 so far         :           0.397 MB  when allocating gradient_basis_wave
  Note:  These values currently only include a subset of arrays which are explicitly tracked.
  The "true" memory usage will be greater.
------------------------------------------------------------

------------------------------------------------------------
          Begin self-consistency iteration #    7

  Date     :  20200710, Time     :  151537.513
------------------------------------------------------------
  Evaluating new KS density.
  Integration grid: deviation in total charge (<rho> - N_e) =  -4.973799E-14
  Pulay mixing of updated and previous charge densities.

  Evaluating partitioned Hartree potential by multipole expansion.
  | Analytical far-field extrapolation by fixed multipoles:
  | Hartree multipole sum: apparent total charge =  -0.270913E-03
  Summing up the Hartree potential.
  Time summed over all CPUs for potential: real work        0.282 s, elapsed        0.282 s
  | RMS charge density error from multipole expansion :   0.259981E-01

  Integrating Hamiltonian matrix: batch-based integration.
  Time summed over all CPUs for integration: real work        0.508 s, elapsed        0.508 s

  Updating Kohn-Sham eigenvalues and eigenvectors using ELSI and the ELPA eigensolver.
  Finished Cholesky decomposition
  | Time :     0.000 s
  Finished transformation to standard eigenproblem
  | Time :     0.000 s
  Starting LAPACK eigensolver
  Finished solving standard eigenproblem
  | Time :     0.002 s
  Finished back-transformation of eigenvectors
  | Time :     0.000 s

[...]
  |   Hirshfeld dipole moment :      0.05626514
  |   Hirshfeld second moments:      0.00921651      -0.03102513      -0.02010486
  |                                 -0.03102513      -0.01906511       0.00949385
  |                                 -0.02010486       0.00949385      -0.01245214
  ----------------------------------------------------------------------
  | Atom    12: O
  |   Hirshfeld charge        :     -0.14775386
  |   Free atom volume        :     23.61338643
  |   Hirshfeld volume        :     20.94358083
  |   Hirshfeld dipole vector :      0.00905670       0.04181229      -0.00006933
  |   Hirshfeld dipole moment :      0.04278196
  |   Hirshfeld second moments:      0.10304678      -0.01673220       0.01558378
  |                                 -0.01673220       0.03257322       0.00769943
  |                                  0.01558378       0.00769943       0.03856136
  ----------------------------------------------------------------------
  | Atom    13: H
  |   Hirshfeld charge        :      0.17316846
  |   Free atom volume        :      9.95071624
  |   Hirshfeld volume        :      6.29766059
  |   Hirshfeld dipole vector :     -0.10560082       0.05088813      -0.01571756
  |   Hirshfeld dipole moment :      0.11827162
  |   Hirshfeld second moments:      0.12187978       0.00003622       0.00206325
  |                                  0.00003622       0.09849887       0.01415743
  |                                  0.00206325       0.01415743       0.11305989
  ----------------------------------------------------------------------


  Total energy components:
  | Sum of eigenvalues            :        -180.86351126 Ha       -4921.54654704 eV
  | XC energy correction          :         -42.63983780 Ha       -1160.28902132 eV
  | XC potential correction       :          54.82035616 Ha        1491.73779002 eV
  | Free-atom electrostatic energy:        -146.83946685 Ha       -3995.70519233 eV
  | Hartree energy correction     :          -7.95274105 Ha        -216.40509464 eV
  | vdW energy correction         :          -0.00327619 Ha          -0.08914953 eV
  | Entropy correction            :           0.00000000 Ha           0.00000000 eV
  | ---------------------------
  | Total energy                  :        -323.47847699 Ha       -8802.29721484 eV
  | Total energy, T -> 0          :        -323.47847699 Ha       -8802.29721484 eV  <-- do not rely on this value for anything but (periodic) metals
  | Electronic free energy        :        -323.47847699 Ha       -8802.29721484 eV

  Derived energy quantities:
  | Kinetic energy                :         322.61039408 Ha        8778.67547688 eV
  | Electrostatic energy          :        -603.44575708 Ha      -16420.59452086 eV
  | Energy correction for multipole
  | error in Hartree potential    :           0.04099434 Ha           1.11551265 eV
  | Sum of eigenvalues per atom                           :        -378.58050362 eV
  | Total energy (T->0) per atom                          :        -677.09978576 eV  <-- do not rely on this value for anything but (periodic) metals
  | Electronic free energy per atom                       :        -677.09978576 eV

  atomic forces [eV/Ang]:
  -----------------------
  atom #    1
   Hellmann-Feynman              :  0.274866E+00  0.462820E+00  0.140119E+01
   Ionic forces                  :  0.000000E+00  0.000000E+00  0.000000E+00
   Multipole                     : -0.138199E+00  0.339804E+00 -0.268459E+00
   Pulay + GGA                   : -0.759189E+00 -0.244568E+00 -0.151735E+01
   Van der Waals                 :  0.378107E-02  0.198191E-02 -0.138437E-02
   ----------------------------------------------------------------
   Total forces(   1)            : -0.618740E+00  0.560038E+00 -0.386010E+00
  atom #    2
   Hellmann-Feynman              :  0.337083E+00 -0.157420E-01  0.409365E-01
   Ionic forces                  :  0.000000E+00  0.000000E+00  0.000000E+00
   Multipole                     :  0.174620E+00  0.971858E-02 -0.334880E-01
   Pulay + GGA                   : -0.164764E+00 -0.356771E-02 -0.102235E-01
   Van der Waals                 :  0.506135E-02 -0.659027E-02 -0.552707E-02
   ----------------------------------------------------------------
   Total forces(   2)            :  0.352001E+00 -0.161814E-01 -0.830208E-02
  atom #    3
   Hellmann-Feynman              :  0.844581E+01 -0.606305E+01 -0.559006E+01
   Ionic forces                  :  0.000000E+00  0.000000E+00  0.000000E+00
   Multipole                     : -0.348484E+00  0.182701E+00 -0.108273E+01
   Pulay + GGA                   : -0.756895E+01  0.538803E+01  0.717795E+01
   Van der Waals                 :  0.537751E-02 -0.338407E-02 -0.986176E-02
   ----------------------------------------------------------------
   Total forces(   3)            :  0.533755E+00 -0.495706E+00  0.495300E+00
  atom #    4
   Hellmann-Feynman              : -0.199650E+00  0.255408E+00 -0.252008E+00
   Ionic forces                  :  0.000000E+00  0.000000E+00  0.000000E+00
   Multipole                     : -0.821286E-01 -0.183434E-01 -0.660395E-01
   Pulay + GGA                   :  0.273228E+00  0.593688E-01 -0.137093E+00
   Van der Waals                 : -0.416370E-03  0.143560E-03 -0.348217E-02
   ----------------------------------------------------------------
   Total forces(   4)            : -0.896702E-02  0.296577E+00 -0.458622E+00
  atom #    5
   Hellmann-Feynman              : -0.235373E+00  0.202040E+00 -0.237185E-01
   Ionic forces                  :  0.000000E+00  0.000000E+00  0.000000E+00
   Multipole                     : -0.594369E-01  0.565122E-01 -0.776541E-01
   Pulay + GGA                   :  0.874231E-01 -0.221937E+00  0.115937E-01
   Van der Waals                 : -0.354259E-02 -0.733910E-02 -0.509531E-02
   ----------------------------------------------------------------
   Total forces(   5)            : -0.210929E+00  0.292753E-01 -0.948742E-01
  atom #    6
   Hellmann-Feynman              :  0.299318E+00 -0.925726E+00  0.579717E+00
   Ionic forces                  :  0.000000E+00  0.000000E+00  0.000000E+00
   Multipole                     : -0.129775E+00  0.591183E+00  0.219028E+00
   Pulay + GGA                   :  0.925657E-01 -0.101063E+00 -0.445977E+00
   Van der Waals                 : -0.240703E-02  0.871896E-02  0.408455E-02
   ----------------------------------------------------------------
   Total forces(   6)            :  0.259702E+00 -0.426887E+00  0.356852E+00
  atom #    7
   Hellmann-Feynman              : -0.246892E+00 -0.468431E-01 -0.311165E-01
   Ionic forces                  :  0.000000E+00  0.000000E+00  0.000000E+00
   Multipole                     : -0.116129E+00  0.508222E-01  0.283223E-01
   Pulay + GGA                   :  0.105438E+00  0.288854E-01  0.121339E-01
   Van der Waals                 : -0.384650E-02  0.269152E-03  0.661671E-02
   ----------------------------------------------------------------
   Total forces(   7)            : -0.261430E+00  0.331335E-01  0.159564E-01
  atom #    8
   Hellmann-Feynman              :  0.810819E-01  0.493885E-01  0.218979E+00
   Ionic forces                  :  0.000000E+00  0.000000E+00  0.000000E+00
   Multipole                     :  0.145417E-01  0.645505E-01  0.123144E+00
   Pulay + GGA                   : -0.435497E-01 -0.424636E-01 -0.110949E+00
   Van der Waals                 : -0.324305E-02  0.110658E-01  0.306395E-03
   ----------------------------------------------------------------
   Total forces(   8)            :  0.488308E-01  0.825412E-01  0.231480E+00
  atom #    9
   Hellmann-Feynman              :  0.103042E+00  0.648445E-01 -0.190868E+00
   Ionic forces                  :  0.000000E+00  0.000000E+00  0.000000E+00
   Multipole                     :  0.185336E-01  0.133346E+00 -0.773633E-02
   Pulay + GGA                   : -0.317173E-01 -0.709277E-01  0.866109E-01
   Van der Waals                 : -0.199235E-02  0.542671E-02  0.751834E-02
   ----------------------------------------------------------------
   Total forces(   9)            :  0.878660E-01  0.132689E+00 -0.104475E+00
  atom #   10
   Hellmann-Feynman              :  0.288722E+01  0.501728E+01  0.214328E+01
   Ionic forces                  :  0.000000E+00  0.000000E+00  0.000000E+00
   Multipole                     :  0.284829E-01 -0.678930E-01  0.293467E+00
   Pulay + GGA                   : -0.842783E+00 -0.324984E+01 -0.470027E+00
   Van der Waals                 :  0.356427E-02 -0.106619E-01 -0.147204E-02
   ----------------------------------------------------------------
   Total forces(  10)            :  0.207649E+01  0.168889E+01  0.196525E+01
  atom #   11
   Hellmann-Feynman              :  0.376751E+01 -0.230691E+01  0.139731E+02
   Ionic forces                  :  0.000000E+00  0.000000E+00  0.000000E+00
   Multipole                     :  0.411458E-01 -0.526765E+00  0.734636E+00
   Pulay + GGA                   : -0.276865E+01  0.340784E+01 -0.139656E+02
   Van der Waals                 : -0.142452E-03 -0.119774E-01  0.550907E-02
   ----------------------------------------------------------------
   Total forces(  11)            :  0.103986E+01  0.562178E+00  0.747710E+00
  atom #   12
   Hellmann-Feynman              :  0.237616E-01 -0.148464E+02 -0.431724E+01
   Ionic forces                  :  0.000000E+00  0.000000E+00  0.000000E+00
   Multipole                     : -0.782561E+00 -0.154378E+01 -0.112502E+00
   Pulay + GGA                   : -0.172434E+01  0.144899E+02  0.261130E+01
   Van der Waals                 :  0.676752E-03  0.645408E-02  0.423944E-02
   ----------------------------------------------------------------
   Total forces(  12)            : -0.248246E+01 -0.189387E+01 -0.181421E+01
  atom #   13
   Hellmann-Feynman              : -0.103757E+01 -0.275452E+00 -0.111280E+01
   Ionic forces                  :  0.000000E+00  0.000000E+00  0.000000E+00
   Multipole                     : -0.903467E-01  0.318598E-01  0.279069E-01
   Pulay + GGA                   :  0.309396E+00 -0.313304E+00  0.136382E+00
   Van der Waals                 : -0.287062E-02  0.589259E-02 -0.145178E-02
   ----------------------------------------------------------------
   Total forces(  13)            : -0.821395E+00 -0.551004E+00 -0.949959E+00

  Timings for VdW correction (Tkatchenko-Scheffler 2009 or later):
  | CPU time:        0.093 s, Wall clock time:        0.101 s.
  Removing unitary transformations (pure translations, rotations) from forces on atoms.
  Atomic forces before filtering:
  | Net force on center of mass :  -0.542676E-02  0.167659E-02 -0.390424E-02 eV/A
  | Net torque on center of mass:  -0.403330E-03  0.449582E-03 -0.118021E-01 eV
  Atomic forces after filtering:
  | Net force on center of mass :  -0.178406E-15  0.267609E-15  0.178406E-15 eV/A
  | Net torque on center of mass:   0.136892E-14 -0.566451E-15  0.188817E-15 eV

  Energy and forces in a compact form:
  | Total energy uncorrected      :         -0.880229721484032E+04 eV
  | Total energy corrected        :         -0.880229721484032E+04 eV  <-- do not rely on this value for anything but (periodic) metals
  | Electronic free energy        :         -0.880229721484032E+04 eV
  Total atomic forces (unitary forces cleaned) [eV/Ang]:
  |   1         -0.618324692106948E+00          0.560137498060776E+00         -0.385699165252563E+00
  |   2          0.352416339149077E+00         -0.156376365156991E-01         -0.797106486474235E-02
  |   3          0.534197033796228E+00         -0.495751092681402E+00          0.495601910047900E+00
  |   4         -0.831680637477163E-02          0.296174481056608E+00         -0.458354447518103E+00
  |   5         -0.210873307651080E+00          0.291853442411825E-01         -0.945407125469466E-01
  |   6          0.259590943081080E+00         -0.427014577125124E+00          0.357198130246344E+00
  |   7         -0.261551686302988E+00          0.325616130116509E-01          0.162834034667564E-01
  |   8          0.486961761665284E-01          0.825242704751325E-01          0.231833065064871E+00
  |   9          0.873994557009575E-01          0.132726401595557E+00         -0.104090455917505E+00
  |  10          0.207741251162169E+01          0.168880471716248E+01          0.196550446096927E+01
  |  11          0.104087482252536E+01          0.562169843798448E+00          0.747964122394831E+00
  |  12         -0.248118198354847E+01         -0.189422008510763E+01         -0.181399107091937E+01
  |  13         -0.820338806056665E+00         -0.551660777971977E+00         -0.949738175170742E+00

  ------------------------------------ 
  Start decomposition of the XC Energy 
  ------------------------------------ 
  X and C from original XC functional choice 
  Hartree-Fock Energy :          0.000000000 Ha              0.000000000 eV
  X Energy            :        -41.038445740 Ha          -1116.712926325 eV
  C Energy            :         -1.601392057 Ha            -43.576094998 eV
  Total XC Energy     :        -42.639837797 Ha          -1160.289021324 eV
  ------------------------------------ 
  LDA X and C from self-consistent density 
  X Energy LDA        :        -37.258156420 Ha          -1013.846020110 eV
  C Energy LDA        :         -3.138807448 Ha            -85.411296347 eV
  ------------------------------------ 
  End decomposition of the XC Energy 
  ------------------------------------ 

------------------------------------------------------------

------------------------------------------------------------------------------
  Final output of selected total energy values:

  The following output summarizes some interesting total energy values
  at the end of a run (AFTER all relaxation, molecular dynamics, etc.).

  | Total energy of the DFT / Hartree-Fock s.c.f. calculation      :          -8802.297214840 eV
  | Final zero-broadening corrected energy (caution - metals only) :          -8802.297214840 eV
  | For reference only, the value of 1 Hartree used in FHI-aims is :             27.211384500 eV

  Before relying on these values, please be sure to understand exactly which
  total energy value is referred to by a given number. Different objects may
  all carry the same name 'total energy'. Definitions:

  Total energy of the DFT / Hartree-Fock s.c.f. calculation:
  | Note that this energy does not include ANY quantities calculated after the
  | s.c.f. cycle, in particular not ANY RPA, MP2, etc. many-body perturbation terms.

  Final zero-broadening corrected energy:
  | For metallic systems only, a broadening of the occupation numbers at the Fermi
  | level can be extrapolated back to zero broadening by an electron-gas inspired
  | formula. For all systems that are not real metals, this value can be
  | meaningless and should be avoided.

------------------------------------------------------------------------------
  Methods described in the following list of references were used in this FHI-aims run.
  If you publish the results, please make sure to cite these reference if they apply.
  FHI-aims is an academic code, and for our developers (often, Ph.D. students
  and postdocs), scientific credit in the community is essential.
  Thank you for helping us!

  For any use of FHI-aims, please cite:

    Volker Blum, Ralf Gehrke, Felix Hanke, Paula Havu, Ville Havu,
    Xinguo Ren, Karsten Reuter, and Matthias Scheffler
    'Ab initio molecular simulations with numeric atom-centered orbitals'
    Computer Physics Communications 180, 2175-2196 (2009)
    http://dx.doi.org/10.1016/j.cpc.2009.06.022


  The scalable eigensolver library ELPA was used in your run.
  ELPA is essential especially for large systems on hundreds or thousands of CPUs.
  For ELPA, please cite:

    Andreas Marek, Volker Blum, Rainer Johanni, Ville Havu, Bruno Lang,
    Thomas Auckenthaler, Alexander Heinecke, Hans-Joachim Bungartz, and Hermann Lederer,
    'The ELPA Library - Scalable Parallel Eigenvalue Solutions
    for Electronic Structure Theory and Computational Science'
    The Journal of Physics: Condensed Matter 26, 213201 (2014).
    http://dx.doi.org/10.1088/0953-8984/26/21/213201


  The ELSI infrastructure was used in your run to solve the Kohn-Sham electronic structure.
  Please check out http://elsi-interchange.org to learn more.
  If scalability is important for your project, please acknowledge ELSI by citing:

    V. W-z. Yu, F. Corsetti, A. Garcia, W. P. Huhn, M. Jacquelin, W. Jia,
    B. Lange, L. Lin, J. Lu, W. Mi, A. Seifitokaldani, A. Vazquez-Mayagoitia,
    C. Yang, H. Yang, and V. Blum
    'ELSI: A unified software interface for Kohn-Sham electronic structure solvers'
    Computer Physics Communications 222, 267-285 (2018).
    http://dx.doi.org/10.1016/j.cpc.2017.09.007


  For the real-space grid partitioning and parallelization used in this calculation, please cite:

    Ville Havu, Volker Blum, Paula Havu, and Matthias Scheffler,
    'Efficient O(N) integration for all-electron electronic structure calculation'
    'using numerically tabulated basis functions'
    Journal of Computational Physics 228, 8367-8379 (2009).
    http://dx.doi.org/10.1016/j.jcp.2009.08.008

  Of course, there are many other important community references, e.g., those cited in the
  above references. Our list is limited to references that describe implementations in the
  FHI-aims code. The reason is purely practical (length of this list) - please credit others as well.

------------------------------------------------------------
          Leaving FHI-aims.
          Date     :  20200710, Time     :  151551.964

          Computational steps:
          | Number of self-consistency cycles          :           16
          | Number of SCF (re)initializations          :            1

          Detailed time accounting                     :  max(cpu_time)    wall_clock(cpu1)
          | Total time                                 :       22.925 s          23.007 s
          | Preparation time                           :        0.148 s           0.149 s
          | Boundary condition initalization           :        0.000 s           0.000 s
          | Grid partitioning                          :        0.112 s           0.113 s
          | Preloading free-atom quantities on grid    :        0.002 s           0.003 s
          | Free-atom superposition energy             :        0.085 s           0.084 s
          | Total time for integrations                :        8.737 s           8.751 s
          | Total time for solution of K.-S. equations :        0.037 s           0.040 s
          | Total time for density & force components  :        7.227 s           7.240 s
          | Total time for mixing                      :        0.223 s           0.226 s
          | Total time for Hartree multipole update    :        0.143 s           0.146 s
          | Total time for Hartree multipole sum       :        5.802 s           5.805 s
          | Total time for total energy evaluation     :        0.003 s           0.004 s
          | Total time for vdW correction              :        0.093 s           0.101 s

          Partial memory accounting:
          | Residual value for overall tracked memory usage across tasks :           0.000 MB (should be 0.000 MB)
          | Peak values for overall tracked memory usage (after allocating hessian_basis_wave):
          |   Minimum:        1.622 MB (on task 1)
          |   Maximum:        1.622 MB (on task 1)
          |   Average:        1.622 MB
          | Largest tracked array allocation (hessian_basis_wave):
          |   Minimum:        0.794 MB (on task 1)
          |   Maximum:        0.794 MB (on task 1)
          |   Average:        0.794 MB
          Note:  These values currently only include a subset of arrays which are explicitly tracked.
          The "true" memory usage will be greater.

          Have a nice day.
------------------------------------------------------------
