  MPI-parallelism will be employed.
------------------------------------------------------------
          Invoking FHI-aims ...
          Version 171221_1
          Compiled on 2019/09/09 at 14:39:39 on host puhti-login2.bullx.

          When using FHI-aims, please cite the following reference:

          Volker Blum, Ralf Gehrke, Felix Hanke, Paula Havu,
          Ville Havu, Xinguo Ren, Karsten Reuter, and Matthias Scheffler,
          'Ab Initio Molecular Simulations with Numeric Atom-Centered Orbitals',
          Computer Physics Communications 180, 2175-2196 (2009)

          For any questions about FHI-aims, please visit the aimsclub website
          with its forums and wiki. Contributions to both the forums and the
          wiki are warmly encouraged - they are for you, and everyone is welcome there.

------------------------------------------------------------



  Date     :  20200805, Time     :  190024.639
  Time zero on CPU 1             :   0.163350000000000E-01  s.
  Internal wall clock time zero  :           365886024.639  s.

  FHI-aims created a unique identifier for this run for later identification
  aims_uuid : 4FAF65CD-D028-4E1C-A106-AA8A8B1A3E04

  Using        1 parallel tasks.
  Task        0 on host r18c08.bullx reporting.

  Performing system and environment tests:
  | Environment variable OMP_NUM_THREADS correctly set to 1.
  | Stacksize not measured: no C compiler
  | Checking for scalapack...
  | Testing pdtran()...
  | All pdtran() tests passed.

  Obtaining array dimensions for all initial allocations:
  
  -----------------------------------------------------------------------
  Parsing control.in (first pass over file, find array dimensions only).
  The contents of control.in will be repeated verbatim below
  unless switched off by setting 'verbatim_writeout .false.' .
  in the first line of control.in .
  -----------------------------------------------------------------------
  
  #########################################################################################
  #
  #  Volker Blum, FHI 2009 : Test run input file control.in for simple H2O
  #
  #########################################################################################
  #
  #  Physical model
  #
    xc                 pbe
    vdw_correction_hirshfeld
    spin               none
    relativistic       none
    charge             0.
  #
  #  SCF convergence
  #
    occupation_type    gaussian 0.01
    mixer              pulay
      n_max_pulay        10
      charge_mix_param   0.2
    sc_accuracy_rho    1E-5
    sc_accuracy_eev    1E-3
    sc_accuracy_etot   1E-6
    sc_accuracy_forces 1E-4
    sc_iter_limit      100
  #
  #  Relaxation
  #
  #  relax_geometry   bfgs 1.e-3
  #
  ################################################################################
  #
  #  FHI-aims code project
  #  VB, Fritz-Haber Institut, 2009
  #
  #  Suggested "light" defaults for H atom (to be pasted into control.in file)
  #  Be sure to double-check any results obtained with these settings for post-processing,
  #  e.g., with the "tight" defaults and larger basis sets.
  #
  ################################################################################
    species        H
  #     global species definitions
      nucleus             1
      mass                1.00794
  #
      l_hartree           4
  #
      cut_pot             3.5  1.5  1.0
      basis_dep_cutoff    1e-4
  #
      radial_base         24 5.0
      radial_multiplier   1
      angular_grids       specified
        division   0.2421   50
        division   0.3822  110
        division   0.4799  194
        division   0.5341  302
  #      division   0.5626  434
  #      division   0.5922  590
  #      division   0.6542  770
  #      division   0.6868 1202
  #      outer_grid  770
        outer_grid  302
  ################################################################################
  #
  #  Definition of "minimal" basis
  #
  ################################################################################
  #     valence basis states
      valence      1  s   1.
  #     ion occupancy
      ion_occ      1  s   0.5
  ################################################################################
  #
  #  Suggested additional basis functions. For production calculations,
  #  uncomment them one after another (the most important basis functions are
  #  listed first).
  #
  #  Basis constructed for dimers: 0.5 A, 0.7 A, 1.0 A, 1.5 A, 2.5 A
  #
  ################################################################################
  #  "First tier" - improvements: -1014.90 meV to -62.69 meV
       hydro 2 s 2.1
       hydro 2 p 3.5
  #  "Second tier" - improvements: -12.89 meV to -1.83 meV
  #     hydro 1 s 0.85
  #     hydro 2 p 3.7
  #     hydro 2 s 1.2
  #     hydro 3 d 7
  #  "Third tier" - improvements: -0.25 meV to -0.12 meV
  #     hydro 4 f 11.2
  #     hydro 3 p 4.8
  #     hydro 4 d 9
  #     hydro 3 s 3.2
  ################################################################################
  #
  #  FHI-aims code project
  #  VB, Fritz-Haber Institut, 2009
  #
  #  Suggested "light" defaults for C atom (to be pasted into control.in file)
  #  Be sure to double-check any results obtained with these settings for post-processing,
  #  e.g., with the "tight" defaults and larger basis sets.
  #
  ################################################################################
    species        C
  #     global species definitions
      nucleus             6
      mass                12.0107
  #
      l_hartree           4
  #
      cut_pot             3.5  1.5  1.0
      basis_dep_cutoff    1e-4
  #
      radial_base         34 5.0
      radial_multiplier   1
      angular_grids specified
        division   0.3326   50
        division   0.5710  110
        division   0.7727  194
        division   0.8772  302
  #      division   0.9334  434
  #      division   0.9625  590
  #      division   0.9924  770
  #      division   1.0230  974
  #      division   1.4589 1202
  #     outer_grid  974
       outer_grid 302
  ################################################################################
  #
  #  Definition of "minimal" basis
  #
  ################################################################################
  #     valence basis states
      valence      2  s   2.
      valence      2  p   2.
  #     ion occupancy
      ion_occ      2  s   1.
      ion_occ      2  p   1.
  ################################################################################
  #
  #  Suggested additional basis functions. For production calculations,
  #  uncomment them one after another (the most important basis functions are
  #  listed first).
  #
  #  Constructed for dimers: 1.0 A, 1.25 A, 1.5 A, 2.0 A, 3.0 A
  #
  ################################################################################
  #  "First tier" - improvements: -1214.57 meV to -155.61 meV
       hydro 2 p 1.7
       hydro 3 d 6
       hydro 2 s 4.9
  #  "Second tier" - improvements: -67.75 meV to -5.23 meV
  #     hydro 4 f 9.8
  #     hydro 3 p 5.2
  #     hydro 3 s 4.3
  #     hydro 5 g 14.4
  #     hydro 3 d 6.2
  #  "Third tier" - improvements: -2.43 meV to -0.60 meV
  #     hydro 2 p 5.6
  #     hydro 2 s 1.4
  #     hydro 3 d 4.9
  #     hydro 4 f 11.2
  #  "Fourth tier" - improvements: -0.39 meV to -0.18 meV
  #     hydro 2 p 2.1
  #     hydro 5 g 16.4
  #     hydro 4 d 13.2
  #     hydro 3 s 13.6
  #     hydro 4 f 17.6
  #  Further basis functions - improvements: -0.08 meV and below
  #     hydro 3 s 2
  #     hydro 3 p 6
  #     hydro 4 d 20
  ################################################################################
  #
  #  FHI-aims code project
  #  VB, Fritz-Haber Institut, 2009
  #
  #  Suggested "light" defaults for N atom (to be pasted into control.in file)
  #  Be sure to double-check any results obtained with these settings for post-processing,
  #  e.g., with the "tight" defaults and larger basis sets.
  #
  ################################################################################
    species        N
  #     global species definitions
      nucleus             7
      mass                14.0067
  #
      l_hartree           4
  #
      cut_pot             3.5  1.5  1.0
      basis_dep_cutoff    1e-4
  #
      radial_base         35 5.0
      radial_multiplier   1
      angular_grids       specified
        division   0.2599   50
        division   0.4601  110
        division   0.5885  194
        division   0.6503  302
  #      division   0.6939  434
  #      division   0.7396  590
  #      division   0.7632  770
  #      division   0.8122  974
  #      division   1.1604 1202
  #      outer_grid  974
        outer_grid  302
  ################################################################################
  #
  #  Definition of "minimal" basis
  #
  ################################################################################
  #     valence basis states
      valence      2  s   2.
      valence      2  p   3.
  #     ion occupancy
      ion_occ      2  s   1.
      ion_occ      2  p   2.
  ################################################################################
  #
  #  Suggested additional basis functions. For production calculations,
  #  uncomment them one after another (the most important basis functions are
  #  listed first).
  #
  #  Constructed for dimers: 1.0 A, 1.1 A, 1.5 A, 2.0 A, 3.0 A
  #
  ################################################################################
  #  "First tier" - improvements: -1193.42 meV to -220.60 meV
       hydro 2 p 1.8
       hydro 3 d 6.8
       hydro 3 s 5.8
  #  "Second tier" - improvements: -80.21 meV to -6.86 meV
  #     hydro 4 f 10.8
  #     hydro 3 p 5.8
  #     hydro 1 s 0.8
  #     hydro 5 g 16
  #     hydro 3 d 4.9
  #  "Third tier" - improvements: -4.29 meV to -0.53 meV
  #     hydro 3 s 16
  #     ionic 2 p auto
  #     hydro 3 d 6.6
  #     hydro 4 f 11.6
  #  "Fourth tier" - improvements: -0.75 meV to -0.25 meV
  #     hydro 2 p 4.5
  #     hydro 2 s 2.4
  #     hydro 5 g 14.4
  #     hydro 4 d 14.4
  #     hydro 4 f 16.8
  # Further basis functions - -0.21 meV and below
  #     hydro 3 p 14.8
  #     hydro 3 s 4.4
  #     hydro 3 d 19.6
  #     hydro 5 g 12.8
  ################################################################################
  #
  #  FHI-aims code project
  #  VB, Fritz-Haber Institut, 2009
  #
  #  Suggested "light" defaults for O atom (to be pasted into control.in file)
  #  Be sure to double-check any results obtained with these settings for post-processing,
  #  e.g., with the "tight" defaults and larger basis sets.
  #
  ################################################################################
    species        O
  #     global species definitions
      nucleus             8
      mass                15.9994
  #
      l_hartree           4
  #
      cut_pot             3.5  1.5  1.0
      basis_dep_cutoff    1e-4
  #
      radial_base         36 5.0
      radial_multiplier   1
       angular_grids specified
        division   0.2659   50
        division   0.4451  110
        division   0.6052  194
        division   0.7543  302
  #      division   0.8014  434
  #      division   0.8507  590
  #      division   0.8762  770
  #      division   0.9023  974
  #      division   1.2339 1202
  #      outer_grid 974
        outer_grid 302
  ################################################################################
  #
  #  Definition of "minimal" basis
  #
  ################################################################################
  #     valence basis states
      valence      2  s   2.
      valence      2  p   4.
  #     ion occupancy
      ion_occ      2  s   1.
      ion_occ      2  p   3.
  ################################################################################
  #
  #  Suggested additional basis functions. For production calculations,
  #  uncomment them one after another (the most important basis functions are
  #  listed first).
  #
  #  Constructed for dimers: 1.0 A, 1.208 A, 1.5 A, 2.0 A, 3.0 A
  #
  ################################################################################
  #  "First tier" - improvements: -699.05 meV to -159.38 meV
       hydro 2 p 1.8
       hydro 3 d 7.6
       hydro 3 s 6.4
  #  "Second tier" - improvements: -49.91 meV to -5.39 meV
  #     hydro 4 f 11.6
  #     hydro 3 p 6.2
  #     hydro 3 d 5.6
  #     hydro 5 g 17.6
  #     hydro 1 s 0.75
  #  "Third tier" - improvements: -2.83 meV to -0.50 meV
  #     ionic 2 p auto
  #     hydro 4 f 10.8
  #     hydro 4 d 4.7
  #     hydro 2 s 6.8
  #  "Fourth tier" - improvements: -0.40 meV to -0.12 meV
  #     hydro 3 p 5
  #     hydro 3 s 3.3
  #     hydro 5 g 15.6
  #     hydro 4 f 17.6
  #     hydro 4 d 14
  # Further basis functions - -0.08 meV and below
  #     hydro 3 s 2.1
  #     hydro 4 d 11.6
  #     hydro 3 p 16
  #     hydro 2 s 17.2
  
  -----------------------------------------------------------------------
  Completed first pass over input file control.in .
  -----------------------------------------------------------------------
  
  
  -----------------------------------------------------------------------
  Parsing geometry.in (first pass over file, find array dimensions only).
  The contents of geometry.in will be repeated verbatim below
  unless switched off by setting 'verbatim_writeout .false.' .
  in the first line of geometry.in .
  -----------------------------------------------------------------------
  
  atom  0.00000 0.00000 0.00000 C
  atom  1.09300 0.00000 0.00000 H
  atom  -0.47961 0.00000 -1.41207 N
  atom  -0.01761 0.75896 -1.91442 H
  atom  -0.24697 -0.89557 -1.83628 H
  atom  -0.49584 1.26211 0.72868 C
  atom  -1.58789 1.28919 0.74431 H
  atom  -0.13407 1.27425 1.75947 H
  atom  -0.13407 2.16087 0.22380 H
  atom  -0.39425 -1.28861 0.74398 C
  atom  -0.10189 -1.56493 1.88303 O
  atom  -1.10210 -2.13717 0.06896 O
  atom  -0.59177 -2.12128 -0.75826 H
  
  -----------------------------------------------------------------------
  Completed first pass over input file geometry.in .
  -----------------------------------------------------------------------
  

  Basic array size parameters:
  | Number of species                 :        4
  | Number of atoms                   :       13
  | Max. basis fn. angular momentum   :        2
  | Max. atomic/ionic basis occupied n:        2
  | Max. number of basis fn. types    :        2
  | Max. radial fns per species/type  :        3
  | Max. logarithmic grid size        :     1301
  | Max. radial integration grid size :       36
  | Max. angular integration grid size:      302
  | Max. angular grid division number :        8
  | Radial grid for Hartree potential :     1301
  | Number of spin channels           :        1

------------------------------------------------------------
          Reading file control.in.
------------------------------------------------------------
  XC: Using PBE gradient-corrected functionals.
  Spin treatment: No spin polarisation.
  Non-relativistic treatment of kinetic energy.
  Charge =   0.000000E+00: Neutral system requested explicitly.
  Occupation type: Gaussian broadening, width =   0.100000E-01 eV.
  Using pulay charge density mixing.
  Pulay mixing - number of memorized iterations:   10
  Charge density mixing - mixing parameter:     0.2000
  Convergence accuracy of self-consistent charge density:  0.1000E-04
  Convergence accuracy of sum of eigenvalues:  0.1000E-02
  Convergence accuracy of total energy:  0.1000E-05
  Convergence accuracy of forces:  0.1000E-03
  Maximum number of s.-c. iterations  :   100
 
  Reading configuration options for species H                   .
  | Found nuclear charge :   1.0000
  | Found atomic mass :    1.00794000000000      amu
  | Found l_max for Hartree potential  :   4
  | Found cutoff potl. onset [A], width [A], scale factor :    3.50000    1.50000    1.00000
  | Threshold for basis-dependent cutoff potential is   0.100000E-03
  | Found data for basic radial integration grid :    24 points, outermost radius =    5.000 A
  | Found multiplier for basic radial grid :   1
  | Found angular grid specification: user-specified.
  | Specified grid contains     5 separate shells.
  | Check grid settings after all constraints further below.
  | Found free-atom valence shell :  1 s   1.000
  | No ionic wave fns used. Skipping ion_occ.
  | Found hydrogenic basis function :  2 s   2.100
  | Found hydrogenic basis function :  2 p   3.500
  Species H                   : Missing cutoff potential type.
  Defaulting to exp(1/x)/(1-x)^2 type cutoff potential.
  Species H : No 'logarithmic' tag. Using default grid for free atom:
  | Default logarithmic grid data [bohr] : 0.1000E-03 0.1000E+03 0.1012E+01
  Species H : On-site basis accuracy parameter (for Gram-Schmidt orthonormalisation) not specified.
  Using default value basis_acc =  0.1000000E-03.
  Species H                   : Using default innermost maximum threshold i_radial=  2 for radial functions.
  Species H                   : Default cutoff onset for free atom density etc. : 0.35000000E+01 AA.
  Species H                   : Basic radial grid will be enhanced according to radial_multiplier =   1, to contain    24 grid points.
 
  Reading configuration options for species C                   .
  | Found nuclear charge :   6.0000
  | Found atomic mass :    12.0107000000000      amu
  | Found l_max for Hartree potential  :   4
  | Found cutoff potl. onset [A], width [A], scale factor :    3.50000    1.50000    1.00000
  | Threshold for basis-dependent cutoff potential is   0.100000E-03
  | Found data for basic radial integration grid :    34 points, outermost radius =    5.000 A
  | Found multiplier for basic radial grid :   1
  | Found angular grid specification: user-specified.
  | Specified grid contains     5 separate shells.
  | Check grid settings after all constraints further below.
  | Found free-atom valence shell :  2 s   2.000
  | Found free-atom valence shell :  2 p   2.000
  | No ionic wave fns used. Skipping ion_occ.
  | No ionic wave fns used. Skipping ion_occ.
  | Found hydrogenic basis function :  2 p   1.700
  | Found hydrogenic basis function :  3 d   6.000
  | Found hydrogenic basis function :  2 s   4.900
  Species C                   : Missing cutoff potential type.
  Defaulting to exp(1/x)/(1-x)^2 type cutoff potential.
  Species C : No 'logarithmic' tag. Using default grid for free atom:
  | Default logarithmic grid data [bohr] : 0.1000E-03 0.1000E+03 0.1012E+01
  Species C : On-site basis accuracy parameter (for Gram-Schmidt orthonormalisation) not specified.
  Using default value basis_acc =  0.1000000E-03.
  Species C                   : Using default innermost maximum threshold i_radial=  2 for radial functions.
  Species C                   : Default cutoff onset for free atom density etc. : 0.35000000E+01 AA.
  Species C                   : Basic radial grid will be enhanced according to radial_multiplier =   1, to contain    34 grid points.
 
  Reading configuration options for species N                   .
  | Found nuclear charge :   7.0000
  | Found atomic mass :    14.0067000000000      amu
  | Found l_max for Hartree potential  :   4
  | Found cutoff potl. onset [A], width [A], scale factor :    3.50000    1.50000    1.00000
  | Threshold for basis-dependent cutoff potential is   0.100000E-03
  | Found data for basic radial integration grid :    35 points, outermost radius =    5.000 A
  | Found multiplier for basic radial grid :   1
  | Found angular grid specification: user-specified.
  | Specified grid contains     5 separate shells.
  | Check grid settings after all constraints further below.
  | Found free-atom valence shell :  2 s   2.000
  | Found free-atom valence shell :  2 p   3.000
  | No ionic wave fns used. Skipping ion_occ.
  | No ionic wave fns used. Skipping ion_occ.
  | Found hydrogenic basis function :  2 p   1.800
  | Found hydrogenic basis function :  3 d   6.800
  | Found hydrogenic basis function :  3 s   5.800
  Species N                   : Missing cutoff potential type.
  Defaulting to exp(1/x)/(1-x)^2 type cutoff potential.
  Species N : No 'logarithmic' tag. Using default grid for free atom:
  | Default logarithmic grid data [bohr] : 0.1000E-03 0.1000E+03 0.1012E+01
  Species N : On-site basis accuracy parameter (for Gram-Schmidt orthonormalisation) not specified.
  Using default value basis_acc =  0.1000000E-03.
  Species N                   : Using default innermost maximum threshold i_radial=  2 for radial functions.
  Species N                   : Default cutoff onset for free atom density etc. : 0.35000000E+01 AA.
  Species N                   : Basic radial grid will be enhanced according to radial_multiplier =   1, to contain    35 grid points.
 
  Reading configuration options for species O                   .
  | Found nuclear charge :   8.0000
  | Found atomic mass :    15.9994000000000      amu
  | Found l_max for Hartree potential  :   4
  | Found cutoff potl. onset [A], width [A], scale factor :    3.50000    1.50000    1.00000
  | Threshold for basis-dependent cutoff potential is   0.100000E-03
  | Found data for basic radial integration grid :    36 points, outermost radius =    5.000 A
  | Found multiplier for basic radial grid :   1
  | Found angular grid specification: user-specified.
  | Specified grid contains     5 separate shells.
  | Check grid settings after all constraints further below.
  | Found free-atom valence shell :  2 s   2.000
  | Found free-atom valence shell :  2 p   4.000
  | No ionic wave fns used. Skipping ion_occ.
  | No ionic wave fns used. Skipping ion_occ.
  | Found hydrogenic basis function :  2 p   1.800
  | Found hydrogenic basis function :  3 d   7.600
  | Found hydrogenic basis function :  3 s   6.400
  Species O                   : Missing cutoff potential type.
  Defaulting to exp(1/x)/(1-x)^2 type cutoff potential.
  Species O : No 'logarithmic' tag. Using default grid for free atom:
  | Default logarithmic grid data [bohr] : 0.1000E-03 0.1000E+03 0.1012E+01
  Species O : On-site basis accuracy parameter (for Gram-Schmidt orthonormalisation) not specified.
  Using default value basis_acc =  0.1000000E-03.
  Species O                   : Using default innermost maximum threshold i_radial=  2 for radial functions.
  Species O                   : Default cutoff onset for free atom density etc. : 0.35000000E+01 AA.
  Species O                   : Basic radial grid will be enhanced according to radial_multiplier =   1, to contain    36 grid points.
 
  Finished reading input file 'control.in'. Consistency checks are next.
 
  MPI_IN_PLACE appears to work with this MPI implementation.
  | Keeping use_mpi_in_place .true. (see manual).
  Target number of points in a grid batch is not set. Defaulting to  100
  Method for grid partitioning is not set. Defaulting to parallel hash+maxmin partitioning.
  Batch size limit is not set. Defaulting to    200
  By default, will store active basis functions for each batch.
  If in need of memory, prune_basis_once .false. can be used to disable this option.
  communication_type for Hartree potential was not specified.
  Defaulting to calc_hartree .
  Pulay mixer: Number of initial linear mixing iterations not set.
  Defaulting to    0 iterations.
  Work space size for distributed Hartree potential not set.
  Defaulting to   0.200000E+03 MB.
  Algorithm-dependent basis array size parameters:
  | n_max_pulay                         :       10
  Presetting      1001 iterations before the initial mixing cycle
  is restarted anyway using the sc_init_iter criterion / keyword.
  Presetting a factor      1.000 between actual scf density residual
  and density convergence criterion sc_accuracy_rho below which sc_init_iter
  takes no effect.
  Geometry relaxation not requested: no relaxation will be performed.
  Handling of forces: Unphysical translation and rotation will be removed from forces.
  No accuracy limit for integral partition fn. given. Defaulting to  0.1000E-14.
  No threshold value for u(r) in integrations given. Defaulting to  0.1000E-05.
  No accuracy for occupation numbers given. Defaulting to  0.1000E-12.
  No threshold value for occupation numbers given. Defaulting to  0.0000E+00.
  No accuracy for fermi level given. Defaulting to  0.1000E-19.
  Maximum # of iterations to find E_F not set. Defaulting to  200.
  Preferred method for the eigenvalue solver ('KS_method') not specified in 'control.in'.
  Defaulting to serial version, 'lapack_fast'.
  Will not use alltoall communication since running on < 1024 CPUs.
  Threshold for basis singularities not set.
  Default threshold for basis singularities:  0.1000E-04
  partition_type (choice of integration weights) for integrals was not specified.
  | Using a version of the partition function of Stratmann and coworkers ('stratmann_smoother').
  | At each grid point, the set of atoms used to build the partition table is smoothly restricted to
  | only those atoms whose free-atom density would be non-zero at that grid point.
  Partitioning for Hartree potential was not defined. Using partition_type for integrals.
  | Adjusted default value of keyword multip_moments_threshold to:       0.10000000E-11
  | This value may affect high angular momentum components of the Hartree potential in periodic systems.
  No q(lm)/r^(l+1) cutoff set for long-range Hartree potential.
  | Using default value of  0.100000E-09 .
  | Verify using the multipole_threshold keyword.
  Defaulting to new monopole extrapolation.
  Density update method: automatic selection selected.
------------------------------------------------------------


------------------------------------------------------------
          Reading geometry description geometry.in.
------------------------------------------------------------
  Input structure read successfully.
  The structure contains       13 atoms,  and a total of         48.000 electrons.

  Input geometry:
  | No unit cell requested.
  | Atomic structure:
  |       Atom                x [A]            y [A]            z [A]
  |    1: Species C             0.00000000        0.00000000        0.00000000
  |    2: Species H             1.09300000        0.00000000        0.00000000
  |    3: Species N            -0.47961000        0.00000000       -1.41207000
  |    4: Species H            -0.01761000        0.75896000       -1.91442000
  |    5: Species H            -0.24697000       -0.89557000       -1.83628000
  |    6: Species C            -0.49584000        1.26211000        0.72868000
  |    7: Species H            -1.58789000        1.28919000        0.74431000
  |    8: Species H            -0.13407000        1.27425000        1.75947000
  |    9: Species H            -0.13407000        2.16087000        0.22380000
  |   10: Species C            -0.39425000       -1.28861000        0.74398000
  |   11: Species O            -0.10189000       -1.56493000        1.88303000
  |   12: Species O            -1.10210000       -2.13717000        0.06896000
  |   13: Species H            -0.59177000       -2.12128000       -0.75826000
  |

  | The smallest distance between any two atoms is         0.97210191 AA.
  |
  | The first atom of this pair is atom number                     12 .
  | The second atom of this pair is atom number                    13 .

  Number of empty states per atom not set in control.in - providing a guess from actual geometry.
  | Total number of empty states used during s.c.f. cycle:       29
  If you use a very high smearing, use empty_states (per atom!) in control.in to increase this value.

  Structure-dependent array size parameters: 
  | Maximum number of distinct radial functions  :       21
  | Maximum number of basis functions            :      119
  | Number of Kohn-Sham states (occupied + empty):       53
------------------------------------------------------------

------------------------------------------------------------
          Preparing all fixed parts of the calculation.
------------------------------------------------------------
  Determining machine precision:
    2.225073858507201E-308
  Setting up grids for atomic and cluster calculations.

  Creating wave function, potential, and density for free atoms.

  Species: H

  List of occupied orbitals and eigenvalues:
    n    l              occ      energy [Ha]    energy [eV]
    1    0           1.0000        -0.237589        -6.4651


  Species: C

  List of occupied orbitals and eigenvalues:
    n    l              occ      energy [Ha]    energy [eV]
    1    0           2.0000       -10.038835      -273.1706
    2    0           2.0000        -0.502696       -13.6791
    2    1           2.0000        -0.191971        -5.2238


  Species: N

  List of occupied orbitals and eigenvalues:
    n    l              occ      energy [Ha]    energy [eV]
    1    0           2.0000       -14.128000      -384.4424
    2    0           2.0000        -0.681077       -18.5330
    2    1           3.0000        -0.259788        -7.0692


  Species: O

  List of occupied orbitals and eigenvalues:
    n    l              occ      energy [Ha]    energy [eV]
    1    0           2.0000       -18.898188      -514.2459
    2    0           2.0000        -0.878505       -23.9053
    2    1           4.0000        -0.331779        -9.0282

  Creating fixed part of basis set: Ionic, confined, hydrogenic.
 
  H                    hydrogenic:
 
  List of hydrogenic basis orbitals: 
    n    l      effective z      eigenvalue [eV]  inner max. [A]     outer max. [A]     outer radius [A]   
    2    0         2.100000       -14.9728           0.193243           1.317208           4.583499
    2    1         3.500000       -41.6669           0.602369           0.602369           3.723403
 
 
  C                    hydrogenic:
 
  List of hydrogenic basis orbitals: 
    n    l      effective z      eigenvalue [eV]  inner max. [A]     outer max. [A]     outer radius [A]   
    2    1         1.700000        -9.7616           1.230570           1.230570           4.607917
    3    2         6.000000       -54.4224           0.792453           0.792453           3.883070
    2    0         4.900000       -81.6679           0.082559           0.562749           3.078220
 
 
  N                    hydrogenic:
 
  List of hydrogenic basis orbitals: 
    n    l      effective z      eigenvalue [eV]  inner max. [A]     outer max. [A]     outer radius [A]   
    2    1         1.800000       -10.9749           1.177451           1.177451           4.573712
    3    2         6.800000       -69.9026           0.704619           0.704619           3.538137
    3    0         5.800000       -50.8545           0.067388           1.191934           4.250239
 
 
  O                    hydrogenic:
 
  List of hydrogenic basis orbitals: 
    n    l      effective z      eigenvalue [eV]  inner max. [A]     outer max. [A]     outer radius [A]   
    2    1         1.800000       -10.9749           1.164242           1.164242           4.578029
    3    2         7.600000       -87.3180           0.624125           0.624125           3.251020
    3    0         6.400000       -61.9207           0.061167           1.081902           4.001998
 

  Adding cutoff potential to free-atom effective potential.
  Creating atomic-like basis functions for current effective potential.

  Species H                   :

  List of atomic basis orbitals and eigenvalues:
    n    l      energy [Ha]    energy [eV]    outer radius [A]
    1    0        -0.237589        -6.4651       4.527807


  Species C                   :

  List of atomic basis orbitals and eigenvalues:
    n    l      energy [Ha]    energy [eV]    outer radius [A]
    1    0       -10.038835      -273.1706       1.934409
    2    0        -0.502696       -13.6791       4.496620
    2    1        -0.191971        -5.2238       4.551928


  Species N                   :

  List of atomic basis orbitals and eigenvalues:
    n    l      energy [Ha]    energy [eV]    outer radius [A]
    1    0       -14.128000      -384.4424       1.637919
    2    0        -0.681077       -18.5330       4.463241
    2    1        -0.259788        -7.0692       4.518138


  Species O                   :

  List of atomic basis orbitals and eigenvalues:
    n    l      energy [Ha]    energy [eV]    outer radius [A]
    1    0       -18.898188      -514.2459       1.415765
    2    0        -0.878505       -23.9053       4.413171
    2    1        -0.331779        -9.0282       4.522403

  Assembling full basis from fixed parts.
  | Species H :   atomic orbital   1 s accepted.
  | Species H :    hydro orbital   2 s accepted.
  | Species H :    hydro orbital   2 p accepted.
  | Species C :   atomic orbital   1 s accepted.
  | Species C :    hydro orbital   2 s accepted.
  | Species C :   atomic orbital   2 s accepted.
  | Species C :   atomic orbital   2 p accepted.
  | Species C :    hydro orbital   2 p accepted.
  | Species C :    hydro orbital   3 d accepted.
  | Species N :   atomic orbital   1 s accepted.
  | Species N :    hydro orbital   3 s accepted.
  | Species N :   atomic orbital   2 s accepted.
  | Species N :   atomic orbital   2 p accepted.
  | Species N :    hydro orbital   2 p accepted.
  | Species N :    hydro orbital   3 d accepted.
  | Species O :   atomic orbital   1 s accepted.
  | Species O :    hydro orbital   3 s accepted.
  | Species O :   atomic orbital   2 s accepted.
  | Species O :   atomic orbital   2 p accepted.
  | Species O :    hydro orbital   2 p accepted.
  | Species O :    hydro orbital   3 d accepted.
 
  Basis size parameters after reduction:
  | Total number of radial functions:       21
  | Total number of basis functions :      119
 
  Per-task memory consumption for arrays in subroutine allocate_ext:
  |           5.250512MB.
  Testing on-site integration grid accuracy.
  |  Species  Function  <phi|h_atom|phi> (log., in eV)  <phi|h_atom|phi> (rad., in eV)
           1        1                 -6.4663192853                 -6.4651273558
           1        2                 13.7111246313                 13.7170609718
           1        3                 25.2673269279                 25.2674696378
           2        4               -273.1705927641               -273.1705631568
           2        5                -10.7109323383                -10.7107120029
           2        6                 17.4381822266                 17.4352413244
           2        7                 -5.2255326521                 -5.2270484734
           2        8                  8.6835629259                  8.6603288385
           2        9                 27.4952418996                 27.4953360207
           3       10               -384.4424306495               -384.4423701208
           3       11                 12.5842251816                 12.5842222903
           3       12                -15.7264628251                -15.7264433455
           3       13                 -7.0696854293                 -7.0701769954
           3       14                  8.8090390882                  8.7901077751
           3       15                 35.9586762123                 35.9588528632
           4       16               -514.2458688638               -514.2457643834
           4       17                 15.1795651126                 15.1795290741
           4       18                -21.5359799773                -21.5360846186
           4       19                 -9.0283069236                 -9.0284644067
           4       20                  8.3027758564                  8.2834874195
           4       21                 45.8339351984                 45.8338762259

  Preparing densities etc. for the partition functions (integrals / Hartree potential).

  Preparations completed.
  max(cpu_time)          :      0.146 s.
  Wall clock time (cpu1) :      0.148 s.
------------------------------------------------------------

------------------------------------------------------------
          Begin self-consistency loop: Initialization.

          Date     :  20200805, Time     :  190024.803
------------------------------------------------------------

  Initializing index lists of integration centers etc. from given atomic structure:
  | Number of centers in hartree potential         :        13
  | Number of centers in hartree multipole         :        13
  | Number of centers in electron density summation:        13
  | Number of centers in basis integrals           :        13
  | Number of centers in integrals                 :        13
  | Number of centers in hamiltonian               :        13
  Partitioning the integration grid into batches with parallel hashing+maxmin method.
  | Number of batches:      954
  | Maximal batch size:     139
  | Minimal batch size:      66
  | Average batch size:      73.004
  | Standard deviation of batch sizes:      17.776

  Integration load balanced across     1 MPI tasks.
  Work distribution over tasks is as follows:
  Task     0 has      69646 integration points.
  Initializing partition tables, free-atom densities, potentials, etc. across the integration grid (initialize_grid_storage).
  | initialize_grid_storage: Actual outermost partition radius vs. multipole_radius_free
  | (-- VB: in principle, multipole_radius_free should be larger, hence this output)
  | Species        1: Confinement radius =              4.999999999999999 AA, multipole_radius_free =              5.054417573612229 AA.
  | Species        1: outer_partition_radius set to              5.054417573612229 AA .
  | Species        2: Confinement radius =              4.999999999999999 AA, multipole_radius_free =              5.019602836301480 AA.
  | Species        2: outer_partition_radius set to              5.019602836301480 AA .
  | Species        3: Confinement radius =              4.999999999999999 AA, multipole_radius_free =              5.043624274424571 AA.
  | Species        3: outer_partition_radius set to              5.043624274424571 AA .
  | Species        4: Confinement radius =              4.999999999999999 AA, multipole_radius_free =              5.048384829883283 AA.
  | Species        4: outer_partition_radius set to              5.048384829883283 AA .
  | Original list of interatomic distances with          13 x         13 entries is created.
  | Net number of integration points:    69646
  | of which are non-zero points    :    59472
  Renormalizing the initial density to the exact electron count on the 3D integration grid.
  | Initial density: Formal number of electrons (from input files) :      48.0000000000
  | Integrated number of electrons on 3D grid     :      47.9999617134
  | Charge integration error                      :      -0.0000382866
  | Normalization factor for density and gradient :       1.0000007976
  Obtaining max. number of non-zero basis functions in each batch (get_n_compute_maxes).
  | Maximal number of non-zero basis functions:      119 in task     0
  Selecting the method for density update.
  Loop over occupied states selected for charge density update.
  Allocating        0.050 MB for KS_eigenvector
  Integrating Hamiltonian matrix: batch-based integration.
  Time summed over all CPUs for integration: real work        0.495 s, elapsed        0.495 s
  Integrating overlap matrix.
  Time summed over all CPUs for integration: real work        0.211 s, elapsed        0.211 s

  Updating Kohn-Sham eigenvalues and eigenvectors using ELSI and the ELPA eigensolver.
  Overlap matrix is nonsingular
  | Lowest eigenvalue of overlap  :  0.41E-02
  | Highest eigenvalue of overlap :  0.62E+01
  Finished singularity check of overlap matrix
  | Time :     0.002 s
  Finished Cholesky decomposition
  | Time :     0.000 s
  Finished transformation to standard eigenproblem
  | Time :     0.000 s
  Starting LAPACK eigensolver
  Finished solving standard eigenproblem
  | Time :     0.002 s
  Finished back-transformation of eigenvectors
  | Time :     0.000 s

  Obtaining occupation numbers and chemical potential using ELSI.
  | Chemical potential (Fermi level):    -9.41010105eV
  Writing Kohn-Sham eigenvalues.

  State    Occupation    Eigenvalue [Ha]    Eigenvalue [eV]
      1       2.00000         -19.007765         -517.22759
      2       2.00000         -18.977148         -516.39446
      3       2.00000         -14.246412         -387.66459
      4       2.00000         -10.166651         -276.64864
      5       2.00000         -10.141654         -275.96845
      6       2.00000         -10.132008         -275.70596
      7       2.00000          -1.182309          -32.17226
      8       2.00000          -1.100565          -29.94789
      9       2.00000          -0.992004          -26.99381
     10       2.00000          -0.861518          -23.44311
     11       2.00000          -0.752703          -20.48209
     12       2.00000          -0.681610          -18.54754
     13       2.00000          -0.641167          -17.44705
     14       2.00000          -0.601508          -16.36787
     15       2.00000          -0.581855          -15.83308
     16       2.00000          -0.567478          -15.44186
     17       2.00000          -0.557982          -15.18345
     18       2.00000          -0.520175          -14.15469
     19       2.00000          -0.517740          -14.08843
     20       2.00000          -0.509920          -13.87564
     21       2.00000          -0.468489          -12.74824
     22       2.00000          -0.426609          -11.60863
     23       2.00000          -0.403314          -10.97474
     24       2.00000          -0.387506          -10.54457
     25       0.00000          -0.155361           -4.22759
     26       0.00000          -0.081099           -2.20681
     27       0.00000          -0.027252           -0.74155
     28       0.00000          -0.027110           -0.73771
     29       0.00000           0.002958            0.08050
     30       0.00000           0.012409            0.33768
     31       0.00000           0.018223            0.49588
     32       0.00000           0.044021            1.19787
     33       0.00000           0.051893            1.41209
     34       0.00000           0.071289            1.93988
     35       0.00000           0.089916            2.44674
     36       0.00000           0.131786            3.58608
     37       0.00000           0.173688            4.72629
     38       0.00000           0.203494            5.53735
     39       0.00000           0.213115            5.79916
     40       0.00000           0.221361            6.02353
     41       0.00000           0.242576            6.60083
     42       0.00000           0.260288            7.08281
     43       0.00000           0.287987            7.83652
     44       0.00000           0.296043            8.05574
     45       0.00000           0.347468            9.45507
     46       0.00000           0.349195            9.50209
     47       0.00000           0.363843            9.90066
     48       0.00000           0.416583           11.33579
     49       0.00000           0.450747           12.26546
     50       0.00000           0.463380           12.60920
     51       0.00000           0.509844           13.87356
     52       0.00000           0.524515           14.27279
     53       0.00000           0.571986           15.56453

  Highest occupied state (VBM) at    -10.54456526 eV
  | Occupation number:      2.00000000

  Lowest unoccupied state (CBM) at    -4.22759249 eV
  | Occupation number:      0.00000000

  Overall HOMO-LUMO gap:      6.31697276 eV.
  Calculating total energy contributions from superposition of free atom densities.

  Total energy components:
  | Sum of eigenvalues            :        -188.85218220 Ha       -5138.92934337 eV
  | XC energy correction          :         -41.79880836 Ha       -1137.40344599 eV
  | XC potential correction       :          53.73393441 Ha        1462.17474980 eV
  | Free-atom electrostatic energy:        -146.83675862 Ha       -3995.63149762 eV
  | Hartree energy correction     :           0.00000000 Ha           0.00000000 eV
  | vdW energy correction         :           0.00000000 Ha           0.00000000 eV
  | Entropy correction            :           0.00000000 Ha           0.00000000 eV
  | ---------------------------
  | Total energy                  :        -323.75381478 Ha       -8809.78953718 eV
  | Total energy, T -> 0          :        -323.75381478 Ha       -8809.78953718 eV  <-- do not rely on this value for anything but (periodic) metals
  | Electronic free energy        :        -323.75381478 Ha       -8809.78953718 eV

  Derived energy quantities:
  | Kinetic energy                :         320.52142998 Ha        8721.83187171 eV
  | Electrostatic energy          :        -602.47643639 Ha      -16394.21796290 eV
  | Energy correction for multipole
  | error in Hartree potential    :           0.00000000 Ha           0.00000000 eV
  | Sum of eigenvalues per atom                           :        -395.30225718 eV
  | Total energy (T->0) per atom                          :        -677.67611824 eV  <-- do not rely on this value for anything but (periodic) metals
  | Electronic free energy per atom                       :        -677.67611824 eV
  Initialize hartree_potential_storage
  Max. number of atoms included in rho_multipole:           13

  End scf initialization - timings             :  max(cpu_time)    wall_clock(cpu1)
  | Time for scf. initialization               :        1.149 s           1.153 s
  | Boundary condition initialization          :        0.000 s           0.000 s
  | Integration                                :        0.705 s           0.707 s
  | Solution of K.-S. eqns.                    :        0.004 s           0.004 s
  | Grid partitioning                          :        0.111 s           0.112 s
  | Preloading free-atom quantities on grid    :        0.002 s           0.003 s
  | Free-atom superposition energy             :        0.085 s           0.084 s
  | Total energy evaluation                    :        0.000 s           0.001 s

  Partial memory accounting:
  | Current value for overall tracked memory usage on task 0  :           0.165 MB
  | Peak value for overall tracked memory usage on task 0     :           0.678 MB after allocating wave
  | Largest tracked array allocation on task 0 so far         :           0.132 MB  when allocating H_times_psi
  Note:  These values currently only include a subset of arrays which are explicitly tracked.
  The "true" memory usage will be greater.
------------------------------------------------------------

------------------------------------------------------------
          Begin self-consistency iteration #    1

  Date     :  20200805, Time     :  190025.956
------------------------------------------------------------
  Evaluating new KS density.
  Integration grid: deviation in total charge (<rho> - N_e) =  -1.421085E-14
  Pulay mixing of updated and previous charge densities.

  Evaluating partitioned Hartree potential by multipole expansion.
  | Analytical far-field extrapolation by fixed multipoles:
  | Hartree multipole sum: apparent total charge =  -0.144067E-03
  Summing up the Hartree potential.
  Time summed over all CPUs for potential: real work        0.282 s, elapsed        0.282 s
  | RMS charge density error from multipole expansion :   0.589281E-02

  Integrating Hamiltonian matrix: batch-based integration.
  Time summed over all CPUs for integration: real work        0.497 s, elapsed        0.497 s

  Updating Kohn-Sham eigenvalues and eigenvectors using ELSI and the ELPA eigensolver.
  Finished Cholesky decomposition
  | Time :     0.000 s
  Finished transformation to standard eigenproblem
  | Time :     0.000 s
  Starting LAPACK eigensolver
  Finished solving standard eigenproblem
  | Time :     0.002 s
  Finished back-transformation of eigenvectors
  | Time :     0.000 s

  Obtaining occupation numbers and chemical potential using ELSI.
  | Chemical potential (Fermi level):    -8.36724325eV
  Writing Kohn-Sham eigenvalues.

  State    Occupation    Eigenvalue [Ha]    Eigenvalue [eV]
      1       2.00000         -18.903457         -514.38924
      2       2.00000         -18.833912         -512.49681
      3       2.00000         -14.105018         -383.81708
      4       2.00000         -10.115937         -275.26866
      5       2.00000         -10.066498         -273.92335
      6       2.00000         -10.031130         -272.96094
      7       2.00000          -1.133111          -30.83353
      8       2.00000          -1.036026          -28.19169
      9       2.00000          -0.928440          -25.26414
     10       2.00000          -0.797496          -21.70097
     11       2.00000          -0.701357          -19.08491
     12       2.00000          -0.638770          -17.38182
     13       2.00000          -0.588393          -16.01098
     14       2.00000          -0.543272          -14.78317
     15       2.00000          -0.527779          -14.36160
     16       2.00000          -0.516410          -14.05224
     17       2.00000          -0.490681          -13.35212
     18       2.00000          -0.462558          -12.58685
     19       2.00000          -0.456178          -12.41323
     20       2.00000          -0.447456          -12.17591
     21       2.00000          -0.411044          -11.18506
     22       2.00000          -0.367205           -9.99215
     23       2.00000          -0.329903           -8.97711
     24       2.00000          -0.320068           -8.70948
     25       0.00000          -0.117988           -3.21061
     26       0.00000          -0.064090           -1.74398
     27       0.00000          -0.001962           -0.05339
     28       0.00000           0.016204            0.44093
     29       0.00000           0.038986            1.06085
     30       0.00000           0.041693            1.13453
     31       0.00000           0.058165            1.58275
     32       0.00000           0.082412            2.24253
     33       0.00000           0.090329            2.45798
     34       0.00000           0.110077            2.99534
     35       0.00000           0.116234            3.16288
     36       0.00000           0.159679            4.34509
     37       0.00000           0.199051            5.41646
     38       0.00000           0.232472            6.32589
     39       0.00000           0.245228            6.67300
     40       0.00000           0.255382            6.94930
     41       0.00000           0.280276            7.62669
     42       0.00000           0.291895            7.94288
     43       0.00000           0.321301            8.74304
     44       0.00000           0.334413            9.09984
     45       0.00000           0.384458           10.46164
     46       0.00000           0.385855           10.49964
     47       0.00000           0.406787           11.06923
     48       0.00000           0.449853           12.24111
     49       0.00000           0.488715           13.29862
     50       0.00000           0.498825           13.57372
     51       0.00000           0.540127           14.69761
     52       0.00000           0.556717           15.14904
     53       0.00000           0.607065           16.51908

  Highest occupied state (VBM) at     -8.70948332 eV
  | Occupation number:      2.00000000

  Lowest unoccupied state (CBM) at    -3.21060695 eV
  | Occupation number:      0.00000000

  Overall HOMO-LUMO gap:      5.49887637 eV.

  Total energy components:
  | Sum of eigenvalues            :        -185.50419867 Ha       -5047.82607625 eV
  | XC energy correction          :         -42.12364603 Ha       -1146.24272879 eV
  | XC potential correction       :          54.15631506 Ha        1473.66831212 eV
  | Free-atom electrostatic energy:        -146.83675862 Ha       -3995.63149762 eV
  | Hartree energy correction     :          -3.26357397 Ha         -88.80636627 eV
  | vdW energy correction         :           0.00000000 Ha           0.00000000 eV
  | Entropy correction            :           0.00000000 Ha           0.00000000 eV
  | ---------------------------
  | Total energy                  :        -323.57186224 Ha       -8804.83835680 eV
  | Total energy, T -> 0          :        -323.57186224 Ha       -8804.83835680 eV  <-- do not rely on this value for anything but (periodic) metals
  | Electronic free energy        :        -323.57186224 Ha       -8804.83835680 eV

  Derived energy quantities:
  | Kinetic energy                :         322.29678810 Ha        8770.14182416 eV
  | Electrostatic energy          :        -603.74500431 Ha      -16428.73745218 eV
  | Energy correction for multipole
  | error in Hartree potential    :           0.01181783 Ha           0.32157939 eV
  | Sum of eigenvalues per atom                           :        -388.29431356 eV
  | Total energy (T->0) per atom                          :        -677.29525822 eV  <-- do not rely on this value for anything but (periodic) metals
  | Electronic free energy per atom                       :        -677.29525822 eV

  Self-consistency convergence accuracy:
  | Change of charge density      :  0.5832E+00
  | Change of sum of eigenvalues  :  0.9110E+02 eV
  | Change of total energy        :  0.4951E+01 eV

  End self-consistency iteration #     1       :  max(cpu_time)    wall_clock(cpu1)
  | Time for this iteration                    :        1.189 s           1.197 s
  | Charge density update                      :        0.393 s           0.400 s
  | Density mixing                             :        0.005 s           0.006 s
  | Hartree multipole update                   :        0.008 s           0.008 s
  | Hartree multipole summation                :        0.283 s           0.283 s
  | Integration                                :        0.496 s           0.497 s
  | Solution of K.-S. eqns.                    :        0.002 s           0.003 s
  | Total energy evaluation                    :        0.000 s           0.000 s

  Partial memory accounting:
  | Current value for overall tracked memory usage on task 0  :           0.165 MB
  | Peak value for overall tracked memory usage on task 0     :           0.695 MB after allocating gradient_basis_wave
  | Largest tracked array allocation on task 0 so far         :           0.397 MB  when allocating gradient_basis_wave
  Note:  These values currently only include a subset of arrays which are explicitly tracked.
  The "true" memory usage will be greater.
------------------------------------------------------------

------------------------------------------------------------
          Begin self-consistency iteration #    2

  Date     :  20200805, Time     :  190027.154
------------------------------------------------------------
  Evaluating new KS density.
  Integration grid: deviation in total charge (<rho> - N_e) =  -2.842171E-14
  Pulay mixing of updated and previous charge densities.

  Evaluating partitioned Hartree potential by multipole expansion.
  | Analytical far-field extrapolation by fixed multipoles:
  | Hartree multipole sum: apparent total charge =  -0.276791E-03
  Summing up the Hartree potential.
  Time summed over all CPUs for potential: real work        0.282 s, elapsed        0.282 s
  | RMS charge density error from multipole expansion :   0.139223E-01

  Integrating Hamiltonian matrix: batch-based integration.
  Time summed over all CPUs for integration: real work        0.496 s, elapsed        0.496 s

  Updating Kohn-Sham eigenvalues and eigenvectors using ELSI and the ELPA eigensolver.
  Finished Cholesky decomposition
  | Time :     0.000 s
  Finished transformation to standard eigenproblem
  | Time :     0.000 s
  Starting LAPACK eigensolver
  Finished solving standard eigenproblem
  | Time :     0.002 s
  Finished back-transformation of eigenvectors
  | Time :     0.000 s

  Obtaining occupation numbers and chemical potential using ELSI.
  | Chemical potential (Fermi level):    -2.98166800eV
  Highest occupied state (VBM) at     -6.87826603 eV
  | Occupation number:      2.00000000

  Lowest unoccupied state (CBM) at    -1.93982180 eV
  | Occupation number:      0.00000000

  Overall HOMO-LUMO gap:      4.93844423 eV.

  Checking to see if s.c.f. parameters should be adjusted.

  Total energy components:
  | Sum of eigenvalues            :        -182.04524179 Ha       -4953.70307079 eV
  | XC energy correction          :         -42.47287466 Ha       -1155.74572332 eV
  | XC potential correction       :          54.60875360 Ha        1485.97979122 eV
  | Free-atom electrostatic energy:        -146.83675862 Ha       -3995.63149762 eV
  | Hartree energy correction     :          -6.74860862 Ha        -183.63898399 eV
  | vdW energy correction         :           0.00000000 Ha           0.00000000 eV
  | Entropy correction            :           0.00000000 Ha           0.00000000 eV
  | ---------------------------
  | Total energy                  :        -323.49473010 Ha       -8802.73948450 eV
  | Total energy, T -> 0          :        -323.49473010 Ha       -8802.73948450 eV  <-- do not rely on this value for anything but (periodic) metals
  | Electronic free energy        :        -323.49473010 Ha       -8802.73948450 eV

  Derived energy quantities:
  | Kinetic energy                :         323.57623837 Ha        8804.95743724 eV
  | Electrostatic energy          :        -604.59809380 Ha      -16451.95119842 eV
  | Energy correction for multipole
  | error in Hartree potential    :           0.02583317 Ha           0.70295634 eV
  | Sum of eigenvalues per atom                           :        -381.05408237 eV
  | Total energy (T->0) per atom                          :        -677.13380650 eV  <-- do not rely on this value for anything but (periodic) metals
  | Electronic free energy per atom                       :        -677.13380650 eV

  Self-consistency convergence accuracy:
  | Change of charge density      :  0.3644E+00
  | Change of sum of eigenvalues  :  0.9412E+02 eV
  | Change of total energy        :  0.2099E+01 eV

  End self-consistency iteration #     2       :  max(cpu_time)    wall_clock(cpu1)
  | Time for this iteration                    :        1.181 s           1.183 s
  | Charge density update                      :        0.385 s           0.386 s
  | Density mixing                             :        0.007 s           0.007 s
  | Hartree multipole update                   :        0.009 s           0.008 s
  | Hartree multipole summation                :        0.282 s           0.283 s
  | Integration                                :        0.496 s           0.497 s
  | Solution of K.-S. eqns.                    :        0.002 s           0.002 s
  | Total energy evaluation                    :        0.000 s           0.000 s

  Partial memory accounting:
  | Current value for overall tracked memory usage on task 0  :           0.166 MB
  | Peak value for overall tracked memory usage on task 0     :           0.695 MB after allocating gradient_basis_wave
  | Largest tracked array allocation on task 0 so far         :           0.397 MB  when allocating gradient_basis_wave
  Note:  These values currently only include a subset of arrays which are explicitly tracked.
  The "true" memory usage will be greater.
------------------------------------------------------------

------------------------------------------------------------
          Begin self-consistency iteration #    3

  Date     :  20200805, Time     :  190028.338
------------------------------------------------------------
  Evaluating new KS density.
  Integration grid: deviation in total charge (<rho> - N_e) =   4.263256E-14
  Pulay mixing of updated and previous charge densities.

  Evaluating partitioned Hartree potential by multipole expansion.
  | Analytical far-field extrapolation by fixed multipoles:
  | Hartree multipole sum: apparent total charge =  -0.372810E-03
  Summing up the Hartree potential.
  Time summed over all CPUs for potential: real work        0.282 s, elapsed        0.282 s
  | RMS charge density error from multipole expansion :   0.221565E-01

  Integrating Hamiltonian matrix: batch-based integration.
  Time summed over all CPUs for integration: real work        0.496 s, elapsed        0.496 s

  Updating Kohn-Sham eigenvalues and eigenvectors using ELSI and the ELPA eigensolver.
  Finished Cholesky decomposition
  | Time :     0.000 s
  Finished transformation to standard eigenproblem
  | Time :     0.000 s
  Starting LAPACK eigensolver
  Finished solving standard eigenproblem
  | Time :     0.001 s
  Finished back-transformation of eigenvectors
  | Time :     0.000 s

  Obtaining occupation numbers and chemical potential using ELSI.
  | Chemical potential (Fermi level):    -2.31929906eV
  Highest occupied state (VBM) at     -6.21799927 eV
  | Occupation number:      2.00000000

  Lowest unoccupied state (CBM) at    -1.23580683 eV
  | Occupation number:      0.00000000

  Overall HOMO-LUMO gap:      4.98219244 eV.

  Total energy components:
  | Sum of eigenvalues            :        -180.72815838 Ha       -4917.86340762 eV
  | XC energy correction          :         -42.62764239 Ha       -1159.95716737 eV
  | XC potential correction       :          54.80583425 Ha        1491.34262853 eV
  | Free-atom electrostatic energy:        -146.83675862 Ha       -3995.63149762 eV
  | Hartree energy correction     :          -8.09488688 Ha        -220.27307948 eV
  | vdW energy correction         :           0.00000000 Ha           0.00000000 eV
  | Entropy correction            :           0.00000000 Ha           0.00000000 eV
  | ---------------------------
  | Total energy                  :        -323.48161203 Ha       -8802.38252356 eV
  | Total energy, T -> 0          :        -323.48161203 Ha       -8802.38252356 eV  <-- do not rely on this value for anything but (periodic) metals
  | Electronic free energy        :        -323.48161203 Ha       -8802.38252356 eV

  Derived energy quantities:
  | Kinetic energy                :         323.18802137 Ha        8794.39351536 eV
  | Electrostatic energy          :        -604.04199101 Ha      -16436.81887156 eV
  | Energy correction for multipole
  | error in Hartree potential    :           0.03683621 Ha           1.00236417 eV
  | Sum of eigenvalues per atom                           :        -378.29718520 eV
  | Total energy (T->0) per atom                          :        -677.10634797 eV  <-- do not rely on this value for anything but (periodic) metals
  | Electronic free energy per atom                       :        -677.10634797 eV

  Self-consistency convergence accuracy:
  | Change of charge density      :  0.2064E+00
  | Change of sum of eigenvalues  :  0.3584E+02 eV
  | Change of total energy        :  0.3570E+00 eV

  End self-consistency iteration #     3       :  max(cpu_time)    wall_clock(cpu1)
  | Time for this iteration                    :        1.181 s           1.183 s
  | Charge density update                      :        0.384 s           0.385 s
  | Density mixing                             :        0.008 s           0.008 s
  | Hartree multipole update                   :        0.009 s           0.009 s
  | Hartree multipole summation                :        0.282 s           0.283 s
  | Integration                                :        0.495 s           0.496 s
  | Solution of K.-S. eqns.                    :        0.002 s           0.002 s
  | Total energy evaluation                    :        0.000 s           0.000 s

  Partial memory accounting:
  | Current value for overall tracked memory usage on task 0  :           0.166 MB
  | Peak value for overall tracked memory usage on task 0     :           0.695 MB after allocating gradient_basis_wave
  | Largest tracked array allocation on task 0 so far         :           0.397 MB  when allocating gradient_basis_wave
  Note:  These values currently only include a subset of arrays which are explicitly tracked.
  The "true" memory usage will be greater.
------------------------------------------------------------

------------------------------------------------------------
          Begin self-consistency iteration #    4

  Date     :  20200805, Time     :  190029.522
------------------------------------------------------------
  Evaluating new KS density.
  Integration grid: deviation in total charge (<rho> - N_e) =  -1.421085E-14
  Pulay mixing of updated and previous charge densities.

  Evaluating partitioned Hartree potential by multipole expansion.
  | Analytical far-field extrapolation by fixed multipoles:
  | Hartree multipole sum: apparent total charge =  -0.403378E-03
  Summing up the Hartree potential.
  Time summed over all CPUs for potential: real work        0.282 s, elapsed        0.282 s
  | RMS charge density error from multipole expansion :   0.255572E-01

  Integrating Hamiltonian matrix: batch-based integration.
  Time summed over all CPUs for integration: real work        0.495 s, elapsed        0.495 s

  Updating Kohn-Sham eigenvalues and eigenvectors using ELSI and the ELPA eigensolver.
  Finished Cholesky decomposition
  | Time :     0.000 s
  Finished transformation to standard eigenproblem
  | Time :     0.000 s
  Starting LAPACK eigensolver
  Finished solving standard eigenproblem
  | Time :     0.002 s
  Finished back-transformation of eigenvectors
  | Time :     0.000 s

  Obtaining occupation numbers and chemical potential using ELSI.
  | Chemical potential (Fermi level):    -2.23018403eV
  Highest occupied state (VBM) at     -6.05085620 eV
  | Occupation number:      2.00000000

  Lowest unoccupied state (CBM) at    -1.14980977 eV
  | Occupation number:      0.00000000

  Overall HOMO-LUMO gap:      4.90104643 eV.

  Total energy components:
  | Sum of eigenvalues            :        -180.60546248 Ha       -4914.52468229 eV
  | XC energy correction          :         -42.66507140 Ha       -1160.97566262 eV
  | XC potential correction       :          54.85277933 Ha        1492.62006935 eV
  | Free-atom electrostatic energy:        -146.83675862 Ha       -3995.63149762 eV
  | Hartree energy correction     :          -8.22613502 Ha        -223.84452284 eV
  | vdW energy correction         :           0.00000000 Ha           0.00000000 eV
  | Entropy correction            :           0.00000000 Ha           0.00000000 eV
  | ---------------------------
  | Total energy                  :        -323.48064818 Ha       -8802.35629604 eV
  | Total energy, T -> 0          :        -323.48064818 Ha       -8802.35629604 eV  <-- do not rely on this value for anything but (periodic) metals
  | Electronic free energy        :        -323.48064818 Ha       -8802.35629604 eV

  Derived energy quantities:
  | Kinetic energy                :         322.81798482 Ha        8784.32430854 eV
  | Electrostatic energy          :        -603.63356161 Ha      -16425.70494195 eV
  | Energy correction for multipole
  | error in Hartree potential    :           0.04093643 Ha           1.11393698 eV
  | Sum of eigenvalues per atom                           :        -378.04036018 eV
  | Total energy (T->0) per atom                          :        -677.10433046 eV  <-- do not rely on this value for anything but (periodic) metals
  | Electronic free energy per atom                       :        -677.10433046 eV

  Self-consistency convergence accuracy:
  | Change of charge density      :  0.6554E-01
  | Change of sum of eigenvalues  :  0.3339E+01 eV
  | Change of total energy        :  0.2623E-01 eV

  End self-consistency iteration #     4       :  max(cpu_time)    wall_clock(cpu1)
  | Time for this iteration                    :        1.181 s           1.184 s
  | Charge density update                      :        0.384 s           0.385 s
  | Density mixing                             :        0.010 s           0.010 s
  | Hartree multipole update                   :        0.009 s           0.008 s
  | Hartree multipole summation                :        0.282 s           0.283 s
  | Integration                                :        0.494 s           0.495 s
  | Solution of K.-S. eqns.                    :        0.002 s           0.003 s
  | Total energy evaluation                    :        0.000 s           0.000 s

  Partial memory accounting:
  | Current value for overall tracked memory usage on task 0  :           0.166 MB
  | Peak value for overall tracked memory usage on task 0     :           0.696 MB after allocating gradient_basis_wave
  | Largest tracked array allocation on task 0 so far         :           0.397 MB  when allocating gradient_basis_wave
  Note:  These values currently only include a subset of arrays which are explicitly tracked.
  The "true" memory usage will be greater.
------------------------------------------------------------

------------------------------------------------------------
          Begin self-consistency iteration #    5

  Date     :  20200805, Time     :  190030.707
------------------------------------------------------------
  Evaluating new KS density.
  Integration grid: deviation in total charge (<rho> - N_e) =   3.552714E-14
  Pulay mixing of updated and previous charge densities.

  Evaluating partitioned Hartree potential by multipole expansion.
  | Analytical far-field extrapolation by fixed multipoles:
  | Hartree multipole sum: apparent total charge =  -0.397572E-03
  Summing up the Hartree potential.
  Time summed over all CPUs for potential: real work        0.283 s, elapsed        0.283 s
  | RMS charge density error from multipole expansion :   0.253148E-01

  Integrating Hamiltonian matrix: batch-based integration.
  Time summed over all CPUs for integration: real work        0.496 s, elapsed        0.496 s

  Updating Kohn-Sham eigenvalues and eigenvectors using ELSI and the ELPA eigensolver.
  Finished Cholesky decomposition
  | Time :     0.000 s
  Finished transformation to standard eigenproblem
  | Time :     0.000 s
  Starting LAPACK eigensolver
  Finished solving standard eigenproblem
  | Time :     0.002 s
  Finished back-transformation of eigenvectors
  | Time :     0.000 s

  Obtaining occupation numbers and chemical potential using ELSI.
  | Chemical potential (Fermi level):    -2.29396253eV
  Highest occupied state (VBM) at     -6.13988683 eV
  | Occupation number:      2.00000000

  Lowest unoccupied state (CBM) at    -1.23513163 eV
  | Occupation number:      0.00000000

  Overall HOMO-LUMO gap:      4.90475519 eV.

  Total energy components:
  | Sum of eigenvalues            :        -180.79026445 Ha       -4919.55339971 eV
  | XC energy correction          :         -42.64204528 Ha       -1160.34908998 eV
  | XC potential correction       :          54.82290745 Ha        1491.80721404 eV
  | Free-atom electrostatic energy:        -146.83675862 Ha       -3995.63149762 eV
  | Hartree energy correction     :          -8.03418272 Ha        -218.62123520 eV
  | vdW energy correction         :           0.00000000 Ha           0.00000000 eV
  | Entropy correction            :           0.00000000 Ha           0.00000000 eV
  | ---------------------------
  | Total energy                  :        -323.48034362 Ha       -8802.34800847 eV
  | Total energy, T -> 0          :        -323.48034362 Ha       -8802.34800847 eV  <-- do not rely on this value for anything but (periodic) metals
  | Electronic free energy        :        -323.48034362 Ha       -8802.34800847 eV

  Derived energy quantities:
  | Kinetic energy                :         322.71181424 Ha        8781.43526004 eV
  | Electrostatic energy          :        -603.55011258 Ha      -16423.43417852 eV
  | Energy correction for multipole
  | error in Hartree potential    :           0.04031980 Ha           1.09715766 eV
  | Sum of eigenvalues per atom                           :        -378.42718459 eV
  | Total energy (T->0) per atom                          :        -677.10369296 eV  <-- do not rely on this value for anything but (periodic) metals
  | Electronic free energy per atom                       :        -677.10369296 eV

  Self-consistency convergence accuracy:
  | Change of charge density      :  0.2166E-01
  | Change of sum of eigenvalues  : -0.5029E+01 eV
  | Change of total energy        :  0.8288E-02 eV

  End self-consistency iteration #     5       :  max(cpu_time)    wall_clock(cpu1)
  | Time for this iteration                    :        1.184 s           1.186 s
  | Charge density update                      :        0.384 s           0.384 s
  | Density mixing                             :        0.011 s           0.011 s
  | Hartree multipole update                   :        0.009 s           0.010 s
  | Hartree multipole summation                :        0.282 s           0.283 s
  | Integration                                :        0.495 s           0.496 s
  | Solution of K.-S. eqns.                    :        0.002 s           0.002 s
  | Total energy evaluation                    :        0.000 s           0.000 s

  Partial memory accounting:
  | Current value for overall tracked memory usage on task 0  :           0.166 MB
  | Peak value for overall tracked memory usage on task 0     :           0.696 MB after allocating gradient_basis_wave
  | Largest tracked array allocation on task 0 so far         :           0.397 MB  when allocating gradient_basis_wave
  Note:  These values currently only include a subset of arrays which are explicitly tracked.
  The "true" memory usage will be greater.
------------------------------------------------------------

------------------------------------------------------------
          Begin self-consistency iteration #    6

  Date     :  20200805, Time     :  190031.894
------------------------------------------------------------
  Evaluating new KS density.
  Integration grid: deviation in total charge (<rho> - N_e) =   2.842171E-14
  Pulay mixing of updated and previous charge densities.

  Evaluating partitioned Hartree potential by multipole expansion.
  | Analytical far-field extrapolation by fixed multipoles:
  | Hartree multipole sum: apparent total charge =  -0.400297E-03
  Summing up the Hartree potential.
  Time summed over all CPUs for potential: real work        0.283 s, elapsed        0.283 s
  | RMS charge density error from multipole expansion :   0.257092E-01

  Integrating Hamiltonian matrix: batch-based integration.
  Time summed over all CPUs for integration: real work        0.496 s, elapsed        0.496 s

  Updating Kohn-Sham eigenvalues and eigenvectors using ELSI and the ELPA eigensolver.
  Finished Cholesky decomposition
  | Time :     0.000 s
  Finished transformation to standard eigenproblem
  | Time :     0.000 s
  Starting LAPACK eigensolver
  Finished solving standard eigenproblem
  | Time :     0.001 s
  Finished back-transformation of eigenvectors
  | Time :     0.000 s

  Obtaining occupation numbers and chemical potential using ELSI.
  | Chemical potential (Fermi level):    -2.30069597eV
  Highest occupied state (VBM) at     -6.11967706 eV
  | Occupation number:      2.00000000

  Lowest unoccupied state (CBM) at    -1.25558180 eV
  | Occupation number:      0.00000000

  Overall HOMO-LUMO gap:      4.86409525 eV.

  Total energy components:
  | Sum of eigenvalues            :        -180.80827450 Ha       -4920.04347827 eV
  | XC energy correction          :         -42.63948519 Ha       -1160.27942628 eV
  | XC potential correction       :          54.81953987 Ha        1491.71557750 eV
  | Free-atom electrostatic energy:        -146.83675862 Ha       -3995.63149762 eV
  | Hartree energy correction     :          -8.01530804 Ha        -218.10762883 eV
  | vdW energy correction         :           0.00000000 Ha           0.00000000 eV
  | Entropy correction            :           0.00000000 Ha           0.00000000 eV
  | ---------------------------
  | Total energy                  :        -323.48028648 Ha       -8802.34645350 eV
  | Total energy, T -> 0          :        -323.48028648 Ha       -8802.34645350 eV  <-- do not rely on this value for anything but (periodic) metals
  | Electronic free energy        :        -323.48028648 Ha       -8802.34645350 eV

  Derived energy quantities:
  | Kinetic energy                :         322.63018186 Ha        8779.21392996 eV
  | Electrostatic energy          :        -603.47098315 Ha      -16421.28095719 eV
  | Energy correction for multipole
  | error in Hartree potential    :           0.04062287 Ha           1.10540465 eV
  | Sum of eigenvalues per atom                           :        -378.46488294 eV
  | Total energy (T->0) per atom                          :        -677.10357335 eV  <-- do not rely on this value for anything but (periodic) metals
  | Electronic free energy per atom                       :        -677.10357335 eV

  Self-consistency convergence accuracy:
  | Change of charge density      :  0.1079E-01
  | Change of sum of eigenvalues  : -0.4901E+00 eV
  | Change of total energy        :  0.1555E-02 eV

  End self-consistency iteration #     6       :  max(cpu_time)    wall_clock(cpu1)
  | Time for this iteration                    :        1.186 s           1.189 s
  | Charge density update                      :        0.384 s           0.385 s
  | Density mixing                             :        0.012 s           0.012 s
  | Hartree multipole update                   :        0.009 s           0.009 s
  | Hartree multipole summation                :        0.283 s           0.283 s
  | Integration                                :        0.496 s           0.497 s
  | Solution of K.-S. eqns.                    :        0.002 s           0.002 s
  | Total energy evaluation                    :        0.000 s           0.000 s

  Partial memory accounting:
  | Current value for overall tracked memory usage on task 0  :           0.166 MB
  | Peak value for overall tracked memory usage on task 0     :           0.696 MB after allocating gradient_basis_wave
  | Largest tracked array allocation on task 0 so far         :           0.397 MB  when allocating gradient_basis_wave
  Note:  These values currently only include a subset of arrays which are explicitly tracked.
  The "true" memory usage will be greater.
------------------------------------------------------------

------------------------------------------------------------
          Begin self-consistency iteration #    7

  Date     :  20200805, Time     :  190033.083
------------------------------------------------------------
  Evaluating new KS density.
  Integration grid: deviation in total charge (<rho> - N_e) =   2.131628E-14
  Pulay mixing of updated and previous charge densities.

  Evaluating partitioned Hartree potential by multipole expansion.
  | Analytical far-field extrapolation by fixed multipoles:
  | Hartree multipole sum: apparent total charge =  -0.401313E-03
  Summing up the Hartree potential.
  Time summed over all CPUs for potential: real work        0.282 s, elapsed        0.282 s
  | RMS charge density error from multipole expansion :   0.258429E-01

  Integrating Hamiltonian matrix: batch-based integration.
  Time summed over all CPUs for integration: real work        0.495 s, elapsed        0.495 s

  Updating Kohn-Sham eigenvalues and eigenvectors using ELSI and the ELPA eigensolver.
  Finished Cholesky decomposition
  | Time :     0.000 s
  Finished transformation to standard eigenproblem
  | Time :     0.000 s
  Starting LAPACK eigensolver
  Finished solving standard eigenproblem
  | Time :     0.002 s
  Finished back-transformation of eigenvectors
  | Time :     0.000 s

[...]
  |   Hirshfeld dipole moment :      0.05831881
  |   Hirshfeld second moments:      0.01333456      -0.02744156      -0.01439931
  |                                 -0.02744156      -0.02513759       0.00464064
  |                                 -0.01439931       0.00464064      -0.01965538
  ----------------------------------------------------------------------
  | Atom    12: O
  |   Hirshfeld charge        :     -0.14462240
  |   Free atom volume        :     23.61338643
  |   Hirshfeld volume        :     21.07276682
  |   Hirshfeld dipole vector :      0.02376947       0.03247673      -0.00708806
  |   Hirshfeld dipole moment :      0.04086522
  |   Hirshfeld second moments:      0.05131314      -0.01137897      -0.01651212
  |                                 -0.01137897       0.03546125       0.03176379
  |                                 -0.01651212       0.03176379       0.07866234
  ----------------------------------------------------------------------
  | Atom    13: H
  |   Hirshfeld charge        :      0.15968449
  |   Free atom volume        :      9.95071624
  |   Hirshfeld volume        :      6.55244382
  |   Hirshfeld dipole vector :      0.05651277      -0.03033093      -0.08909580
  |   Hirshfeld dipole moment :      0.10978033
  |   Hirshfeld second moments:      0.11383677      -0.00579270       0.00640178
  |                                 -0.00579270       0.09227243       0.02156963
  |                                  0.00640178       0.02156963       0.10317451
  ----------------------------------------------------------------------


  Total energy components:
  | Sum of eigenvalues            :        -180.80090607 Ha       -4919.84297314 eV
  | XC energy correction          :         -42.63721430 Ha       -1160.21763246 eV
  | XC potential correction       :          54.81666997 Ha        1491.63748357 eV
  | Free-atom electrostatic energy:        -146.83675862 Ha       -3995.63149762 eV
  | Hartree energy correction     :          -8.02205856 Ha        -218.29131992 eV
  | vdW energy correction         :          -0.00308079 Ha          -0.08383255 eV
  | Entropy correction            :           0.00000000 Ha           0.00000000 eV
  | ---------------------------
  | Total energy                  :        -323.48334838 Ha       -8802.42977212 eV
  | Total energy, T -> 0          :        -323.48334838 Ha       -8802.42977212 eV  <-- do not rely on this value for anything but (periodic) metals
  | Electronic free energy        :        -323.48334838 Ha       -8802.42977212 eV

  Derived energy quantities:
  | Kinetic energy                :         322.59493610 Ha        8778.25484386 eV
  | Electrostatic energy          :        -603.43798938 Ha      -16420.38315098 eV
  | Energy correction for multipole
  | error in Hartree potential    :           0.04071475 Ha           1.10790464 eV
  | Sum of eigenvalues per atom                           :        -378.44945947 eV
  | Total energy (T->0) per atom                          :        -677.10998247 eV  <-- do not rely on this value for anything but (periodic) metals
  | Electronic free energy per atom                       :        -677.10998247 eV

  atomic forces [eV/Ang]:
  -----------------------
  atom #    1
   Hellmann-Feynman              :  0.139234E+01  0.795956E-01  0.122096E+01
   Ionic forces                  :  0.000000E+00  0.000000E+00  0.000000E+00
   Multipole                     :  0.198769E+00  0.188984E+00 -0.303717E+00
   Pulay + GGA                   : -0.152027E+01  0.553213E-01 -0.129144E+01
   Van der Waals                 :  0.186561E-02  0.183913E-02 -0.831068E-03
   ----------------------------------------------------------------
   Total forces(   1)            :  0.727075E-01  0.325740E+00 -0.375032E+00
  atom #    2
   Hellmann-Feynman              :  0.471436E+00  0.351237E-01  0.353848E+00
   Ionic forces                  :  0.000000E+00  0.000000E+00  0.000000E+00
   Multipole                     :  0.137284E+00  0.197669E-01 -0.404757E-01
   Pulay + GGA                   : -0.119857E+00  0.137032E-01  0.195291E-01
   Van der Waals                 :  0.945728E-02 -0.330948E-02 -0.117071E-02
   ----------------------------------------------------------------
   Total forces(   2)            :  0.498321E+00  0.652843E-01  0.331730E+00
  atom #    3
   Hellmann-Feynman              : -0.126476E+02  0.160740E+01  0.130013E+01
   Ionic forces                  :  0.000000E+00  0.000000E+00  0.000000E+00
   Multipole                     : -0.678837E-01  0.756787E-01 -0.792408E+00
   Pulay + GGA                   :  0.122870E+02 -0.158922E+01  0.388149E+00
   Van der Waals                 :  0.352020E-02 -0.442248E-02 -0.854385E-02
   ----------------------------------------------------------------
   Total forces(   3)            : -0.424983E+00  0.894421E-01  0.887331E+00
  atom #    4
   Hellmann-Feynman              :  0.244171E+00 -0.825414E-01 -0.175102E+00
   Ionic forces                  :  0.000000E+00  0.000000E+00  0.000000E+00
   Multipole                     :  0.408582E-01  0.135333E-01 -0.107279E+00
   Pulay + GGA                   : -0.176223E+00 -0.119630E+00  0.102122E+00
   Van der Waals                 : -0.323131E-02 -0.875754E-02 -0.508912E-02
   ----------------------------------------------------------------
   Total forces(   4)            :  0.105575E+00 -0.197396E+00 -0.185348E+00
  atom #    5
   Hellmann-Feynman              :  0.345209E+00  0.120710E-01 -0.524294E+00
   Ionic forces                  :  0.000000E+00  0.000000E+00  0.000000E+00
   Multipole                     :  0.393647E-01 -0.242881E-01 -0.130524E+00
   Pulay + GGA                   : -0.116747E+00  0.270809E+00 -0.532477E-02
   Van der Waals                 : -0.183236E-02  0.454463E-02 -0.388655E-02
   ----------------------------------------------------------------
   Total forces(   5)            :  0.265995E+00  0.263136E+00 -0.664029E+00
  atom #    6
   Hellmann-Feynman              : -0.375787E+00 -0.503132E+00  0.443959E+00
   Ionic forces                  :  0.000000E+00  0.000000E+00  0.000000E+00
   Multipole                     : -0.115413E+00  0.683319E+00  0.249280E+00
   Pulay + GGA                   :  0.530215E+00 -0.620784E+00 -0.687075E+00
   Van der Waals                 : -0.392833E-02  0.316315E-02 -0.450090E-03
   ----------------------------------------------------------------
   Total forces(   6)            :  0.350862E-01 -0.437434E+00  0.571365E-02
  atom #    7
   Hellmann-Feynman              : -0.192042E+00 -0.441774E-01 -0.619055E-01
   Ionic forces                  :  0.000000E+00  0.000000E+00  0.000000E+00
   Multipole                     : -0.124606E+00  0.471378E-01  0.318685E-01
   Pulay + GGA                   :  0.119840E+00 -0.141687E-01 -0.247619E-01
   Van der Waals                 : -0.453233E-03  0.157413E-02  0.212149E-02
   ----------------------------------------------------------------
   Total forces(   7)            : -0.197260E+00 -0.963421E-02 -0.526773E-01
  atom #    8
   Hellmann-Feynman              :  0.124938E+00 -0.588970E-01  0.935459E-01
   Ionic forces                  :  0.000000E+00  0.000000E+00  0.000000E+00
   Multipole                     :  0.122226E-01  0.653226E-01  0.128628E+00
   Pulay + GGA                   : -0.463484E-01 -0.428726E-01 -0.946894E-01
   Van der Waals                 : -0.248057E-02  0.114654E-01  0.120888E-02
   ----------------------------------------------------------------
   Total forces(   8)            :  0.883321E-01 -0.249816E-01  0.128694E+00
  atom #    9
   Hellmann-Feynman              :  0.118668E+00  0.660014E-01 -0.195160E+00
   Ionic forces                  :  0.000000E+00  0.000000E+00  0.000000E+00
   Multipole                     :  0.183895E-01  0.127635E+00 -0.456840E-02
   Pulay + GGA                   : -0.495088E-01 -0.610281E-01  0.740210E-01
   Van der Waals                 : -0.217112E-02  0.684698E-02  0.876113E-02
   ----------------------------------------------------------------
   Total forces(   9)            :  0.853777E-01  0.139455E+00 -0.116946E+00
  atom #   10
   Hellmann-Feynman              :  0.299211E+01  0.435765E+01  0.180361E+01
   Ionic forces                  :  0.000000E+00  0.000000E+00  0.000000E+00
   Multipole                     :  0.270880E-01 -0.103747E+00  0.253250E+00
   Pulay + GGA                   : -0.193556E+01 -0.250330E+01  0.973617E-01
   Van der Waals                 :  0.280408E-02 -0.103327E-01 -0.122090E-03
   ----------------------------------------------------------------
   Total forces(  10)            :  0.108644E+01  0.174027E+01  0.215410E+01
  atom #   11
   Hellmann-Feynman              :  0.416790E+01 -0.251285E+01  0.139696E+02
   Ionic forces                  :  0.000000E+00  0.000000E+00  0.000000E+00
   Multipole                     :  0.213478E+00 -0.600788E+00  0.720602E+00
   Pulay + GGA                   : -0.397027E+01  0.397884E+01 -0.136640E+02
   Van der Waals                 : -0.217336E-02 -0.110356E-01  0.727748E-02
   ----------------------------------------------------------------
   Total forces(  11)            :  0.408936E+00  0.854170E+00  0.103353E+01
  atom #   12
   Hellmann-Feynman              : -0.115224E+02 -0.954133E+01  0.174299E+01
   Ionic forces                  :  0.000000E+00  0.000000E+00  0.000000E+00
   Multipole                     : -0.858460E+00 -0.164723E+01 -0.207304E-01
   Pulay + GGA                   :  0.113325E+02  0.896984E+01 -0.391033E+01
   Van der Waals                 : -0.405765E-03  0.532274E-02  0.594011E-02
   ----------------------------------------------------------------
   Total forces(  12)            : -0.104880E+01 -0.221340E+01 -0.218213E+01
  atom #   13
   Hellmann-Feynman              : -0.762638E+00 -0.528537E+00 -0.132201E+01
   Ionic forces                  :  0.000000E+00  0.000000E+00  0.000000E+00
   Multipole                     :  0.500512E-01 -0.213758E-01 -0.596638E-01
   Pulay + GGA                   : -0.260485E+00 -0.487137E-01  0.414370E+00
   Van der Waals                 : -0.971136E-03  0.310169E-02 -0.521561E-02
   ----------------------------------------------------------------
   Total forces(  13)            : -0.974043E+00 -0.595525E+00 -0.972518E+00

  Timings for VdW correction (Tkatchenko-Scheffler 2009 or later):
  | CPU time:        0.089 s, Wall clock time:        0.089 s.
  Removing unitary transformations (pure translations, rotations) from forces on atoms.
  Atomic forces before filtering:
  | Net force on center of mass :   0.168255E-02 -0.869610E-03 -0.758827E-02 eV/A
  | Net torque on center of mass:   0.539706E-02  0.438634E-03  0.534943E-02 eV
  Atomic forces after filtering:
  | Net force on center of mass :   0.178406E-15 -0.535218E-15 -0.535218E-15 eV/A
  | Net torque on center of mass:   0.141613E-14  0.472042E-16  0.000000E+00 eV

  Energy and forces in a compact form:
  | Total energy uncorrected      :         -0.880242977212274E+04 eV
  | Total energy corrected        :         -0.880242977212274E+04 eV  <-- do not rely on this value for anything but (periodic) metals
  | Electronic free energy        :         -0.880242977212274E+04 eV
  Total atomic forces (unitary forces cleaned) [eV/Ang]:
  |   1          0.725970447029133E-01          0.325743836224051E+00         -0.374446360774818E+00
  |   2          0.498210615170025E+00          0.650836373828546E-01          0.332364504114773E+00
  |   3         -0.425030662958786E+00          0.893572574605093E-01          0.887895560630842E+00
  |   4          0.105691657235273E+00         -0.197630970131501E+00         -0.184859331692985E+00
  |   5          0.265798149358836E+00          0.262954282943840E+00         -0.663340650996408E+00
  |   6          0.351798879513403E-01         -0.437244950645401E+00          0.611745132981254E-02
  |   7         -0.197161986466837E+00         -0.923814575404639E-02         -0.523254424449622E-01
  |   8          0.883823618909201E-01         -0.247293053082899E-01          0.129111882662263E+00
  |   9          0.856622087681501E-01          0.139513173695258E+00         -0.116640371685178E+00
  |  10          0.108605749364537E+01          0.174044272535558E+01          0.215483112056649E+01
  |  11          0.408448883425383E+00          0.854432155692101E+00          0.103430582195858E+01
  |  12         -0.104931874557731E+01         -0.221317768925075E+01         -0.218132488561743E+01
  |  13         -0.974516907145278E+00         -0.595506007664214E+00         -0.971689298050980E+00

  ------------------------------------ 
  Start decomposition of the XC Energy 
  ------------------------------------ 
  X and C from original XC functional choice 
  Hartree-Fock Energy :          0.000000000 Ha              0.000000000 eV
  X Energy            :        -41.036439574 Ha          -1116.658335769 eV
  C Energy            :         -1.600774730 Ha            -43.559296689 eV
  Total XC Energy     :        -42.637214305 Ha          -1160.217632458 eV
  ------------------------------------ 
  LDA X and C from self-consistent density 
  X Energy LDA        :        -37.255221395 Ha          -1013.766154011 eV
  C Energy LDA        :         -3.138632397 Ha            -85.406532969 eV
  ------------------------------------ 
  End decomposition of the XC Energy 
  ------------------------------------ 

------------------------------------------------------------

------------------------------------------------------------------------------
  Final output of selected total energy values:

  The following output summarizes some interesting total energy values
  at the end of a run (AFTER all relaxation, molecular dynamics, etc.).

  | Total energy of the DFT / Hartree-Fock s.c.f. calculation      :          -8802.429772123 eV
  | Final zero-broadening corrected energy (caution - metals only) :          -8802.429772123 eV
  | For reference only, the value of 1 Hartree used in FHI-aims is :             27.211384500 eV

  Before relying on these values, please be sure to understand exactly which
  total energy value is referred to by a given number. Different objects may
  all carry the same name 'total energy'. Definitions:

  Total energy of the DFT / Hartree-Fock s.c.f. calculation:
  | Note that this energy does not include ANY quantities calculated after the
  | s.c.f. cycle, in particular not ANY RPA, MP2, etc. many-body perturbation terms.

  Final zero-broadening corrected energy:
  | For metallic systems only, a broadening of the occupation numbers at the Fermi
  | level can be extrapolated back to zero broadening by an electron-gas inspired
  | formula. For all systems that are not real metals, this value can be
  | meaningless and should be avoided.

------------------------------------------------------------------------------
  Methods described in the following list of references were used in this FHI-aims run.
  If you publish the results, please make sure to cite these reference if they apply.
  FHI-aims is an academic code, and for our developers (often, Ph.D. students
  and postdocs), scientific credit in the community is essential.
  Thank you for helping us!

  For any use of FHI-aims, please cite:

    Volker Blum, Ralf Gehrke, Felix Hanke, Paula Havu, Ville Havu,
    Xinguo Ren, Karsten Reuter, and Matthias Scheffler
    'Ab initio molecular simulations with numeric atom-centered orbitals'
    Computer Physics Communications 180, 2175-2196 (2009)
    http://dx.doi.org/10.1016/j.cpc.2009.06.022


  The scalable eigensolver library ELPA was used in your run.
  ELPA is essential especially for large systems on hundreds or thousands of CPUs.
  For ELPA, please cite:

    Andreas Marek, Volker Blum, Rainer Johanni, Ville Havu, Bruno Lang,
    Thomas Auckenthaler, Alexander Heinecke, Hans-Joachim Bungartz, and Hermann Lederer,
    'The ELPA Library - Scalable Parallel Eigenvalue Solutions
    for Electronic Structure Theory and Computational Science'
    The Journal of Physics: Condensed Matter 26, 213201 (2014).
    http://dx.doi.org/10.1088/0953-8984/26/21/213201


  The ELSI infrastructure was used in your run to solve the Kohn-Sham electronic structure.
  Please check out http://elsi-interchange.org to learn more.
  If scalability is important for your project, please acknowledge ELSI by citing:

    V. W-z. Yu, F. Corsetti, A. Garcia, W. P. Huhn, M. Jacquelin, W. Jia,
    B. Lange, L. Lin, J. Lu, W. Mi, A. Seifitokaldani, A. Vazquez-Mayagoitia,
    C. Yang, H. Yang, and V. Blum
    'ELSI: A unified software interface for Kohn-Sham electronic structure solvers'
    Computer Physics Communications 222, 267-285 (2018).
    http://dx.doi.org/10.1016/j.cpc.2017.09.007


  For the real-space grid partitioning and parallelization used in this calculation, please cite:

    Ville Havu, Volker Blum, Paula Havu, and Matthias Scheffler,
    'Efficient O(N) integration for all-electron electronic structure calculation'
    'using numerically tabulated basis functions'
    Journal of Computational Physics 228, 8367-8379 (2009).
    http://dx.doi.org/10.1016/j.jcp.2009.08.008

  Of course, there are many other important community references, e.g., those cited in the
  above references. Our list is limited to references that describe implementations in the
  FHI-aims code. The reason is purely practical (length of this list) - please credit others as well.

------------------------------------------------------------
          Leaving FHI-aims.
          Date     :  20200805, Time     :  190047.376

          Computational steps:
          | Number of self-consistency cycles          :           16
          | Number of SCF (re)initializations          :            1

          Detailed time accounting                     :  max(cpu_time)    wall_clock(cpu1)
          | Total time                                 :       22.656 s          22.737 s
          | Preparation time                           :        0.146 s           0.148 s
          | Boundary condition initalization           :        0.000 s           0.000 s
          | Grid partitioning                          :        0.111 s           0.112 s
          | Preloading free-atom quantities on grid    :        0.002 s           0.003 s
          | Free-atom superposition energy             :        0.085 s           0.084 s
          | Total time for integrations                :        8.624 s           8.645 s
          | Total time for solution of K.-S. equations :        0.036 s           0.040 s
          | Total time for density & force components  :        7.111 s           7.133 s
          | Total time for mixing                      :        0.217 s           0.219 s
          | Total time for Hartree multipole update    :        0.140 s           0.142 s
          | Total time for Hartree multipole sum       :        5.782 s           5.797 s
          | Total time for total energy evaluation     :        0.003 s           0.003 s
          | Total time for vdW correction              :        0.089 s           0.089 s

          Partial memory accounting:
          | Residual value for overall tracked memory usage across tasks :           0.000 MB (should be 0.000 MB)
          | Peak values for overall tracked memory usage (after allocating hessian_basis_wave):
          |   Minimum:        1.622 MB (on task 1)
          |   Maximum:        1.622 MB (on task 1)
          |   Average:        1.622 MB
          | Largest tracked array allocation (hessian_basis_wave):
          |   Minimum:        0.794 MB (on task 1)
          |   Maximum:        0.794 MB (on task 1)
          |   Average:        0.794 MB
          Note:  These values currently only include a subset of arrays which are explicitly tracked.
          The "true" memory usage will be greater.

          Have a nice day.
------------------------------------------------------------
