  MPI-parallelism will be employed.
------------------------------------------------------------
          Invoking FHI-aims ...
          Version 171221_1
          Compiled on 2019/09/09 at 14:39:39 on host puhti-login2.bullx.

          When using FHI-aims, please cite the following reference:

          Volker Blum, Ralf Gehrke, Felix Hanke, Paula Havu,
          Ville Havu, Xinguo Ren, Karsten Reuter, and Matthias Scheffler,
          'Ab Initio Molecular Simulations with Numeric Atom-Centered Orbitals',
          Computer Physics Communications 180, 2175-2196 (2009)

          For any questions about FHI-aims, please visit the aimsclub website
          with its forums and wiki. Contributions to both the forums and the
          wiki are warmly encouraged - they are for you, and everyone is welcome there.

------------------------------------------------------------



  Date     :  20200902, Time     :  102308.452
  Time zero on CPU 1             :   0.166680000000000E-01  s.
  Internal wall clock time zero  :           368274188.452  s.

  FHI-aims created a unique identifier for this run for later identification
  aims_uuid : BA0B6C08-34C9-4F5B-AF54-92D9FFFAE537

  Using        1 parallel tasks.
  Task        0 on host r18c45.bullx reporting.

  Performing system and environment tests:
  | Environment variable OMP_NUM_THREADS correctly set to 1.
  | Stacksize not measured: no C compiler
  | Checking for scalapack...
  | Testing pdtran()...
  | All pdtran() tests passed.

  Obtaining array dimensions for all initial allocations:
  
  -----------------------------------------------------------------------
  Parsing control.in (first pass over file, find array dimensions only).
  The contents of control.in will be repeated verbatim below
  unless switched off by setting 'verbatim_writeout .false.' .
  in the first line of control.in .
  -----------------------------------------------------------------------
  
  #########################################################################################
  #
  #  Volker Blum, FHI 2009 : Test run input file control.in for simple H2O
  #
  #########################################################################################
  #
  #  Physical model
  #
    xc                 pbe
    vdw_correction_hirshfeld
    spin               none
    relativistic       none
    charge             0.
  #
  #  SCF convergence
  #
    occupation_type    gaussian 0.01
    mixer              pulay
      n_max_pulay        10
      charge_mix_param   0.2
    sc_accuracy_rho    1E-5
    sc_accuracy_eev    1E-3
    sc_accuracy_etot   1E-6
    sc_accuracy_forces 1E-4
    sc_iter_limit      100
  #
  #  Relaxation
  #
  #  relax_geometry   bfgs 1.e-3
  #
  ################################################################################
  #
  #  FHI-aims code project
  #  VB, Fritz-Haber Institut, 2009
  #
  #  Suggested "light" defaults for H atom (to be pasted into control.in file)
  #  Be sure to double-check any results obtained with these settings for post-processing,
  #  e.g., with the "tight" defaults and larger basis sets.
  #
  ################################################################################
    species        H
  #     global species definitions
      nucleus             1
      mass                1.00794
  #
      l_hartree           4
  #
      cut_pot             3.5  1.5  1.0
      basis_dep_cutoff    1e-4
  #
      radial_base         24 5.0
      radial_multiplier   1
      angular_grids       specified
        division   0.2421   50
        division   0.3822  110
        division   0.4799  194
        division   0.5341  302
  #      division   0.5626  434
  #      division   0.5922  590
  #      division   0.6542  770
  #      division   0.6868 1202
  #      outer_grid  770
        outer_grid  302
  ################################################################################
  #
  #  Definition of "minimal" basis
  #
  ################################################################################
  #     valence basis states
      valence      1  s   1.
  #     ion occupancy
      ion_occ      1  s   0.5
  ################################################################################
  #
  #  Suggested additional basis functions. For production calculations,
  #  uncomment them one after another (the most important basis functions are
  #  listed first).
  #
  #  Basis constructed for dimers: 0.5 A, 0.7 A, 1.0 A, 1.5 A, 2.5 A
  #
  ################################################################################
  #  "First tier" - improvements: -1014.90 meV to -62.69 meV
       hydro 2 s 2.1
       hydro 2 p 3.5
  #  "Second tier" - improvements: -12.89 meV to -1.83 meV
  #     hydro 1 s 0.85
  #     hydro 2 p 3.7
  #     hydro 2 s 1.2
  #     hydro 3 d 7
  #  "Third tier" - improvements: -0.25 meV to -0.12 meV
  #     hydro 4 f 11.2
  #     hydro 3 p 4.8
  #     hydro 4 d 9
  #     hydro 3 s 3.2
  ################################################################################
  #
  #  FHI-aims code project
  #  VB, Fritz-Haber Institut, 2009
  #
  #  Suggested "light" defaults for C atom (to be pasted into control.in file)
  #  Be sure to double-check any results obtained with these settings for post-processing,
  #  e.g., with the "tight" defaults and larger basis sets.
  #
  ################################################################################
    species        C
  #     global species definitions
      nucleus             6
      mass                12.0107
  #
      l_hartree           4
  #
      cut_pot             3.5  1.5  1.0
      basis_dep_cutoff    1e-4
  #
      radial_base         34 5.0
      radial_multiplier   1
      angular_grids specified
        division   0.3326   50
        division   0.5710  110
        division   0.7727  194
        division   0.8772  302
  #      division   0.9334  434
  #      division   0.9625  590
  #      division   0.9924  770
  #      division   1.0230  974
  #      division   1.4589 1202
  #     outer_grid  974
       outer_grid 302
  ################################################################################
  #
  #  Definition of "minimal" basis
  #
  ################################################################################
  #     valence basis states
      valence      2  s   2.
      valence      2  p   2.
  #     ion occupancy
      ion_occ      2  s   1.
      ion_occ      2  p   1.
  ################################################################################
  #
  #  Suggested additional basis functions. For production calculations,
  #  uncomment them one after another (the most important basis functions are
  #  listed first).
  #
  #  Constructed for dimers: 1.0 A, 1.25 A, 1.5 A, 2.0 A, 3.0 A
  #
  ################################################################################
  #  "First tier" - improvements: -1214.57 meV to -155.61 meV
       hydro 2 p 1.7
       hydro 3 d 6
       hydro 2 s 4.9
  #  "Second tier" - improvements: -67.75 meV to -5.23 meV
  #     hydro 4 f 9.8
  #     hydro 3 p 5.2
  #     hydro 3 s 4.3
  #     hydro 5 g 14.4
  #     hydro 3 d 6.2
  #  "Third tier" - improvements: -2.43 meV to -0.60 meV
  #     hydro 2 p 5.6
  #     hydro 2 s 1.4
  #     hydro 3 d 4.9
  #     hydro 4 f 11.2
  #  "Fourth tier" - improvements: -0.39 meV to -0.18 meV
  #     hydro 2 p 2.1
  #     hydro 5 g 16.4
  #     hydro 4 d 13.2
  #     hydro 3 s 13.6
  #     hydro 4 f 17.6
  #  Further basis functions - improvements: -0.08 meV and below
  #     hydro 3 s 2
  #     hydro 3 p 6
  #     hydro 4 d 20
  ################################################################################
  #
  #  FHI-aims code project
  #  VB, Fritz-Haber Institut, 2009
  #
  #  Suggested "light" defaults for N atom (to be pasted into control.in file)
  #  Be sure to double-check any results obtained with these settings for post-processing,
  #  e.g., with the "tight" defaults and larger basis sets.
  #
  ################################################################################
    species        N
  #     global species definitions
      nucleus             7
      mass                14.0067
  #
      l_hartree           4
  #
      cut_pot             3.5  1.5  1.0
      basis_dep_cutoff    1e-4
  #
      radial_base         35 5.0
      radial_multiplier   1
      angular_grids       specified
        division   0.2599   50
        division   0.4601  110
        division   0.5885  194
        division   0.6503  302
  #      division   0.6939  434
  #      division   0.7396  590
  #      division   0.7632  770
  #      division   0.8122  974
  #      division   1.1604 1202
  #      outer_grid  974
        outer_grid  302
  ################################################################################
  #
  #  Definition of "minimal" basis
  #
  ################################################################################
  #     valence basis states
      valence      2  s   2.
      valence      2  p   3.
  #     ion occupancy
      ion_occ      2  s   1.
      ion_occ      2  p   2.
  ################################################################################
  #
  #  Suggested additional basis functions. For production calculations,
  #  uncomment them one after another (the most important basis functions are
  #  listed first).
  #
  #  Constructed for dimers: 1.0 A, 1.1 A, 1.5 A, 2.0 A, 3.0 A
  #
  ################################################################################
  #  "First tier" - improvements: -1193.42 meV to -220.60 meV
       hydro 2 p 1.8
       hydro 3 d 6.8
       hydro 3 s 5.8
  #  "Second tier" - improvements: -80.21 meV to -6.86 meV
  #     hydro 4 f 10.8
  #     hydro 3 p 5.8
  #     hydro 1 s 0.8
  #     hydro 5 g 16
  #     hydro 3 d 4.9
  #  "Third tier" - improvements: -4.29 meV to -0.53 meV
  #     hydro 3 s 16
  #     ionic 2 p auto
  #     hydro 3 d 6.6
  #     hydro 4 f 11.6
  #  "Fourth tier" - improvements: -0.75 meV to -0.25 meV
  #     hydro 2 p 4.5
  #     hydro 2 s 2.4
  #     hydro 5 g 14.4
  #     hydro 4 d 14.4
  #     hydro 4 f 16.8
  # Further basis functions - -0.21 meV and below
  #     hydro 3 p 14.8
  #     hydro 3 s 4.4
  #     hydro 3 d 19.6
  #     hydro 5 g 12.8
  ################################################################################
  #
  #  FHI-aims code project
  #  VB, Fritz-Haber Institut, 2009
  #
  #  Suggested "light" defaults for O atom (to be pasted into control.in file)
  #  Be sure to double-check any results obtained with these settings for post-processing,
  #  e.g., with the "tight" defaults and larger basis sets.
  #
  ################################################################################
    species        O
  #     global species definitions
      nucleus             8
      mass                15.9994
  #
      l_hartree           4
  #
      cut_pot             3.5  1.5  1.0
      basis_dep_cutoff    1e-4
  #
      radial_base         36 5.0
      radial_multiplier   1
       angular_grids specified
        division   0.2659   50
        division   0.4451  110
        division   0.6052  194
        division   0.7543  302
  #      division   0.8014  434
  #      division   0.8507  590
  #      division   0.8762  770
  #      division   0.9023  974
  #      division   1.2339 1202
  #      outer_grid 974
        outer_grid 302
  ################################################################################
  #
  #  Definition of "minimal" basis
  #
  ################################################################################
  #     valence basis states
      valence      2  s   2.
      valence      2  p   4.
  #     ion occupancy
      ion_occ      2  s   1.
      ion_occ      2  p   3.
  ################################################################################
  #
  #  Suggested additional basis functions. For production calculations,
  #  uncomment them one after another (the most important basis functions are
  #  listed first).
  #
  #  Constructed for dimers: 1.0 A, 1.208 A, 1.5 A, 2.0 A, 3.0 A
  #
  ################################################################################
  #  "First tier" - improvements: -699.05 meV to -159.38 meV
       hydro 2 p 1.8
       hydro 3 d 7.6
       hydro 3 s 6.4
  #  "Second tier" - improvements: -49.91 meV to -5.39 meV
  #     hydro 4 f 11.6
  #     hydro 3 p 6.2
  #     hydro 3 d 5.6
  #     hydro 5 g 17.6
  #     hydro 1 s 0.75
  #  "Third tier" - improvements: -2.83 meV to -0.50 meV
  #     ionic 2 p auto
  #     hydro 4 f 10.8
  #     hydro 4 d 4.7
  #     hydro 2 s 6.8
  #  "Fourth tier" - improvements: -0.40 meV to -0.12 meV
  #     hydro 3 p 5
  #     hydro 3 s 3.3
  #     hydro 5 g 15.6
  #     hydro 4 f 17.6
  #     hydro 4 d 14
  # Further basis functions - -0.08 meV and below
  #     hydro 3 s 2.1
  #     hydro 4 d 11.6
  #     hydro 3 p 16
  #     hydro 2 s 17.2
  
  -----------------------------------------------------------------------
  Completed first pass over input file control.in .
  -----------------------------------------------------------------------
  
  
  -----------------------------------------------------------------------
  Parsing geometry.in (first pass over file, find array dimensions only).
  The contents of geometry.in will be repeated verbatim below
  unless switched off by setting 'verbatim_writeout .false.' .
  in the first line of geometry.in .
  -----------------------------------------------------------------------
  
  atom  0.00000 0.00000 0.00000 C
  atom  1.09300 0.00000 0.00000 H
  atom  -0.47961 0.00000 -1.41207 N
  atom  0.32955 0.04861 -2.03234 H
  atom  -1.00080 -0.85802 -1.58025 H
  atom  -0.49584 1.26211 0.72868 C
  atom  -1.58789 1.28919 0.74431 H
  atom  -0.13407 1.27425 1.75947 H
  atom  -0.13407 2.16087 0.22380 H
  atom  -0.39425 -1.28861 0.74398 C
  atom  -0.10189 -1.56493 1.88303 O
  atom  -1.10210 -2.13717 0.06896 O
  atom  -0.49675 -2.89630 0.11637 H
  
  -----------------------------------------------------------------------
  Completed first pass over input file geometry.in .
  -----------------------------------------------------------------------
  

  Basic array size parameters:
  | Number of species                 :        4
  | Number of atoms                   :       13
  | Max. basis fn. angular momentum   :        2
  | Max. atomic/ionic basis occupied n:        2
  | Max. number of basis fn. types    :        2
  | Max. radial fns per species/type  :        3
  | Max. logarithmic grid size        :     1301
  | Max. radial integration grid size :       36
  | Max. angular integration grid size:      302
  | Max. angular grid division number :        8
  | Radial grid for Hartree potential :     1301
  | Number of spin channels           :        1

------------------------------------------------------------
          Reading file control.in.
------------------------------------------------------------
  XC: Using PBE gradient-corrected functionals.
  Spin treatment: No spin polarisation.
  Non-relativistic treatment of kinetic energy.
  Charge =   0.000000E+00: Neutral system requested explicitly.
  Occupation type: Gaussian broadening, width =   0.100000E-01 eV.
  Using pulay charge density mixing.
  Pulay mixing - number of memorized iterations:   10
  Charge density mixing - mixing parameter:     0.2000
  Convergence accuracy of self-consistent charge density:  0.1000E-04
  Convergence accuracy of sum of eigenvalues:  0.1000E-02
  Convergence accuracy of total energy:  0.1000E-05
  Convergence accuracy of forces:  0.1000E-03
  Maximum number of s.-c. iterations  :   100
 
  Reading configuration options for species H                   .
  | Found nuclear charge :   1.0000
  | Found atomic mass :    1.00794000000000      amu
  | Found l_max for Hartree potential  :   4
  | Found cutoff potl. onset [A], width [A], scale factor :    3.50000    1.50000    1.00000
  | Threshold for basis-dependent cutoff potential is   0.100000E-03
  | Found data for basic radial integration grid :    24 points, outermost radius =    5.000 A
  | Found multiplier for basic radial grid :   1
  | Found angular grid specification: user-specified.
  | Specified grid contains     5 separate shells.
  | Check grid settings after all constraints further below.
  | Found free-atom valence shell :  1 s   1.000
  | No ionic wave fns used. Skipping ion_occ.
  | Found hydrogenic basis function :  2 s   2.100
  | Found hydrogenic basis function :  2 p   3.500
  Species H                   : Missing cutoff potential type.
  Defaulting to exp(1/x)/(1-x)^2 type cutoff potential.
  Species H : No 'logarithmic' tag. Using default grid for free atom:
  | Default logarithmic grid data [bohr] : 0.1000E-03 0.1000E+03 0.1012E+01
  Species H : On-site basis accuracy parameter (for Gram-Schmidt orthonormalisation) not specified.
  Using default value basis_acc =  0.1000000E-03.
  Species H                   : Using default innermost maximum threshold i_radial=  2 for radial functions.
  Species H                   : Default cutoff onset for free atom density etc. : 0.35000000E+01 AA.
  Species H                   : Basic radial grid will be enhanced according to radial_multiplier =   1, to contain    24 grid points.
 
  Reading configuration options for species C                   .
  | Found nuclear charge :   6.0000
  | Found atomic mass :    12.0107000000000      amu
  | Found l_max for Hartree potential  :   4
  | Found cutoff potl. onset [A], width [A], scale factor :    3.50000    1.50000    1.00000
  | Threshold for basis-dependent cutoff potential is   0.100000E-03
  | Found data for basic radial integration grid :    34 points, outermost radius =    5.000 A
  | Found multiplier for basic radial grid :   1
  | Found angular grid specification: user-specified.
  | Specified grid contains     5 separate shells.
  | Check grid settings after all constraints further below.
  | Found free-atom valence shell :  2 s   2.000
  | Found free-atom valence shell :  2 p   2.000
  | No ionic wave fns used. Skipping ion_occ.
  | No ionic wave fns used. Skipping ion_occ.
  | Found hydrogenic basis function :  2 p   1.700
  | Found hydrogenic basis function :  3 d   6.000
  | Found hydrogenic basis function :  2 s   4.900
  Species C                   : Missing cutoff potential type.
  Defaulting to exp(1/x)/(1-x)^2 type cutoff potential.
  Species C : No 'logarithmic' tag. Using default grid for free atom:
  | Default logarithmic grid data [bohr] : 0.1000E-03 0.1000E+03 0.1012E+01
  Species C : On-site basis accuracy parameter (for Gram-Schmidt orthonormalisation) not specified.
  Using default value basis_acc =  0.1000000E-03.
  Species C                   : Using default innermost maximum threshold i_radial=  2 for radial functions.
  Species C                   : Default cutoff onset for free atom density etc. : 0.35000000E+01 AA.
  Species C                   : Basic radial grid will be enhanced according to radial_multiplier =   1, to contain    34 grid points.
 
  Reading configuration options for species N                   .
  | Found nuclear charge :   7.0000
  | Found atomic mass :    14.0067000000000      amu
  | Found l_max for Hartree potential  :   4
  | Found cutoff potl. onset [A], width [A], scale factor :    3.50000    1.50000    1.00000
  | Threshold for basis-dependent cutoff potential is   0.100000E-03
  | Found data for basic radial integration grid :    35 points, outermost radius =    5.000 A
  | Found multiplier for basic radial grid :   1
  | Found angular grid specification: user-specified.
  | Specified grid contains     5 separate shells.
  | Check grid settings after all constraints further below.
  | Found free-atom valence shell :  2 s   2.000
  | Found free-atom valence shell :  2 p   3.000
  | No ionic wave fns used. Skipping ion_occ.
  | No ionic wave fns used. Skipping ion_occ.
  | Found hydrogenic basis function :  2 p   1.800
  | Found hydrogenic basis function :  3 d   6.800
  | Found hydrogenic basis function :  3 s   5.800
  Species N                   : Missing cutoff potential type.
  Defaulting to exp(1/x)/(1-x)^2 type cutoff potential.
  Species N : No 'logarithmic' tag. Using default grid for free atom:
  | Default logarithmic grid data [bohr] : 0.1000E-03 0.1000E+03 0.1012E+01
  Species N : On-site basis accuracy parameter (for Gram-Schmidt orthonormalisation) not specified.
  Using default value basis_acc =  0.1000000E-03.
  Species N                   : Using default innermost maximum threshold i_radial=  2 for radial functions.
  Species N                   : Default cutoff onset for free atom density etc. : 0.35000000E+01 AA.
  Species N                   : Basic radial grid will be enhanced according to radial_multiplier =   1, to contain    35 grid points.
 
  Reading configuration options for species O                   .
  | Found nuclear charge :   8.0000
  | Found atomic mass :    15.9994000000000      amu
  | Found l_max for Hartree potential  :   4
  | Found cutoff potl. onset [A], width [A], scale factor :    3.50000    1.50000    1.00000
  | Threshold for basis-dependent cutoff potential is   0.100000E-03
  | Found data for basic radial integration grid :    36 points, outermost radius =    5.000 A
  | Found multiplier for basic radial grid :   1
  | Found angular grid specification: user-specified.
  | Specified grid contains     5 separate shells.
  | Check grid settings after all constraints further below.
  | Found free-atom valence shell :  2 s   2.000
  | Found free-atom valence shell :  2 p   4.000
  | No ionic wave fns used. Skipping ion_occ.
  | No ionic wave fns used. Skipping ion_occ.
  | Found hydrogenic basis function :  2 p   1.800
  | Found hydrogenic basis function :  3 d   7.600
  | Found hydrogenic basis function :  3 s   6.400
  Species O                   : Missing cutoff potential type.
  Defaulting to exp(1/x)/(1-x)^2 type cutoff potential.
  Species O : No 'logarithmic' tag. Using default grid for free atom:
  | Default logarithmic grid data [bohr] : 0.1000E-03 0.1000E+03 0.1012E+01
  Species O : On-site basis accuracy parameter (for Gram-Schmidt orthonormalisation) not specified.
  Using default value basis_acc =  0.1000000E-03.
  Species O                   : Using default innermost maximum threshold i_radial=  2 for radial functions.
  Species O                   : Default cutoff onset for free atom density etc. : 0.35000000E+01 AA.
  Species O                   : Basic radial grid will be enhanced according to radial_multiplier =   1, to contain    36 grid points.
 
  Finished reading input file 'control.in'. Consistency checks are next.
 
  MPI_IN_PLACE appears to work with this MPI implementation.
  | Keeping use_mpi_in_place .true. (see manual).
  Target number of points in a grid batch is not set. Defaulting to  100
  Method for grid partitioning is not set. Defaulting to parallel hash+maxmin partitioning.
  Batch size limit is not set. Defaulting to    200
  By default, will store active basis functions for each batch.
  If in need of memory, prune_basis_once .false. can be used to disable this option.
  communication_type for Hartree potential was not specified.
  Defaulting to calc_hartree .
  Pulay mixer: Number of initial linear mixing iterations not set.
  Defaulting to    0 iterations.
  Work space size for distributed Hartree potential not set.
  Defaulting to   0.200000E+03 MB.
  Algorithm-dependent basis array size parameters:
  | n_max_pulay                         :       10
  Presetting      1001 iterations before the initial mixing cycle
  is restarted anyway using the sc_init_iter criterion / keyword.
  Presetting a factor      1.000 between actual scf density residual
  and density convergence criterion sc_accuracy_rho below which sc_init_iter
  takes no effect.
  Geometry relaxation not requested: no relaxation will be performed.
  Handling of forces: Unphysical translation and rotation will be removed from forces.
  No accuracy limit for integral partition fn. given. Defaulting to  0.1000E-14.
  No threshold value for u(r) in integrations given. Defaulting to  0.1000E-05.
  No accuracy for occupation numbers given. Defaulting to  0.1000E-12.
  No threshold value for occupation numbers given. Defaulting to  0.0000E+00.
  No accuracy for fermi level given. Defaulting to  0.1000E-19.
  Maximum # of iterations to find E_F not set. Defaulting to  200.
  Preferred method for the eigenvalue solver ('KS_method') not specified in 'control.in'.
  Defaulting to serial version, 'lapack_fast'.
  Will not use alltoall communication since running on < 1024 CPUs.
  Threshold for basis singularities not set.
  Default threshold for basis singularities:  0.1000E-04
  partition_type (choice of integration weights) for integrals was not specified.
  | Using a version of the partition function of Stratmann and coworkers ('stratmann_smoother').
  | At each grid point, the set of atoms used to build the partition table is smoothly restricted to
  | only those atoms whose free-atom density would be non-zero at that grid point.
  Partitioning for Hartree potential was not defined. Using partition_type for integrals.
  | Adjusted default value of keyword multip_moments_threshold to:       0.10000000E-11
  | This value may affect high angular momentum components of the Hartree potential in periodic systems.
  No q(lm)/r^(l+1) cutoff set for long-range Hartree potential.
  | Using default value of  0.100000E-09 .
  | Verify using the multipole_threshold keyword.
  Defaulting to new monopole extrapolation.
  Density update method: automatic selection selected.
------------------------------------------------------------


------------------------------------------------------------
          Reading geometry description geometry.in.
------------------------------------------------------------
  Input structure read successfully.
  The structure contains       13 atoms,  and a total of         48.000 electrons.

  Input geometry:
  | No unit cell requested.
  | Atomic structure:
  |       Atom                x [A]            y [A]            z [A]
  |    1: Species C             0.00000000        0.00000000        0.00000000
  |    2: Species H             1.09300000        0.00000000        0.00000000
  |    3: Species N            -0.47961000        0.00000000       -1.41207000
  |    4: Species H             0.32955000        0.04861000       -2.03234000
  |    5: Species H            -1.00080000       -0.85802000       -1.58025000
  |    6: Species C            -0.49584000        1.26211000        0.72868000
  |    7: Species H            -1.58789000        1.28919000        0.74431000
  |    8: Species H            -0.13407000        1.27425000        1.75947000
  |    9: Species H            -0.13407000        2.16087000        0.22380000
  |   10: Species C            -0.39425000       -1.28861000        0.74398000
  |   11: Species O            -0.10189000       -1.56493000        1.88303000
  |   12: Species O            -1.10210000       -2.13717000        0.06896000
  |   13: Species H            -0.49675000       -2.89630000        0.11637000
  |

  | The smallest distance between any two atoms is         0.97209809 AA.
  |
  | The first atom of this pair is atom number                     12 .
  | The second atom of this pair is atom number                    13 .

  Number of empty states per atom not set in control.in - providing a guess from actual geometry.
  | Total number of empty states used during s.c.f. cycle:       29
  If you use a very high smearing, use empty_states (per atom!) in control.in to increase this value.

  Structure-dependent array size parameters: 
  | Maximum number of distinct radial functions  :       21
  | Maximum number of basis functions            :      119
  | Number of Kohn-Sham states (occupied + empty):       53
------------------------------------------------------------

------------------------------------------------------------
          Preparing all fixed parts of the calculation.
------------------------------------------------------------
  Determining machine precision:
    2.225073858507201E-308
  Setting up grids for atomic and cluster calculations.

  Creating wave function, potential, and density for free atoms.

  Species: H

  List of occupied orbitals and eigenvalues:
    n    l              occ      energy [Ha]    energy [eV]
    1    0           1.0000        -0.237589        -6.4651


  Species: C

  List of occupied orbitals and eigenvalues:
    n    l              occ      energy [Ha]    energy [eV]
    1    0           2.0000       -10.038835      -273.1706
    2    0           2.0000        -0.502696       -13.6791
    2    1           2.0000        -0.191971        -5.2238


  Species: N

  List of occupied orbitals and eigenvalues:
    n    l              occ      energy [Ha]    energy [eV]
    1    0           2.0000       -14.128000      -384.4424
    2    0           2.0000        -0.681077       -18.5330
    2    1           3.0000        -0.259788        -7.0692


  Species: O

  List of occupied orbitals and eigenvalues:
    n    l              occ      energy [Ha]    energy [eV]
    1    0           2.0000       -18.898188      -514.2459
    2    0           2.0000        -0.878505       -23.9053
    2    1           4.0000        -0.331779        -9.0282

  Creating fixed part of basis set: Ionic, confined, hydrogenic.
 
  H                    hydrogenic:
 
  List of hydrogenic basis orbitals: 
    n    l      effective z      eigenvalue [eV]  inner max. [A]     outer max. [A]     outer radius [A]   
    2    0         2.100000       -14.9728           0.193243           1.317208           4.583499
    2    1         3.500000       -41.6669           0.602369           0.602369           3.723403
 
 
  C                    hydrogenic:
 
  List of hydrogenic basis orbitals: 
    n    l      effective z      eigenvalue [eV]  inner max. [A]     outer max. [A]     outer radius [A]   
    2    1         1.700000        -9.7616           1.230570           1.230570           4.607917
    3    2         6.000000       -54.4224           0.792453           0.792453           3.883070
    2    0         4.900000       -81.6679           0.082559           0.562749           3.078220
 
 
  N                    hydrogenic:
 
  List of hydrogenic basis orbitals: 
    n    l      effective z      eigenvalue [eV]  inner max. [A]     outer max. [A]     outer radius [A]   
    2    1         1.800000       -10.9749           1.177451           1.177451           4.573712
    3    2         6.800000       -69.9026           0.704619           0.704619           3.538137
    3    0         5.800000       -50.8545           0.067388           1.191934           4.250239
 
 
  O                    hydrogenic:
 
  List of hydrogenic basis orbitals: 
    n    l      effective z      eigenvalue [eV]  inner max. [A]     outer max. [A]     outer radius [A]   
    2    1         1.800000       -10.9749           1.164242           1.164242           4.578029
    3    2         7.600000       -87.3180           0.624125           0.624125           3.251020
    3    0         6.400000       -61.9207           0.061167           1.081902           4.001998
 

  Adding cutoff potential to free-atom effective potential.
  Creating atomic-like basis functions for current effective potential.

  Species H                   :

  List of atomic basis orbitals and eigenvalues:
    n    l      energy [Ha]    energy [eV]    outer radius [A]
    1    0        -0.237589        -6.4651       4.527807


  Species C                   :

  List of atomic basis orbitals and eigenvalues:
    n    l      energy [Ha]    energy [eV]    outer radius [A]
    1    0       -10.038835      -273.1706       1.934409
    2    0        -0.502696       -13.6791       4.496620
    2    1        -0.191971        -5.2238       4.551928


  Species N                   :

  List of atomic basis orbitals and eigenvalues:
    n    l      energy [Ha]    energy [eV]    outer radius [A]
    1    0       -14.128000      -384.4424       1.637919
    2    0        -0.681077       -18.5330       4.463241
    2    1        -0.259788        -7.0692       4.518138


  Species O                   :

  List of atomic basis orbitals and eigenvalues:
    n    l      energy [Ha]    energy [eV]    outer radius [A]
    1    0       -18.898188      -514.2459       1.415765
    2    0        -0.878505       -23.9053       4.413171
    2    1        -0.331779        -9.0282       4.522403

  Assembling full basis from fixed parts.
  | Species H :   atomic orbital   1 s accepted.
  | Species H :    hydro orbital   2 s accepted.
  | Species H :    hydro orbital   2 p accepted.
  | Species C :   atomic orbital   1 s accepted.
  | Species C :    hydro orbital   2 s accepted.
  | Species C :   atomic orbital   2 s accepted.
  | Species C :   atomic orbital   2 p accepted.
  | Species C :    hydro orbital   2 p accepted.
  | Species C :    hydro orbital   3 d accepted.
  | Species N :   atomic orbital   1 s accepted.
  | Species N :    hydro orbital   3 s accepted.
  | Species N :   atomic orbital   2 s accepted.
  | Species N :   atomic orbital   2 p accepted.
  | Species N :    hydro orbital   2 p accepted.
  | Species N :    hydro orbital   3 d accepted.
  | Species O :   atomic orbital   1 s accepted.
  | Species O :    hydro orbital   3 s accepted.
  | Species O :   atomic orbital   2 s accepted.
  | Species O :   atomic orbital   2 p accepted.
  | Species O :    hydro orbital   2 p accepted.
  | Species O :    hydro orbital   3 d accepted.
 
  Basis size parameters after reduction:
  | Total number of radial functions:       21
  | Total number of basis functions :      119
 
  Per-task memory consumption for arrays in subroutine allocate_ext:
  |           5.250512MB.
  Testing on-site integration grid accuracy.
  |  Species  Function  <phi|h_atom|phi> (log., in eV)  <phi|h_atom|phi> (rad., in eV)
           1        1                 -6.4663192853                 -6.4651273558
           1        2                 13.7111246313                 13.7170609718
           1        3                 25.2673269279                 25.2674696378
           2        4               -273.1705927641               -273.1705631568
           2        5                -10.7109323383                -10.7107120029
           2        6                 17.4381822266                 17.4352413244
           2        7                 -5.2255326521                 -5.2270484734
           2        8                  8.6835629259                  8.6603288385
           2        9                 27.4952418996                 27.4953360207
           3       10               -384.4424306495               -384.4423701208
           3       11                 12.5842251816                 12.5842222903
           3       12                -15.7264628251                -15.7264433455
           3       13                 -7.0696854293                 -7.0701769954
           3       14                  8.8090390882                  8.7901077751
           3       15                 35.9586762123                 35.9588528632
           4       16               -514.2458688638               -514.2457643834
           4       17                 15.1795651126                 15.1795290741
           4       18                -21.5359799773                -21.5360846186
           4       19                 -9.0283069236                 -9.0284644067
           4       20                  8.3027758564                  8.2834874195
           4       21                 45.8339351984                 45.8338762259

  Preparing densities etc. for the partition functions (integrals / Hartree potential).

  Preparations completed.
  max(cpu_time)          :      0.146 s.
  Wall clock time (cpu1) :      0.148 s.
------------------------------------------------------------

------------------------------------------------------------
          Begin self-consistency loop: Initialization.

          Date     :  20200902, Time     :  102308.616
------------------------------------------------------------

  Initializing index lists of integration centers etc. from given atomic structure:
  | Number of centers in hartree potential         :        13
  | Number of centers in hartree multipole         :        13
  | Number of centers in electron density summation:        13
  | Number of centers in basis integrals           :        13
  | Number of centers in integrals                 :        13
  | Number of centers in hamiltonian               :        13
  Partitioning the integration grid into batches with parallel hashing+maxmin method.
  | Number of batches:      958
  | Maximal batch size:     139
  | Minimal batch size:      66
  | Average batch size:      72.699
  | Standard deviation of batch sizes:      17.285

  Integration load balanced across     1 MPI tasks.
  Work distribution over tasks is as follows:
  Task     0 has      69646 integration points.
  Initializing partition tables, free-atom densities, potentials, etc. across the integration grid (initialize_grid_storage).
  | initialize_grid_storage: Actual outermost partition radius vs. multipole_radius_free
  | (-- VB: in principle, multipole_radius_free should be larger, hence this output)
  | Species        1: Confinement radius =              4.999999999999999 AA, multipole_radius_free =              5.054417573612229 AA.
  | Species        1: outer_partition_radius set to              5.054417573612229 AA .
  | Species        2: Confinement radius =              4.999999999999999 AA, multipole_radius_free =              5.019602836301480 AA.
  | Species        2: outer_partition_radius set to              5.019602836301480 AA .
  | Species        3: Confinement radius =              4.999999999999999 AA, multipole_radius_free =              5.043624274424571 AA.
  | Species        3: outer_partition_radius set to              5.043624274424571 AA .
  | Species        4: Confinement radius =              4.999999999999999 AA, multipole_radius_free =              5.048384829883283 AA.
  | Species        4: outer_partition_radius set to              5.048384829883283 AA .
  | Original list of interatomic distances with          13 x         13 entries is created.
  | Net number of integration points:    69646
  | of which are non-zero points    :    59621
  Renormalizing the initial density to the exact electron count on the 3D integration grid.
  | Initial density: Formal number of electrons (from input files) :      48.0000000000
  | Integrated number of electrons on 3D grid     :      47.9999627925
  | Charge integration error                      :      -0.0000372075
  | Normalization factor for density and gradient :       1.0000007752
  Obtaining max. number of non-zero basis functions in each batch (get_n_compute_maxes).
  | Maximal number of non-zero basis functions:      118 in task     0
  Selecting the method for density update.
  Loop over occupied states selected for charge density update.
  Allocating        0.050 MB for KS_eigenvector
  Integrating Hamiltonian matrix: batch-based integration.
  Time summed over all CPUs for integration: real work        0.495 s, elapsed        0.495 s
  Integrating overlap matrix.
  Time summed over all CPUs for integration: real work        0.210 s, elapsed        0.210 s

  Updating Kohn-Sham eigenvalues and eigenvectors using ELSI and the ELPA eigensolver.
  Overlap matrix is nonsingular
  | Lowest eigenvalue of overlap  :  0.46E-02
  | Highest eigenvalue of overlap :  0.61E+01
  Finished singularity check of overlap matrix
  | Time :     0.002 s
  Finished Cholesky decomposition
  | Time :     0.000 s
  Finished transformation to standard eigenproblem
  | Time :     0.000 s
  Starting LAPACK eigensolver
  Finished solving standard eigenproblem
  | Time :     0.002 s
  Finished back-transformation of eigenvectors
  | Time :     0.000 s

  Obtaining occupation numbers and chemical potential using ELSI.
  | Chemical potential (Fermi level):    -9.82407224eV
  Writing Kohn-Sham eigenvalues.

  State    Occupation    Eigenvalue [Ha]    Eigenvalue [eV]
      1       2.00000         -19.008474         -517.24690
      2       2.00000         -18.977628         -516.40753
      3       2.00000         -14.245793         -387.64776
      4       2.00000         -10.166582         -276.64678
      5       2.00000         -10.141259         -275.95771
      6       2.00000         -10.132157         -275.71003
      7       2.00000          -1.186230          -32.27896
      8       2.00000          -1.095646          -29.81406
      9       2.00000          -0.990823          -26.96168
     10       2.00000          -0.861766          -23.44984
     11       2.00000          -0.754909          -20.54211
     12       2.00000          -0.684579          -18.62835
     13       2.00000          -0.625407          -17.01818
     14       2.00000          -0.611562          -16.64144
     15       2.00000          -0.584510          -15.90532
     16       2.00000          -0.566585          -15.41757
     17       2.00000          -0.552821          -15.04304
     18       2.00000          -0.535370          -14.56817
     19       2.00000          -0.516152          -14.04521
     20       2.00000          -0.493994          -13.44226
     21       2.00000          -0.465963          -12.67951
     22       2.00000          -0.429171          -11.67833
     23       2.00000          -0.408559          -11.11745
     24       2.00000          -0.385295          -10.48440
     25       0.00000          -0.160466           -4.36650
     26       0.00000          -0.060408           -1.64378
     27       0.00000          -0.029174           -0.79385
     28       0.00000          -0.022838           -0.62147
     29       0.00000           0.001097            0.02984
     30       0.00000           0.010925            0.29728
     31       0.00000           0.023564            0.64121
     32       0.00000           0.027582            0.75055
     33       0.00000           0.040469            1.10121
     34       0.00000           0.072319            1.96789
     35       0.00000           0.087959            2.39348
     36       0.00000           0.132694            3.61079
     37       0.00000           0.163476            4.44840
     38       0.00000           0.198253            5.39475
     39       0.00000           0.209138            5.69094
     40       0.00000           0.223613            6.08481
     41       0.00000           0.257959            7.01943
     42       0.00000           0.279132            7.59558
     43       0.00000           0.288741            7.85705
     44       0.00000           0.313610            8.53377
     45       0.00000           0.340931            9.27720
     46       0.00000           0.360416            9.80741
     47       0.00000           0.381365           10.37747
     48       0.00000           0.388883           10.58205
     49       0.00000           0.420004           11.42890
     50       0.00000           0.493174           13.41993
     51       0.00000           0.508428           13.83503
     52       0.00000           0.530014           14.42242
     53       0.00000           0.556060           15.13115

  Highest occupied state (VBM) at    -10.48440183 eV
  | Occupation number:      2.00000000

  Lowest unoccupied state (CBM) at    -4.36649522 eV
  | Occupation number:      0.00000000

  Overall HOMO-LUMO gap:      6.11790662 eV.
  Calculating total energy contributions from superposition of free atom densities.

  Total energy components:
  | Sum of eigenvalues            :        -188.84247436 Ha       -5138.66517964 eV
  | XC energy correction          :         -41.78833198 Ha       -1137.11836900 eV
  | XC potential correction       :          53.71945157 Ha        1461.78065173 eV
  | Free-atom electrostatic energy:        -146.85125034 Ha       -3996.02583728 eV
  | Hartree energy correction     :           0.00000000 Ha           0.00000000 eV
  | vdW energy correction         :           0.00000000 Ha           0.00000000 eV
  | Entropy correction            :           0.00000000 Ha           0.00000000 eV
  | ---------------------------
  | Total energy                  :        -323.76260510 Ha       -8810.02873420 eV
  | Total energy, T -> 0          :        -323.76260510 Ha       -8810.02873420 eV  <-- do not rely on this value for anything but (periodic) metals
  | Electronic free energy        :        -323.76260510 Ha       -8810.02873420 eV

  Derived energy quantities:
  | Kinetic energy                :         320.49361688 Ha        8721.07503862 eV
  | Electrostatic energy          :        -602.46789000 Ha      -16393.98540382 eV
  | Energy correction for multipole
  | error in Hartree potential    :           0.00000000 Ha           0.00000000 eV
  | Sum of eigenvalues per atom                           :        -395.28193690 eV
  | Total energy (T->0) per atom                          :        -677.69451802 eV  <-- do not rely on this value for anything but (periodic) metals
  | Electronic free energy per atom                       :        -677.69451802 eV
  Initialize hartree_potential_storage
  Max. number of atoms included in rho_multipole:           13

  End scf initialization - timings             :  max(cpu_time)    wall_clock(cpu1)
  | Time for scf. initialization               :        1.148 s           1.151 s
  | Boundary condition initialization          :        0.000 s           0.000 s
  | Integration                                :        0.705 s           0.706 s
  | Solution of K.-S. eqns.                    :        0.004 s           0.004 s
  | Grid partitioning                          :        0.111 s           0.112 s
  | Preloading free-atom quantities on grid    :        0.002 s           0.003 s
  | Free-atom superposition energy             :        0.085 s           0.084 s
  | Total energy evaluation                    :        0.000 s           0.001 s

  Partial memory accounting:
  | Current value for overall tracked memory usage on task 0  :           0.165 MB
  | Peak value for overall tracked memory usage on task 0     :           0.673 MB after allocating wave
  | Largest tracked array allocation on task 0 so far         :           0.131 MB  when allocating H_times_psi
  Note:  These values currently only include a subset of arrays which are explicitly tracked.
  The "true" memory usage will be greater.
------------------------------------------------------------

------------------------------------------------------------
          Begin self-consistency iteration #    1

  Date     :  20200902, Time     :  102309.767
------------------------------------------------------------
  Evaluating new KS density.
  Integration grid: deviation in total charge (<rho> - N_e) =   7.105427E-15
  Pulay mixing of updated and previous charge densities.

  Evaluating partitioned Hartree potential by multipole expansion.
  | Analytical far-field extrapolation by fixed multipoles:
  | Hartree multipole sum: apparent total charge =  -0.143653E-03
  Summing up the Hartree potential.
  Time summed over all CPUs for potential: real work        0.283 s, elapsed        0.283 s
  | RMS charge density error from multipole expansion :   0.588101E-02

  Integrating Hamiltonian matrix: batch-based integration.
  Time summed over all CPUs for integration: real work        0.494 s, elapsed        0.494 s

  Updating Kohn-Sham eigenvalues and eigenvectors using ELSI and the ELPA eigensolver.
  Finished Cholesky decomposition
  | Time :     0.000 s
  Finished transformation to standard eigenproblem
  | Time :     0.000 s
  Starting LAPACK eigensolver
  Finished solving standard eigenproblem
  | Time :     0.002 s
  Finished back-transformation of eigenvectors
  | Time :     0.000 s

  Obtaining occupation numbers and chemical potential using ELSI.
  | Chemical potential (Fermi level):    -4.67662552eV
  Writing Kohn-Sham eigenvalues.

  State    Occupation    Eigenvalue [Ha]    Eigenvalue [eV]
      1       2.00000         -18.905146         -514.43520
      2       2.00000         -18.840776         -512.68359
      3       2.00000         -14.093694         -383.50892
      4       2.00000         -10.119365         -275.36194
      5       2.00000         -10.061799         -273.79549
      6       2.00000         -10.026126         -272.82476
      7       2.00000          -1.139451          -31.00605
      8       2.00000          -1.035173          -28.16848
      9       2.00000          -0.919890          -25.03147
     10       2.00000          -0.793242          -21.58521
     11       2.00000          -0.703252          -19.13647
     12       2.00000          -0.639914          -17.41293
     13       2.00000          -0.570659          -15.52841
     14       2.00000          -0.549893          -14.96336
     15       2.00000          -0.528575          -14.38326
     16       2.00000          -0.509406          -13.86165
     17       2.00000          -0.490389          -13.34417
     18       2.00000          -0.471547          -12.83146
     19       2.00000          -0.448681          -12.20923
     20       2.00000          -0.435952          -11.86287
     21       2.00000          -0.408484          -11.11542
     22       2.00000          -0.374115          -10.18019
     23       2.00000          -0.338212           -9.20322
     24       2.00000          -0.309531           -8.42277
     25       0.00000          -0.127178           -3.46068
     26       0.00000          -0.038659           -1.05196
     27       0.00000          -0.005275           -0.14353
     28       0.00000           0.016428            0.44704
     29       0.00000           0.031409            0.85467
     30       0.00000           0.055094            1.49919
     31       0.00000           0.063900            1.73880
     32       0.00000           0.074661            2.03164
     33       0.00000           0.081719            2.22369
     34       0.00000           0.108671            2.95708
     35       0.00000           0.127300            3.46401
     36       0.00000           0.161072            4.38300
     37       0.00000           0.187732            5.10846
     38       0.00000           0.226454            6.16212
     39       0.00000           0.239620            6.52039
     40       0.00000           0.263914            7.18148
     41       0.00000           0.294998            8.02730
     42       0.00000           0.312506            8.50372
     43       0.00000           0.325302            8.85193
     44       0.00000           0.352293            9.58638
     45       0.00000           0.381894           10.39187
     46       0.00000           0.396230           10.78197
     47       0.00000           0.419065           11.40334
     48       0.00000           0.426870           11.61573
     49       0.00000           0.459117           12.49321
     50       0.00000           0.528698           14.38660
     51       0.00000           0.539064           14.66868
     52       0.00000           0.570724           15.53020
     53       0.00000           0.589653           16.04527

  Highest occupied state (VBM) at     -8.42277012 eV
  | Occupation number:      2.00000000

  Lowest unoccupied state (CBM) at    -3.46067866 eV
  | Occupation number:      0.00000000

  Overall HOMO-LUMO gap:      4.96209147 eV.

  Total energy components:
  | Sum of eigenvalues            :        -185.42654706 Ha       -5045.71306851 eV
  | XC energy correction          :         -42.11820563 Ha       -1146.09468787 eV
  | XC potential correction       :          54.14853158 Ha        1473.45651306 eV
  | Free-atom electrostatic energy:        -146.85125034 Ha       -3996.02583728 eV
  | Hartree energy correction     :          -3.32983075 Ha         -90.60930481 eV
  | vdW energy correction         :           0.00000000 Ha           0.00000000 eV
  | Entropy correction            :           0.00000000 Ha           0.00000000 eV
  | ---------------------------
  | Total energy                  :        -323.57730219 Ha       -8804.98638542 eV
  | Total energy, T -> 0          :        -323.57730219 Ha       -8804.98638542 eV  <-- do not rely on this value for anything but (periodic) metals
  | Electronic free energy        :        -323.57730219 Ha       -8804.98638542 eV

  Derived energy quantities:
  | Kinetic energy                :         322.29316321 Ha        8770.04318596 eV
  | Electrostatic energy          :        -603.75225978 Ha      -16428.93488351 eV
  | Energy correction for multipole
  | error in Hartree potential    :           0.01230428 Ha           0.33481652 eV
  | Sum of eigenvalues per atom                           :        -388.13177450 eV
  | Total energy (T->0) per atom                          :        -677.30664503 eV  <-- do not rely on this value for anything but (periodic) metals
  | Electronic free energy per atom                       :        -677.30664503 eV

  Self-consistency convergence accuracy:
  | Change of charge density      :  0.5866E+00
  | Change of sum of eigenvalues  :  0.9295E+02 eV
  | Change of total energy        :  0.5042E+01 eV

  End self-consistency iteration #     1       :  max(cpu_time)    wall_clock(cpu1)
  | Time for this iteration                    :        1.184 s           1.186 s
  | Charge density update                      :        0.390 s           0.391 s
  | Density mixing                             :        0.005 s           0.005 s
  | Hartree multipole update                   :        0.009 s           0.009 s
  | Hartree multipole summation                :        0.284 s           0.284 s
  | Integration                                :        0.493 s           0.494 s
  | Solution of K.-S. eqns.                    :        0.002 s           0.002 s
  | Total energy evaluation                    :        0.000 s           0.000 s

  Partial memory accounting:
  | Current value for overall tracked memory usage on task 0  :           0.165 MB
  | Peak value for overall tracked memory usage on task 0     :           0.690 MB after allocating gradient_basis_wave
  | Largest tracked array allocation on task 0 so far         :           0.394 MB  when allocating gradient_basis_wave
  Note:  These values currently only include a subset of arrays which are explicitly tracked.
  The "true" memory usage will be greater.
------------------------------------------------------------

------------------------------------------------------------
          Begin self-consistency iteration #    2

  Date     :  20200902, Time     :  102310.954
------------------------------------------------------------
  Evaluating new KS density.
  Integration grid: deviation in total charge (<rho> - N_e) =   7.105427E-15
  Pulay mixing of updated and previous charge densities.

  Evaluating partitioned Hartree potential by multipole expansion.
  | Analytical far-field extrapolation by fixed multipoles:
  | Hartree multipole sum: apparent total charge =  -0.279117E-03
  Summing up the Hartree potential.
  Time summed over all CPUs for potential: real work        0.284 s, elapsed        0.284 s
  | RMS charge density error from multipole expansion :   0.139531E-01

  Integrating Hamiltonian matrix: batch-based integration.
  Time summed over all CPUs for integration: real work        0.492 s, elapsed        0.492 s

  Updating Kohn-Sham eigenvalues and eigenvectors using ELSI and the ELPA eigensolver.
  Finished Cholesky decomposition
  | Time :     0.000 s
  Finished transformation to standard eigenproblem
  | Time :     0.000 s
  Starting LAPACK eigensolver
  Finished solving standard eigenproblem
  | Time :     0.001 s
  Finished back-transformation of eigenvectors
  | Time :     0.000 s

  Obtaining occupation numbers and chemical potential using ELSI.
  | Chemical potential (Fermi level):    -3.49245073eV
  Highest occupied state (VBM) at     -6.35145938 eV
  | Occupation number:      2.00000000

  Lowest unoccupied state (CBM) at    -2.30537796 eV
  | Occupation number:      0.00000000

  Overall HOMO-LUMO gap:      4.04608142 eV.

  Checking to see if s.c.f. parameters should be adjusted.

  Total energy components:
  | Sum of eigenvalues            :        -181.83769761 Ha       -4948.05550625 eV
  | XC energy correction          :         -42.47909956 Ha       -1155.91511126 eV
  | XC potential correction       :          54.61645910 Ha        1486.18946868 eV
  | Free-atom electrostatic energy:        -146.85125034 Ha       -3996.02583728 eV
  | Hartree energy correction     :          -6.94604389 Ha        -189.01147110 eV
  | vdW energy correction         :           0.00000000 Ha           0.00000000 eV
  | Entropy correction            :           0.00000000 Ha           0.00000000 eV
  | ---------------------------
  | Total energy                  :        -323.49763229 Ha       -8802.81845720 eV
  | Total energy, T -> 0          :        -323.49763229 Ha       -8802.81845720 eV  <-- do not rely on this value for anything but (periodic) metals
  | Electronic free energy        :        -323.49763229 Ha       -8802.81845720 eV

  Derived energy quantities:
  | Kinetic energy                :         323.61745618 Ha        8806.07903105 eV
  | Electrostatic energy          :        -604.63598892 Ha      -16452.98237699 eV
  | Energy correction for multipole
  | error in Hartree potential    :           0.02709078 Ha           0.73717769 eV
  | Sum of eigenvalues per atom                           :        -380.61965433 eV
  | Total energy (T->0) per atom                          :        -677.13988132 eV  <-- do not rely on this value for anything but (periodic) metals
  | Electronic free energy per atom                       :        -677.13988132 eV

  Self-consistency convergence accuracy:
  | Change of charge density      :  0.3666E+00
  | Change of sum of eigenvalues  :  0.9766E+02 eV
  | Change of total energy        :  0.2168E+01 eV

  End self-consistency iteration #     2       :  max(cpu_time)    wall_clock(cpu1)
  | Time for this iteration                    :        1.176 s           1.177 s
  | Charge density update                      :        0.382 s           0.382 s
  | Density mixing                             :        0.007 s           0.007 s
  | Hartree multipole update                   :        0.009 s           0.009 s
  | Hartree multipole summation                :        0.284 s           0.284 s
  | Integration                                :        0.492 s           0.493 s
  | Solution of K.-S. eqns.                    :        0.002 s           0.002 s
  | Total energy evaluation                    :        0.000 s           0.000 s

  Partial memory accounting:
  | Current value for overall tracked memory usage on task 0  :           0.166 MB
  | Peak value for overall tracked memory usage on task 0     :           0.690 MB after allocating gradient_basis_wave
  | Largest tracked array allocation on task 0 so far         :           0.394 MB  when allocating gradient_basis_wave
  Note:  These values currently only include a subset of arrays which are explicitly tracked.
  The "true" memory usage will be greater.
------------------------------------------------------------

------------------------------------------------------------
          Begin self-consistency iteration #    3

  Date     :  20200902, Time     :  102312.132
------------------------------------------------------------
  Evaluating new KS density.
  Integration grid: deviation in total charge (<rho> - N_e) =   3.552714E-14
  Pulay mixing of updated and previous charge densities.

  Evaluating partitioned Hartree potential by multipole expansion.
  | Analytical far-field extrapolation by fixed multipoles:
  | Hartree multipole sum: apparent total charge =  -0.374397E-03
  Summing up the Hartree potential.
  Time summed over all CPUs for potential: real work        0.283 s, elapsed        0.283 s
  | RMS charge density error from multipole expansion :   0.219996E-01

  Integrating Hamiltonian matrix: batch-based integration.
  Time summed over all CPUs for integration: real work        0.493 s, elapsed        0.493 s

  Updating Kohn-Sham eigenvalues and eigenvectors using ELSI and the ELPA eigensolver.
  Finished Cholesky decomposition
  | Time :     0.000 s
  Finished transformation to standard eigenproblem
  | Time :     0.000 s
  Starting LAPACK eigensolver
  Finished solving standard eigenproblem
  | Time :     0.002 s
  Finished back-transformation of eigenvectors
  | Time :     0.000 s

  Obtaining occupation numbers and chemical potential using ELSI.
  | Chemical potential (Fermi level):    -2.81219490eV
  Highest occupied state (VBM) at     -5.66969298 eV
  | Occupation number:      2.00000000

  Lowest unoccupied state (CBM) at    -1.64594283 eV
  | Occupation number:      0.00000000

  Overall HOMO-LUMO gap:      4.02375014 eV.

  Total energy components:
  | Sum of eigenvalues            :        -180.52026574 Ha       -4912.20636101 eV
  | XC energy correction          :         -42.63207502 Ha       -1160.07778546 eV
  | XC potential correction       :          54.81171372 Ha        1491.50261712 eV
  | Free-atom electrostatic energy:        -146.85125034 Ha       -3996.02583728 eV
  | Hartree energy correction     :          -8.29270579 Ha        -225.65600572 eV
  | vdW energy correction         :           0.00000000 Ha           0.00000000 eV
  | Entropy correction            :           0.00000000 Ha           0.00000000 eV
  | ---------------------------
  | Total energy                  :        -323.48458317 Ha       -8802.46337235 eV
  | Total energy, T -> 0          :        -323.48458317 Ha       -8802.46337235 eV  <-- do not rely on this value for anything but (periodic) metals
  | Electronic free energy        :        -323.48458317 Ha       -8802.46337235 eV

  Derived energy quantities:
  | Kinetic energy                :         323.21225535 Ha        8795.05295536 eV
  | Electrostatic energy          :        -604.06476349 Ha      -16437.43854225 eV
  | Energy correction for multipole
  | error in Hartree potential    :           0.03829119 Ha           1.04195623 eV
  | Sum of eigenvalues per atom                           :        -377.86202777 eV
  | Total energy (T->0) per atom                          :        -677.11256710 eV  <-- do not rely on this value for anything but (periodic) metals
  | Electronic free energy per atom                       :        -677.11256710 eV

  Self-consistency convergence accuracy:
  | Change of charge density      :  0.2050E+00
  | Change of sum of eigenvalues  :  0.3585E+02 eV
  | Change of total energy        :  0.3551E+00 eV

  End self-consistency iteration #     3       :  max(cpu_time)    wall_clock(cpu1)
  | Time for this iteration                    :        1.177 s           1.179 s
  | Charge density update                      :        0.382 s           0.382 s
  | Density mixing                             :        0.008 s           0.008 s
  | Hartree multipole update                   :        0.009 s           0.009 s
  | Hartree multipole summation                :        0.283 s           0.284 s
  | Integration                                :        0.492 s           0.493 s
  | Solution of K.-S. eqns.                    :        0.002 s           0.002 s
  | Total energy evaluation                    :        0.000 s           0.000 s

  Partial memory accounting:
  | Current value for overall tracked memory usage on task 0  :           0.166 MB
  | Peak value for overall tracked memory usage on task 0     :           0.691 MB after allocating gradient_basis_wave
  | Largest tracked array allocation on task 0 so far         :           0.394 MB  when allocating gradient_basis_wave
  Note:  These values currently only include a subset of arrays which are explicitly tracked.
  The "true" memory usage will be greater.
------------------------------------------------------------

------------------------------------------------------------
          Begin self-consistency iteration #    4

  Date     :  20200902, Time     :  102313.311
------------------------------------------------------------
  Evaluating new KS density.
  Integration grid: deviation in total charge (<rho> - N_e) =   0.000000E+00
  Pulay mixing of updated and previous charge densities.

  Evaluating partitioned Hartree potential by multipole expansion.
  | Analytical far-field extrapolation by fixed multipoles:
  | Hartree multipole sum: apparent total charge =  -0.405926E-03
  Summing up the Hartree potential.
  Time summed over all CPUs for potential: real work        0.283 s, elapsed        0.283 s
  | RMS charge density error from multipole expansion :   0.253944E-01

  Integrating Hamiltonian matrix: batch-based integration.
  Time summed over all CPUs for integration: real work        0.493 s, elapsed        0.493 s

  Updating Kohn-Sham eigenvalues and eigenvectors using ELSI and the ELPA eigensolver.
  Finished Cholesky decomposition
  | Time :     0.000 s
  Finished transformation to standard eigenproblem
  | Time :     0.000 s
  Starting LAPACK eigensolver
  Finished solving standard eigenproblem
  | Time :     0.002 s
  Finished back-transformation of eigenvectors
  | Time :     0.000 s

  Obtaining occupation numbers and chemical potential using ELSI.
  | Chemical potential (Fermi level):    -2.69811046eV
  Highest occupied state (VBM) at     -5.49559101 eV
  | Occupation number:      2.00000000

  Lowest unoccupied state (CBM) at    -1.55810826 eV
  | Occupation number:      0.00000000

  Overall HOMO-LUMO gap:      3.93748275 eV.

  Total energy components:
  | Sum of eigenvalues            :        -180.36778775 Ha       -4908.05722398 eV
  | XC energy correction          :         -42.66967291 Ha       -1161.10087602 eV
  | XC potential correction       :          54.85910359 Ha        1492.79216113 eV
  | Free-atom electrostatic energy:        -146.85125034 Ha       -3996.02583728 eV
  | Hartree energy correction     :          -8.45408711 Ha        -230.04741505 eV
  | vdW energy correction         :           0.00000000 Ha           0.00000000 eV
  | Entropy correction            :           0.00000000 Ha           0.00000000 eV
  | ---------------------------
  | Total energy                  :        -323.48369453 Ha       -8802.43919120 eV
  | Total energy, T -> 0          :        -323.48369453 Ha       -8802.43919120 eV  <-- do not rely on this value for anything but (periodic) metals
  | Electronic free energy        :        -323.48369453 Ha       -8802.43919120 eV

  Derived energy quantities:
  | Kinetic energy                :         322.83133066 Ha        8784.68746718 eV
  | Electrostatic energy          :        -603.64535227 Ha      -16426.02578236 eV
  | Energy correction for multipole
  | error in Hartree potential    :           0.04247204 Ha           1.15572291 eV
  | Sum of eigenvalues per atom                           :        -377.54286338 eV
  | Total energy (T->0) per atom                          :        -677.11070702 eV  <-- do not rely on this value for anything but (periodic) metals
  | Electronic free energy per atom                       :        -677.11070702 eV

  Self-consistency convergence accuracy:
  | Change of charge density      :  0.6504E-01
  | Change of sum of eigenvalues  :  0.4149E+01 eV
  | Change of total energy        :  0.2418E-01 eV

  End self-consistency iteration #     4       :  max(cpu_time)    wall_clock(cpu1)
  | Time for this iteration                    :        1.179 s           1.188 s
  | Charge density update                      :        0.382 s           0.389 s
  | Density mixing                             :        0.009 s           0.010 s
  | Hartree multipole update                   :        0.009 s           0.009 s
  | Hartree multipole summation                :        0.284 s           0.284 s
  | Integration                                :        0.493 s           0.493 s
  | Solution of K.-S. eqns.                    :        0.002 s           0.002 s
  | Total energy evaluation                    :        0.000 s           0.001 s

  Partial memory accounting:
  | Current value for overall tracked memory usage on task 0  :           0.166 MB
  | Peak value for overall tracked memory usage on task 0     :           0.691 MB after allocating gradient_basis_wave
  | Largest tracked array allocation on task 0 so far         :           0.394 MB  when allocating gradient_basis_wave
  Note:  These values currently only include a subset of arrays which are explicitly tracked.
  The "true" memory usage will be greater.
------------------------------------------------------------

------------------------------------------------------------
          Begin self-consistency iteration #    5

  Date     :  20200902, Time     :  102314.499
------------------------------------------------------------
  Evaluating new KS density.
  Integration grid: deviation in total charge (<rho> - N_e) =  -2.131628E-14
  Pulay mixing of updated and previous charge densities.

  Evaluating partitioned Hartree potential by multipole expansion.
  | Analytical far-field extrapolation by fixed multipoles:
  | Hartree multipole sum: apparent total charge =  -0.399970E-03
  Summing up the Hartree potential.
  Time summed over all CPUs for potential: real work        0.283 s, elapsed        0.283 s
  | RMS charge density error from multipole expansion :   0.251722E-01

  Integrating Hamiltonian matrix: batch-based integration.
  Time summed over all CPUs for integration: real work        0.492 s, elapsed        0.492 s

  Updating Kohn-Sham eigenvalues and eigenvectors using ELSI and the ELPA eigensolver.
  Finished Cholesky decomposition
  | Time :     0.000 s
  Finished transformation to standard eigenproblem
  | Time :     0.000 s
  Starting LAPACK eigensolver
  Finished solving standard eigenproblem
  | Time :     0.002 s
  Finished back-transformation of eigenvectors
  | Time :     0.000 s

  Obtaining occupation numbers and chemical potential using ELSI.
  | Chemical potential (Fermi level):    -2.76216203eV
  Highest occupied state (VBM) at     -5.58345231 eV
  | Occupation number:      2.00000000

  Lowest unoccupied state (CBM) at    -1.64510370 eV
  | Occupation number:      0.00000000

  Overall HOMO-LUMO gap:      3.93834861 eV.

  Total energy components:
  | Sum of eigenvalues            :        -180.57336961 Ha       -4913.65139087 eV
  | XC energy correction          :         -42.64444641 Ha       -1160.41442798 eV
  | XC potential correction       :          54.82637480 Ha        1491.90156537 eV
  | Free-atom electrostatic energy:        -146.85125034 Ha       -3996.02583728 eV
  | Hartree energy correction     :          -8.24070744 Ha        -224.24105872 eV
  | vdW energy correction         :           0.00000000 Ha           0.00000000 eV
  | Entropy correction            :           0.00000000 Ha           0.00000000 eV
  | ---------------------------
  | Total energy                  :        -323.48339900 Ha       -8802.43114948 eV
  | Total energy, T -> 0          :        -323.48339900 Ha       -8802.43114948 eV  <-- do not rely on this value for anything but (periodic) metals
  | Electronic free energy        :        -323.48339900 Ha       -8802.43114948 eV

  Derived energy quantities:
  | Kinetic energy                :         322.70808836 Ha        8781.33387371 eV
  | Electrostatic energy          :        -603.54704095 Ha      -16423.35059521 eV
  | Energy correction for multipole
  | error in Hartree potential    :           0.04181916 Ha           1.13795714 eV
  | Sum of eigenvalues per atom                           :        -377.97318391 eV
  | Total energy (T->0) per atom                          :        -677.11008842 eV  <-- do not rely on this value for anything but (periodic) metals
  | Electronic free energy per atom                       :        -677.11008842 eV

  Self-consistency convergence accuracy:
  | Change of charge density      :  0.2061E-01
  | Change of sum of eigenvalues  : -0.5594E+01 eV
  | Change of total energy        :  0.8042E-02 eV

  End self-consistency iteration #     5       :  max(cpu_time)    wall_clock(cpu1)
  | Time for this iteration                    :        1.178 s           1.180 s
  | Charge density update                      :        0.382 s           0.382 s
  | Density mixing                             :        0.011 s           0.011 s
  | Hartree multipole update                   :        0.009 s           0.009 s
  | Hartree multipole summation                :        0.283 s           0.284 s
  | Integration                                :        0.492 s           0.492 s
  | Solution of K.-S. eqns.                    :        0.002 s           0.002 s
  | Total energy evaluation                    :        0.000 s           0.000 s

  Partial memory accounting:
  | Current value for overall tracked memory usage on task 0  :           0.166 MB
  | Peak value for overall tracked memory usage on task 0     :           0.691 MB after allocating gradient_basis_wave
  | Largest tracked array allocation on task 0 so far         :           0.394 MB  when allocating gradient_basis_wave
  Note:  These values currently only include a subset of arrays which are explicitly tracked.
  The "true" memory usage will be greater.
------------------------------------------------------------

------------------------------------------------------------
          Begin self-consistency iteration #    6

  Date     :  20200902, Time     :  102315.681
------------------------------------------------------------
  Evaluating new KS density.
  Integration grid: deviation in total charge (<rho> - N_e) =   4.973799E-14
  Pulay mixing of updated and previous charge densities.

  Evaluating partitioned Hartree potential by multipole expansion.
  | Analytical far-field extrapolation by fixed multipoles:
  | Hartree multipole sum: apparent total charge =  -0.404089E-03
  Summing up the Hartree potential.
  Time summed over all CPUs for potential: real work        0.283 s, elapsed        0.283 s
  | RMS charge density error from multipole expansion :   0.256414E-01

  Integrating Hamiltonian matrix: batch-based integration.
  Time summed over all CPUs for integration: real work        0.492 s, elapsed        0.492 s

  Updating Kohn-Sham eigenvalues and eigenvectors using ELSI and the ELPA eigensolver.
  Finished Cholesky decomposition
  | Time :     0.000 s
  Finished transformation to standard eigenproblem
  | Time :     0.000 s
  Starting LAPACK eigensolver
  Finished solving standard eigenproblem
  | Time :     0.002 s
  Finished back-transformation of eigenvectors
  | Time :     0.000 s

  Obtaining occupation numbers and chemical potential using ELSI.
  | Chemical potential (Fermi level):    -2.75774331eV
  Highest occupied state (VBM) at     -5.54328190 eV
  | Occupation number:      2.00000000

  Lowest unoccupied state (CBM) at    -1.65319481 eV
  | Occupation number:      0.00000000

  Overall HOMO-LUMO gap:      3.89008709 eV.

  Total energy components:
  | Sum of eigenvalues            :        -180.56172242 Ha       -4913.33445473 eV
  | XC energy correction          :         -42.64492324 Ha       -1160.42740322 eV
  | XC potential correction       :          54.82697253 Ha        1491.91783041 eV
  | Free-atom electrostatic energy:        -146.85125034 Ha       -3996.02583728 eV
  | Hartree energy correction     :          -8.25243316 Ha        -224.56013167 eV
  | vdW energy correction         :           0.00000000 Ha           0.00000000 eV
  | Entropy correction            :           0.00000000 Ha           0.00000000 eV
  | ---------------------------
  | Total energy                  :        -323.48335663 Ha       -8802.42999649 eV
  | Total energy, T -> 0          :        -323.48335663 Ha       -8802.42999649 eV  <-- do not rely on this value for anything but (periodic) metals
  | Electronic free energy        :        -323.48335663 Ha       -8802.42999649 eV

  Derived energy quantities:
  | Kinetic energy                :         322.63039868 Ha        8779.21982985 eV
  | Electrostatic energy          :        -603.46883207 Ha      -16421.22242312 eV
  | Energy correction for multipole
  | error in Hartree potential    :           0.04224169 Ha           1.14945476 eV
  | Sum of eigenvalues per atom                           :        -377.94880421 eV
  | Total energy (T->0) per atom                          :        -677.10999973 eV  <-- do not rely on this value for anything but (periodic) metals
  | Electronic free energy per atom                       :        -677.10999973 eV

  Self-consistency convergence accuracy:
  | Change of charge density      :  0.1076E-01
  | Change of sum of eigenvalues  :  0.3169E+00 eV
  | Change of total energy        :  0.1153E-02 eV

  End self-consistency iteration #     6       :  max(cpu_time)    wall_clock(cpu1)
  | Time for this iteration                    :        1.180 s           1.181 s
  | Charge density update                      :        0.382 s           0.382 s
  | Density mixing                             :        0.012 s           0.012 s
  | Hartree multipole update                   :        0.009 s           0.009 s
  | Hartree multipole summation                :        0.284 s           0.284 s
  | Integration                                :        0.491 s           0.492 s
  | Solution of K.-S. eqns.                    :        0.002 s           0.002 s
  | Total energy evaluation                    :        0.000 s           0.000 s

  Partial memory accounting:
  | Current value for overall tracked memory usage on task 0  :           0.166 MB
  | Peak value for overall tracked memory usage on task 0     :           0.691 MB after allocating gradient_basis_wave
  | Largest tracked array allocation on task 0 so far         :           0.394 MB  when allocating gradient_basis_wave
  Note:  These values currently only include a subset of arrays which are explicitly tracked.
  The "true" memory usage will be greater.
------------------------------------------------------------

------------------------------------------------------------
          Begin self-consistency iteration #    7

  Date     :  20200902, Time     :  102316.863
------------------------------------------------------------
  Evaluating new KS density.
  Integration grid: deviation in total charge (<rho> - N_e) =  -2.842171E-14
  Pulay mixing of updated and previous charge densities.

  Evaluating partitioned Hartree potential by multipole expansion.
  | Analytical far-field extrapolation by fixed multipoles:
  | Hartree multipole sum: apparent total charge =  -0.405021E-03
  Summing up the Hartree potential.
  Time summed over all CPUs for potential: real work        0.283 s, elapsed        0.283 s
  | RMS charge density error from multipole expansion :   0.257566E-01

  Integrating Hamiltonian matrix: batch-based integration.
  Time summed over all CPUs for integration: real work        0.492 s, elapsed        0.492 s

  Updating Kohn-Sham eigenvalues and eigenvectors using ELSI and the ELPA eigensolver.
  Finished Cholesky decomposition
  | Time :     0.000 s
  Finished transformation to standard eigenproblem
  | Time :     0.000 s
  Starting LAPACK eigensolver
  Finished solving standard eigenproblem
  | Time :     0.002 s
  Finished back-transformation of eigenvectors
  | Time :     0.000 s

[...]
  |   Hirshfeld dipole moment :      0.05973734
  |   Hirshfeld second moments:      0.00746862      -0.02895455      -0.01953183
  |                                 -0.02895455      -0.01222765       0.01289237
  |                                 -0.01953183       0.01289237      -0.01433851
  ----------------------------------------------------------------------
  | Atom    12: O
  |   Hirshfeld charge        :     -0.14362168
  |   Free atom volume        :     23.61338643
  |   Hirshfeld volume        :     20.50264989
  |   Hirshfeld dipole vector :      0.02869121       0.01352355       0.00944855
  |   Hirshfeld dipole moment :      0.03309603
  |   Hirshfeld second moments:      0.05665494      -0.02518198      -0.00529583
  |                                 -0.02518198       0.10541342       0.01231614
  |                                 -0.00529583       0.01231614       0.04497041
  ----------------------------------------------------------------------
  | Atom    13: H
  |   Hirshfeld charge        :      0.18799061
  |   Free atom volume        :      9.95071624
  |   Hirshfeld volume        :      6.01472077
  |   Hirshfeld dipole vector :      0.07330539      -0.10270930      -0.01529285
  |   Hirshfeld dipole moment :      0.12710921
  |   Hirshfeld second moments:      0.12045459       0.00080098      -0.00534713
  |                                  0.00080098       0.12844710       0.00202261
  |                                 -0.00534713       0.00202261       0.10592862
  ----------------------------------------------------------------------


  Total energy components:
  | Sum of eigenvalues            :        -180.55805438 Ha       -4913.23464232 eV
  | XC energy correction          :         -42.64195592 Ha       -1160.34665837 eV
  | XC potential correction       :          54.82322002 Ha        1491.81571953 eV
  | Free-atom electrostatic energy:        -146.85125034 Ha       -3996.02583728 eV
  | Hartree energy correction     :          -8.25529380 Ha        -224.63797380 eV
  | vdW energy correction         :          -0.00330617 Ha          -0.08996537 eV
  | Entropy correction            :           0.00000000 Ha           0.00000000 eV
  | ---------------------------
  | Total energy                  :        -323.48664059 Ha       -8802.51935762 eV
  | Total energy, T -> 0          :        -323.48664059 Ha       -8802.51935762 eV  <-- do not rely on this value for anything but (periodic) metals
  | Electronic free energy        :        -323.48664059 Ha       -8802.51935762 eV

  Derived energy quantities:
  | Kinetic energy                :         322.59272986 Ha        8778.19480924 eV
  | Electrostatic energy          :        -603.43410836 Ha      -16420.27754312 eV
  | Energy correction for multipole
  | error in Hartree potential    :           0.04227590 Ha           1.15038585 eV
  | Sum of eigenvalues per atom                           :        -377.94112633 eV
  | Total energy (T->0) per atom                          :        -677.11687366 eV  <-- do not rely on this value for anything but (periodic) metals
  | Electronic free energy per atom                       :        -677.11687366 eV

  atomic forces [eV/Ang]:
  -----------------------
  atom #    1
   Hellmann-Feynman              : -0.267489E-01  0.395425E+00  0.817807E+00
   Ionic forces                  :  0.000000E+00  0.000000E+00  0.000000E+00
   Multipole                     :  0.224056E+00  0.145667E+00 -0.232247E+00
   Pulay + GGA                   : -0.951080E+00 -0.325393E+00 -0.112072E+01
   Van der Waals                 :  0.266335E-02  0.693689E-02 -0.161915E-02
   ----------------------------------------------------------------
   Total forces(   1)            : -0.751110E+00  0.222637E+00 -0.536782E+00
  atom #    2
   Hellmann-Feynman              :  0.294884E+00 -0.502106E-01  0.168363E+00
   Ionic forces                  :  0.000000E+00  0.000000E+00  0.000000E+00
   Multipole                     :  0.174700E+00  0.146097E-01  0.987157E-03
   Pulay + GGA                   : -0.124455E+00  0.220375E-01  0.363799E-01
   Van der Waals                 :  0.593972E-02 -0.521964E-02 -0.489240E-02
   ----------------------------------------------------------------
   Total forces(   2)            :  0.351069E+00 -0.187831E-01  0.200837E+00
  atom #    3
   Hellmann-Feynman              : -0.697251E+01  0.879463E+01 -0.544269E+00
   Ionic forces                  :  0.000000E+00  0.000000E+00  0.000000E+00
   Multipole                     : -0.163549E+00  0.230809E+00 -0.109323E+01
   Pulay + GGA                   :  0.741009E+01 -0.866941E+01  0.214625E+01
   Van der Waals                 :  0.348453E-02 -0.882862E-02 -0.636628E-02
   ----------------------------------------------------------------
   Total forces(   3)            :  0.277513E+00  0.347196E+00  0.502384E+00
  atom #    4
   Hellmann-Feynman              : -0.341989E-01 -0.238048E+00 -0.147226E+00
   Ionic forces                  :  0.000000E+00  0.000000E+00  0.000000E+00
   Multipole                     :  0.313289E-01 -0.526732E-02 -0.104152E+00
   Pulay + GGA                   : -0.189234E+00  0.679884E-01  0.116875E+00
   Van der Waals                 : -0.381932E-02 -0.790431E-03  0.642197E-02
   ----------------------------------------------------------------
   Total forces(   4)            : -0.195923E+00 -0.176117E+00 -0.128081E+00
  atom #    5
   Hellmann-Feynman              :  0.864455E-01 -0.231801E+00 -0.242988E+00
   Ionic forces                  :  0.000000E+00  0.000000E+00  0.000000E+00
   Multipole                     : -0.418746E-01 -0.724231E-01 -0.757752E-01
   Pulay + GGA                   :  0.360140E-01  0.217445E+00  0.700774E-01
   Van der Waals                 : -0.178884E-02  0.497331E-02  0.646002E-03
   ----------------------------------------------------------------
   Total forces(   5)            :  0.787960E-01 -0.818058E-01 -0.248040E+00
  atom #    6
   Hellmann-Feynman              :  0.135056E-01 -0.454401E+00  0.572405E+00
   Ionic forces                  :  0.000000E+00  0.000000E+00  0.000000E+00
   Multipole                     : -0.880246E-01  0.620155E+00  0.235606E+00
   Pulay + GGA                   :  0.246058E+00 -0.458306E+00 -0.589479E+00
   Van der Waals                 : -0.278962E-02  0.544340E-02 -0.434488E-02
   ----------------------------------------------------------------
   Total forces(   6)            :  0.168749E+00 -0.287108E+00  0.214186E+00
  atom #    7
   Hellmann-Feynman              : -0.194394E+00 -0.553567E-01 -0.657800E-01
   Ionic forces                  :  0.000000E+00  0.000000E+00  0.000000E+00
   Multipole                     : -0.120347E+00  0.498537E-01  0.233040E-01
   Pulay + GGA                   :  0.122698E+00  0.676454E-02 -0.240586E-01
   Van der Waals                 : -0.129684E-02  0.110514E-02  0.271736E-02
   ----------------------------------------------------------------
   Total forces(   7)            : -0.193340E+00  0.236675E-02 -0.638172E-01
  atom #    8
   Hellmann-Feynman              :  0.863439E-01 -0.289888E-01  0.184283E+00
   Ionic forces                  :  0.000000E+00  0.000000E+00  0.000000E+00
   Multipole                     :  0.152265E-01  0.600955E-01  0.121755E+00
   Pulay + GGA                   : -0.409030E-01 -0.326369E-01 -0.818072E-01
   Van der Waals                 : -0.253645E-02  0.115478E-01  0.165658E-02
   ----------------------------------------------------------------
   Total forces(   8)            :  0.581309E-01  0.100176E-01  0.225887E+00
  atom #    9
   Hellmann-Feynman              :  0.958972E-01  0.216854E-01 -0.178472E+00
   Ionic forces                  :  0.000000E+00  0.000000E+00  0.000000E+00
   Multipole                     :  0.141637E-01  0.126216E+00 -0.145001E-01
   Pulay + GGA                   : -0.623754E-01 -0.931139E-01  0.330664E-01
   Van der Waals                 : -0.180185E-02  0.222708E-02  0.284810E-02
   ----------------------------------------------------------------
   Total forces(   9)            :  0.458836E-01  0.570143E-01 -0.157058E+00
  atom #   10
   Hellmann-Feynman              :  0.337098E+01  0.575674E+01  0.180455E+01
   Ionic forces                  :  0.000000E+00  0.000000E+00  0.000000E+00
   Multipole                     :  0.365617E-01 -0.478057E-01  0.233553E+00
   Pulay + GGA                   : -0.222813E+01 -0.281880E+01 -0.177258E+00
   Van der Waals                 :  0.336789E-02 -0.122682E-01 -0.175557E-03
   ----------------------------------------------------------------
   Total forces(  10)            :  0.118278E+01  0.287786E+01  0.186067E+01
  atom #   11
   Hellmann-Feynman              :  0.406485E+01 -0.215273E+01  0.139645E+02
   Ionic forces                  :  0.000000E+00  0.000000E+00  0.000000E+00
   Multipole                     :  0.120062E+00 -0.712480E+00  0.742715E+00
   Pulay + GGA                   : -0.313726E+01  0.335876E+01 -0.135868E+02
   Van der Waals                 : -0.356301E-02 -0.113724E-01  0.159860E-02
   ----------------------------------------------------------------
   Total forces(  11)            :  0.104409E+01  0.482180E+00  0.112205E+01
  atom #   12
   Hellmann-Feynman              : -0.127566E+02  0.616280E+00 -0.998679E+01
   Ionic forces                  :  0.000000E+00  0.000000E+00  0.000000E+00
   Multipole                     : -0.103143E+01 -0.108956E+01 -0.379412E+00
   Pulay + GGA                   :  0.124872E+02 -0.185796E+01  0.734666E+01
   Van der Waals                 :  0.183707E-02  0.730420E-02  0.298149E-02
   ----------------------------------------------------------------
   Total forces(  12)            : -0.129902E+01 -0.232393E+01 -0.301657E+01
  atom #   13
   Hellmann-Feynman              : -0.556984E+00 -0.134905E+01  0.491749E-01
   Ionic forces                  :  0.000000E+00  0.000000E+00  0.000000E+00
   Multipole                     :  0.481161E-01 -0.630125E-01 -0.332384E-01
   Pulay + GGA                   : -0.258166E+00  0.296079E+00  0.720307E-02
   Van der Waals                 :  0.303371E-03 -0.105847E-02 -0.147182E-02
   ----------------------------------------------------------------
   Total forces(  13)            : -0.766730E+00 -0.111704E+01  0.216677E-01

  Timings for VdW correction (Tkatchenko-Scheffler 2009 or later):
  | CPU time:        0.088 s, Wall clock time:        0.090 s.
  Removing unitary transformations (pure translations, rotations) from forces on atoms.
  Atomic forces before filtering:
  | Net force on center of mass :   0.888968E-03 -0.551405E-02 -0.266918E-02 eV/A
  | Net torque on center of mass:  -0.607575E-02  0.506154E-02 -0.198578E-02 eV
  Atomic forces after filtering:
  | Net force on center of mass :  -0.892031E-16  0.178406E-15 -0.409777E-15 eV/A
  | Net torque on center of mass:  -0.829024E-15 -0.402342E-15  0.377634E-15 eV

  Energy and forces in a compact form:
  | Total energy uncorrected      :         -0.880251935762124E+04 eV
  | Total energy corrected        :         -0.880251935762124E+04 eV  <-- do not rely on this value for anything but (periodic) metals
  | Electronic free energy        :         -0.880251935762124E+04 eV
  Total atomic forces (unitary forces cleaned) [eV/Ang]:
  |   1         -0.751167859532191E+00          0.223090136791468E+00         -0.536474456857034E+00
  |   2          0.351011249137902E+00         -0.182765995943384E-01          0.201381580445495E+00
  |   3          0.277760700933251E+00          0.347813886928448E+00          0.502588598348108E+00
  |   4         -0.195543952569227E+00         -0.175378345239166E+00         -0.127695713736154E+00
  |   5          0.791213146435770E-01         -0.811912403272308E-01         -0.248062323892851E+00
  |   6          0.168472862981828E+00         -0.286775380056722E+00          0.214554083058469E+00
  |   7         -0.193621308513710E+00          0.264489601399252E-02         -0.636817603043720E-01
  |   8          0.576312026558066E-01          0.102315401036404E-01          0.226335043774893E+00
  |   9          0.456728832846081E-01          0.574317838348653E-01         -0.156492764869004E+00
  |  10          0.118262540398071E+01          0.287820008050812E+01          0.186071936945398E+01
  |  11          0.104370387200086E+01          0.482379373175369E+00          0.112212366757465E+01
  |  12         -0.129899342220751E+01         -0.232353977653691E+01         -0.301677966759846E+01
  |  13         -0.766672946795899E+00         -0.111663035560154E+01          0.214843446022737E-01

  ------------------------------------ 
  Start decomposition of the XC Energy 
  ------------------------------------ 
  X and C from original XC functional choice 
  Hartree-Fock Energy :          0.000000000 Ha              0.000000000 eV
  X Energy            :        -41.040995482 Ha          -1116.782308333 eV
  C Energy            :         -1.600960438 Ha            -43.564350039 eV
  Total XC Energy     :        -42.641955920 Ha          -1160.346658372 eV
  ------------------------------------ 
  LDA X and C from self-consistent density 
  X Energy LDA        :        -37.260318290 Ha          -1013.904847568 eV
  C Energy LDA        :         -3.138821822 Ha            -85.411687485 eV
  ------------------------------------ 
  End decomposition of the XC Energy 
  ------------------------------------ 

------------------------------------------------------------

------------------------------------------------------------------------------
  Final output of selected total energy values:

  The following output summarizes some interesting total energy values
  at the end of a run (AFTER all relaxation, molecular dynamics, etc.).

  | Total energy of the DFT / Hartree-Fock s.c.f. calculation      :          -8802.519357621 eV
  | Final zero-broadening corrected energy (caution - metals only) :          -8802.519357621 eV
  | For reference only, the value of 1 Hartree used in FHI-aims is :             27.211384500 eV

  Before relying on these values, please be sure to understand exactly which
  total energy value is referred to by a given number. Different objects may
  all carry the same name 'total energy'. Definitions:

  Total energy of the DFT / Hartree-Fock s.c.f. calculation:
  | Note that this energy does not include ANY quantities calculated after the
  | s.c.f. cycle, in particular not ANY RPA, MP2, etc. many-body perturbation terms.

  Final zero-broadening corrected energy:
  | For metallic systems only, a broadening of the occupation numbers at the Fermi
  | level can be extrapolated back to zero broadening by an electron-gas inspired
  | formula. For all systems that are not real metals, this value can be
  | meaningless and should be avoided.

------------------------------------------------------------------------------
  Methods described in the following list of references were used in this FHI-aims run.
  If you publish the results, please make sure to cite these reference if they apply.
  FHI-aims is an academic code, and for our developers (often, Ph.D. students
  and postdocs), scientific credit in the community is essential.
  Thank you for helping us!

  For any use of FHI-aims, please cite:

    Volker Blum, Ralf Gehrke, Felix Hanke, Paula Havu, Ville Havu,
    Xinguo Ren, Karsten Reuter, and Matthias Scheffler
    'Ab initio molecular simulations with numeric atom-centered orbitals'
    Computer Physics Communications 180, 2175-2196 (2009)
    http://dx.doi.org/10.1016/j.cpc.2009.06.022


  The scalable eigensolver library ELPA was used in your run.
  ELPA is essential especially for large systems on hundreds or thousands of CPUs.
  For ELPA, please cite:

    Andreas Marek, Volker Blum, Rainer Johanni, Ville Havu, Bruno Lang,
    Thomas Auckenthaler, Alexander Heinecke, Hans-Joachim Bungartz, and Hermann Lederer,
    'The ELPA Library - Scalable Parallel Eigenvalue Solutions
    for Electronic Structure Theory and Computational Science'
    The Journal of Physics: Condensed Matter 26, 213201 (2014).
    http://dx.doi.org/10.1088/0953-8984/26/21/213201


  The ELSI infrastructure was used in your run to solve the Kohn-Sham electronic structure.
  Please check out http://elsi-interchange.org to learn more.
  If scalability is important for your project, please acknowledge ELSI by citing:

    V. W-z. Yu, F. Corsetti, A. Garcia, W. P. Huhn, M. Jacquelin, W. Jia,
    B. Lange, L. Lin, J. Lu, W. Mi, A. Seifitokaldani, A. Vazquez-Mayagoitia,
    C. Yang, H. Yang, and V. Blum
    'ELSI: A unified software interface for Kohn-Sham electronic structure solvers'
    Computer Physics Communications 222, 267-285 (2018).
    http://dx.doi.org/10.1016/j.cpc.2017.09.007


  For the real-space grid partitioning and parallelization used in this calculation, please cite:

    Ville Havu, Volker Blum, Paula Havu, and Matthias Scheffler,
    'Efficient O(N) integration for all-electron electronic structure calculation'
    'using numerically tabulated basis functions'
    Journal of Computational Physics 228, 8367-8379 (2009).
    http://dx.doi.org/10.1016/j.jcp.2009.08.008

  Of course, there are many other important community references, e.g., those cited in the
  above references. Our list is limited to references that describe implementations in the
  FHI-aims code. The reason is purely practical (length of this list) - please credit others as well.

------------------------------------------------------------
          Leaving FHI-aims.
          Date     :  20200902, Time     :  102331.103

          Computational steps:
          | Number of self-consistency cycles          :           16
          | Number of SCF (re)initializations          :            1

          Detailed time accounting                     :  max(cpu_time)    wall_clock(cpu1)
          | Total time                                 :       22.582 s          22.651 s
          | Preparation time                           :        0.146 s           0.148 s
          | Boundary condition initalization           :        0.000 s           0.000 s
          | Grid partitioning                          :        0.111 s           0.112 s
          | Preloading free-atom quantities on grid    :        0.002 s           0.003 s
          | Free-atom superposition energy             :        0.085 s           0.084 s
          | Total time for integrations                :        8.586 s           8.599 s
          | Total time for solution of K.-S. equations :        0.036 s           0.038 s
          | Total time for density & force components  :        7.059 s           7.080 s
          | Total time for mixing                      :        0.214 s           0.216 s
          | Total time for Hartree multipole update    :        0.140 s           0.143 s
          | Total time for Hartree multipole sum       :        5.801 s           5.812 s
          | Total time for total energy evaluation     :        0.003 s           0.003 s
          | Total time for vdW correction              :        0.088 s           0.090 s

          Partial memory accounting:
          | Residual value for overall tracked memory usage across tasks :           0.000 MB (should be 0.000 MB)
          | Peak values for overall tracked memory usage (after allocating hessian_basis_wave):
          |   Minimum:        1.611 MB (on task 1)
          |   Maximum:        1.611 MB (on task 1)
          |   Average:        1.611 MB
          | Largest tracked array allocation (hessian_basis_wave):
          |   Minimum:        0.787 MB (on task 1)
          |   Maximum:        0.787 MB (on task 1)
          |   Average:        0.787 MB
          Note:  These values currently only include a subset of arrays which are explicitly tracked.
          The "true" memory usage will be greater.

          Have a nice day.
------------------------------------------------------------
