  MPI-parallelism will be employed.
------------------------------------------------------------
          Invoking FHI-aims ...
          Version 171221_1
          Compiled on 2019/09/09 at 14:39:39 on host puhti-login2.bullx.

          When using FHI-aims, please cite the following reference:

          Volker Blum, Ralf Gehrke, Felix Hanke, Paula Havu,
          Ville Havu, Xinguo Ren, Karsten Reuter, and Matthias Scheffler,
          'Ab Initio Molecular Simulations with Numeric Atom-Centered Orbitals',
          Computer Physics Communications 180, 2175-2196 (2009)

          For any questions about FHI-aims, please visit the aimsclub website
          with its forums and wiki. Contributions to both the forums and the
          wiki are warmly encouraged - they are for you, and everyone is welcome there.

------------------------------------------------------------



  Date     :  20200616, Time     :  045337.058
  Time zero on CPU 1             :   0.784610000000000E-01  s.
  Internal wall clock time zero  :           361515217.058  s.

  FHI-aims created a unique identifier for this run for later identification
  aims_uuid : 6B896260-7083-45AD-AAA0-AB31E06A473A

  Using       20 parallel tasks.
  Task        0 on host r06c54.bullx reporting.
  Task        1 on host r06c54.bullx reporting.
  Task        2 on host r06c54.bullx reporting.
  Task        3 on host r06c54.bullx reporting.
  Task        4 on host r06c54.bullx reporting.
  Task        5 on host r06c54.bullx reporting.
  Task        6 on host r06c54.bullx reporting.
  Task        7 on host r06c54.bullx reporting.
  Task        8 on host r06c54.bullx reporting.
  Task        9 on host r06c54.bullx reporting.
  Task       10 on host r06c54.bullx reporting.
  Task       11 on host r06c54.bullx reporting.
  Task       12 on host r06c54.bullx reporting.
  Task       13 on host r06c54.bullx reporting.
  Task       14 on host r06c54.bullx reporting.
  Task       15 on host r06c54.bullx reporting.
  Task       16 on host r06c54.bullx reporting.
  Task       17 on host r06c54.bullx reporting.
  Task       18 on host r06c54.bullx reporting.
  Task       19 on host r06c54.bullx reporting.

  Performing system and environment tests:
  | Environment variable OMP_NUM_THREADS correctly set to 1.
  | Stacksize not measured: no C compiler
  | Checking for scalapack...
  | Testing pdtran()...
  | All pdtran() tests passed.

  Obtaining array dimensions for all initial allocations:
  
  -----------------------------------------------------------------------
  Parsing control.in (first pass over file, find array dimensions only).
  The contents of control.in will be repeated verbatim below
  unless switched off by setting 'verbatim_writeout .false.' .
  in the first line of control.in .
  -----------------------------------------------------------------------
  
  #########################################################################################
  #
  #  Volker Blum, FHI 2009 : Test run input file control.in for simple H2O
  #
  #########################################################################################
  #
  #  Physical model
  #
    xc                 pbe
    vdw_correction_hirshfeld
    spin               none
    relativistic       none
    charge             0.
  #
  #  SCF convergence
  #
    occupation_type    gaussian 0.01
    mixer              pulay
      n_max_pulay        10
      charge_mix_param   0.2
    sc_accuracy_rho    1E-5
    sc_accuracy_eev    1E-3
    sc_accuracy_etot   1E-6
    sc_accuracy_forces 1E-4
    sc_iter_limit      100
  #
  #  Relaxation
  #
  #  relax_geometry   bfgs 1.e-3
  #
  ################################################################################
  #
  #  FHI-aims code project
  #  VB, Fritz-Haber Institut, 2009
  #
  #  Suggested "light" defaults for H atom (to be pasted into control.in file)
  #  Be sure to double-check any results obtained with these settings for post-processing,
  #  e.g., with the "tight" defaults and larger basis sets.
  #
  ################################################################################
    species        H
  #     global species definitions
      nucleus             1
      mass                1.00794
  #
      l_hartree           4
  #
      cut_pot             3.5  1.5  1.0
      basis_dep_cutoff    1e-4
  #
      radial_base         24 5.0
      radial_multiplier   1
      angular_grids       specified
        division   0.2421   50
        division   0.3822  110
        division   0.4799  194
        division   0.5341  302
  #      division   0.5626  434
  #      division   0.5922  590
  #      division   0.6542  770
  #      division   0.6868 1202
  #      outer_grid  770
        outer_grid  302
  ################################################################################
  #
  #  Definition of "minimal" basis
  #
  ################################################################################
  #     valence basis states
      valence      1  s   1.
  #     ion occupancy
      ion_occ      1  s   0.5
  ################################################################################
  #
  #  Suggested additional basis functions. For production calculations,
  #  uncomment them one after another (the most important basis functions are
  #  listed first).
  #
  #  Basis constructed for dimers: 0.5 A, 0.7 A, 1.0 A, 1.5 A, 2.5 A
  #
  ################################################################################
  #  "First tier" - improvements: -1014.90 meV to -62.69 meV
       hydro 2 s 2.1
       hydro 2 p 3.5
  #  "Second tier" - improvements: -12.89 meV to -1.83 meV
  #     hydro 1 s 0.85
  #     hydro 2 p 3.7
  #     hydro 2 s 1.2
  #     hydro 3 d 7
  #  "Third tier" - improvements: -0.25 meV to -0.12 meV
  #     hydro 4 f 11.2
  #     hydro 3 p 4.8
  #     hydro 4 d 9
  #     hydro 3 s 3.2
  ################################################################################
  #
  #  FHI-aims code project
  #  VB, Fritz-Haber Institut, 2009
  #
  #  Suggested "light" defaults for C atom (to be pasted into control.in file)
  #  Be sure to double-check any results obtained with these settings for post-processing,
  #  e.g., with the "tight" defaults and larger basis sets.
  #
  ################################################################################
    species        C
  #     global species definitions
      nucleus             6
      mass                12.0107
  #
      l_hartree           4
  #
      cut_pot             3.5  1.5  1.0
      basis_dep_cutoff    1e-4
  #
      radial_base         34 5.0
      radial_multiplier   1
      angular_grids specified
        division   0.3326   50
        division   0.5710  110
        division   0.7727  194
        division   0.8772  302
  #      division   0.9334  434
  #      division   0.9625  590
  #      division   0.9924  770
  #      division   1.0230  974
  #      division   1.4589 1202
  #     outer_grid  974
       outer_grid 302
  ################################################################################
  #
  #  Definition of "minimal" basis
  #
  ################################################################################
  #     valence basis states
      valence      2  s   2.
      valence      2  p   2.
  #     ion occupancy
      ion_occ      2  s   1.
      ion_occ      2  p   1.
  ################################################################################
  #
  #  Suggested additional basis functions. For production calculations,
  #  uncomment them one after another (the most important basis functions are
  #  listed first).
  #
  #  Constructed for dimers: 1.0 A, 1.25 A, 1.5 A, 2.0 A, 3.0 A
  #
  ################################################################################
  #  "First tier" - improvements: -1214.57 meV to -155.61 meV
       hydro 2 p 1.7
       hydro 3 d 6
       hydro 2 s 4.9
  #  "Second tier" - improvements: -67.75 meV to -5.23 meV
  #     hydro 4 f 9.8
  #     hydro 3 p 5.2
  #     hydro 3 s 4.3
  #     hydro 5 g 14.4
  #     hydro 3 d 6.2
  #  "Third tier" - improvements: -2.43 meV to -0.60 meV
  #     hydro 2 p 5.6
  #     hydro 2 s 1.4
  #     hydro 3 d 4.9
  #     hydro 4 f 11.2
  #  "Fourth tier" - improvements: -0.39 meV to -0.18 meV
  #     hydro 2 p 2.1
  #     hydro 5 g 16.4
  #     hydro 4 d 13.2
  #     hydro 3 s 13.6
  #     hydro 4 f 17.6
  #  Further basis functions - improvements: -0.08 meV and below
  #     hydro 3 s 2
  #     hydro 3 p 6
  #     hydro 4 d 20
  ################################################################################
  #
  #  FHI-aims code project
  #  VB, Fritz-Haber Institut, 2009
  #
  #  Suggested "light" defaults for N atom (to be pasted into control.in file)
  #  Be sure to double-check any results obtained with these settings for post-processing,
  #  e.g., with the "tight" defaults and larger basis sets.
  #
  ################################################################################
    species        N
  #     global species definitions
      nucleus             7
      mass                14.0067
  #
      l_hartree           4
  #
      cut_pot             3.5  1.5  1.0
      basis_dep_cutoff    1e-4
  #
      radial_base         35 5.0
      radial_multiplier   1
      angular_grids       specified
        division   0.2599   50
        division   0.4601  110
        division   0.5885  194
        division   0.6503  302
  #      division   0.6939  434
  #      division   0.7396  590
  #      division   0.7632  770
  #      division   0.8122  974
  #      division   1.1604 1202
  #      outer_grid  974
        outer_grid  302
  ################################################################################
  #
  #  Definition of "minimal" basis
  #
  ################################################################################
  #     valence basis states
      valence      2  s   2.
      valence      2  p   3.
  #     ion occupancy
      ion_occ      2  s   1.
      ion_occ      2  p   2.
  ################################################################################
  #
  #  Suggested additional basis functions. For production calculations,
  #  uncomment them one after another (the most important basis functions are
  #  listed first).
  #
  #  Constructed for dimers: 1.0 A, 1.1 A, 1.5 A, 2.0 A, 3.0 A
  #
  ################################################################################
  #  "First tier" - improvements: -1193.42 meV to -220.60 meV
       hydro 2 p 1.8
       hydro 3 d 6.8
       hydro 3 s 5.8
  #  "Second tier" - improvements: -80.21 meV to -6.86 meV
  #     hydro 4 f 10.8
  #     hydro 3 p 5.8
  #     hydro 1 s 0.8
  #     hydro 5 g 16
  #     hydro 3 d 4.9
  #  "Third tier" - improvements: -4.29 meV to -0.53 meV
  #     hydro 3 s 16
  #     ionic 2 p auto
  #     hydro 3 d 6.6
  #     hydro 4 f 11.6
  #  "Fourth tier" - improvements: -0.75 meV to -0.25 meV
  #     hydro 2 p 4.5
  #     hydro 2 s 2.4
  #     hydro 5 g 14.4
  #     hydro 4 d 14.4
  #     hydro 4 f 16.8
  # Further basis functions - -0.21 meV and below
  #     hydro 3 p 14.8
  #     hydro 3 s 4.4
  #     hydro 3 d 19.6
  #     hydro 5 g 12.8
  ################################################################################
  #
  #  FHI-aims code project
  #  VB, Fritz-Haber Institut, 2009
  #
  #  Suggested "light" defaults for O atom (to be pasted into control.in file)
  #  Be sure to double-check any results obtained with these settings for post-processing,
  #  e.g., with the "tight" defaults and larger basis sets.
  #
  ################################################################################
    species        O
  #     global species definitions
      nucleus             8
      mass                15.9994
  #
      l_hartree           4
  #
      cut_pot             3.5  1.5  1.0
      basis_dep_cutoff    1e-4
  #
      radial_base         36 5.0
      radial_multiplier   1
       angular_grids specified
        division   0.2659   50
        division   0.4451  110
        division   0.6052  194
        division   0.7543  302
  #      division   0.8014  434
  #      division   0.8507  590
  #      division   0.8762  770
  #      division   0.9023  974
  #      division   1.2339 1202
  #      outer_grid 974
        outer_grid 302
  ################################################################################
  #
  #  Definition of "minimal" basis
  #
  ################################################################################
  #     valence basis states
      valence      2  s   2.
      valence      2  p   4.
  #     ion occupancy
      ion_occ      2  s   1.
      ion_occ      2  p   3.
  ################################################################################
  #
  #  Suggested additional basis functions. For production calculations,
  #  uncomment them one after another (the most important basis functions are
  #  listed first).
  #
  #  Constructed for dimers: 1.0 A, 1.208 A, 1.5 A, 2.0 A, 3.0 A
  #
  ################################################################################
  #  "First tier" - improvements: -699.05 meV to -159.38 meV
       hydro 2 p 1.8
       hydro 3 d 7.6
       hydro 3 s 6.4
  #  "Second tier" - improvements: -49.91 meV to -5.39 meV
  #     hydro 4 f 11.6
  #     hydro 3 p 6.2
  #     hydro 3 d 5.6
  #     hydro 5 g 17.6
  #     hydro 1 s 0.75
  #  "Third tier" - improvements: -2.83 meV to -0.50 meV
  #     ionic 2 p auto
  #     hydro 4 f 10.8
  #     hydro 4 d 4.7
  #     hydro 2 s 6.8
  #  "Fourth tier" - improvements: -0.40 meV to -0.12 meV
  #     hydro 3 p 5
  #     hydro 3 s 3.3
  #     hydro 5 g 15.6
  #     hydro 4 f 17.6
  #     hydro 4 d 14
  # Further basis functions - -0.08 meV and below
  #     hydro 3 s 2.1
  #     hydro 4 d 11.6
  #     hydro 3 p 16
  #     hydro 2 s 17.2
  
  -----------------------------------------------------------------------
  Completed first pass over input file control.in .
  -----------------------------------------------------------------------
  
  
  -----------------------------------------------------------------------
  Parsing geometry.in (first pass over file, find array dimensions only).
  The contents of geometry.in will be repeated verbatim below
  unless switched off by setting 'verbatim_writeout .false.' .
  in the first line of geometry.in .
  -----------------------------------------------------------------------
  
  atom  0.00000 0.00000 0.00000 C
  atom  1.09300 0.00000 0.00000 H
  atom  -0.47961 0.00000 -1.41207 N
  atom  -0.75172 -0.95067 -1.66508 H
  atom  -1.27876 0.62613 -1.48584 H
  atom  -0.49584 1.26211 0.72868 C
  atom  0.34461 1.80204 1.17102 H
  atom  -1.00758 1.92905 0.03092 H
  atom  -1.19306 0.99321 1.52564 H
  atom  -0.39425 -1.28861 0.74398 C
  atom  -0.16578 -1.53284 1.90476 O
  atom  -1.02612 -2.17534 0.04312 O
  atom  -0.40190 -2.91267 0.15114 H
  
  -----------------------------------------------------------------------
  Completed first pass over input file geometry.in .
  -----------------------------------------------------------------------
  

  Basic array size parameters:
  | Number of species                 :        4
  | Number of atoms                   :       13
  | Max. basis fn. angular momentum   :        2
  | Max. atomic/ionic basis occupied n:        2
  | Max. number of basis fn. types    :        2
  | Max. radial fns per species/type  :        3
  | Max. logarithmic grid size        :     1301
  | Max. radial integration grid size :       36
  | Max. angular integration grid size:      302
  | Max. angular grid division number :        8
  | Radial grid for Hartree potential :     1301
  | Number of spin channels           :        1

------------------------------------------------------------
          Reading file control.in.
------------------------------------------------------------
  XC: Using PBE gradient-corrected functionals.
  Spin treatment: No spin polarisation.
  Non-relativistic treatment of kinetic energy.
  Charge =   0.000000E+00: Neutral system requested explicitly.
  Occupation type: Gaussian broadening, width =   0.100000E-01 eV.
  Using pulay charge density mixing.
  Pulay mixing - number of memorized iterations:   10
  Charge density mixing - mixing parameter:     0.2000
  Convergence accuracy of self-consistent charge density:  0.1000E-04
  Convergence accuracy of sum of eigenvalues:  0.1000E-02
  Convergence accuracy of total energy:  0.1000E-05
  Convergence accuracy of forces:  0.1000E-03
  Maximum number of s.-c. iterations  :   100
 
  Reading configuration options for species H                   .
  | Found nuclear charge :   1.0000
  | Found atomic mass :    1.00794000000000      amu
  | Found l_max for Hartree potential  :   4
  | Found cutoff potl. onset [A], width [A], scale factor :    3.50000    1.50000    1.00000
  | Threshold for basis-dependent cutoff potential is   0.100000E-03
  | Found data for basic radial integration grid :    24 points, outermost radius =    5.000 A
  | Found multiplier for basic radial grid :   1
  | Found angular grid specification: user-specified.
  | Specified grid contains     5 separate shells.
  | Check grid settings after all constraints further below.
  | Found free-atom valence shell :  1 s   1.000
  | No ionic wave fns used. Skipping ion_occ.
  | Found hydrogenic basis function :  2 s   2.100
  | Found hydrogenic basis function :  2 p   3.500
  Species H                   : Missing cutoff potential type.
  Defaulting to exp(1/x)/(1-x)^2 type cutoff potential.
  Species H : No 'logarithmic' tag. Using default grid for free atom:
  | Default logarithmic grid data [bohr] : 0.1000E-03 0.1000E+03 0.1012E+01
  Species H : On-site basis accuracy parameter (for Gram-Schmidt orthonormalisation) not specified.
  Using default value basis_acc =  0.1000000E-03.
  Species H                   : Using default innermost maximum threshold i_radial=  2 for radial functions.
  Species H                   : Default cutoff onset for free atom density etc. : 0.35000000E+01 AA.
  Species H                   : Basic radial grid will be enhanced according to radial_multiplier =   1, to contain    24 grid points.
 
  Reading configuration options for species C                   .
  | Found nuclear charge :   6.0000
  | Found atomic mass :    12.0107000000000      amu
  | Found l_max for Hartree potential  :   4
  | Found cutoff potl. onset [A], width [A], scale factor :    3.50000    1.50000    1.00000
  | Threshold for basis-dependent cutoff potential is   0.100000E-03
  | Found data for basic radial integration grid :    34 points, outermost radius =    5.000 A
  | Found multiplier for basic radial grid :   1
  | Found angular grid specification: user-specified.
  | Specified grid contains     5 separate shells.
  | Check grid settings after all constraints further below.
  | Found free-atom valence shell :  2 s   2.000
  | Found free-atom valence shell :  2 p   2.000
  | No ionic wave fns used. Skipping ion_occ.
  | No ionic wave fns used. Skipping ion_occ.
  | Found hydrogenic basis function :  2 p   1.700
  | Found hydrogenic basis function :  3 d   6.000
  | Found hydrogenic basis function :  2 s   4.900
  Species C                   : Missing cutoff potential type.
  Defaulting to exp(1/x)/(1-x)^2 type cutoff potential.
  Species C : No 'logarithmic' tag. Using default grid for free atom:
  | Default logarithmic grid data [bohr] : 0.1000E-03 0.1000E+03 0.1012E+01
  Species C : On-site basis accuracy parameter (for Gram-Schmidt orthonormalisation) not specified.
  Using default value basis_acc =  0.1000000E-03.
  Species C                   : Using default innermost maximum threshold i_radial=  2 for radial functions.
  Species C                   : Default cutoff onset for free atom density etc. : 0.35000000E+01 AA.
  Species C                   : Basic radial grid will be enhanced according to radial_multiplier =   1, to contain    34 grid points.
 
  Reading configuration options for species N                   .
  | Found nuclear charge :   7.0000
  | Found atomic mass :    14.0067000000000      amu
  | Found l_max for Hartree potential  :   4
  | Found cutoff potl. onset [A], width [A], scale factor :    3.50000    1.50000    1.00000
  | Threshold for basis-dependent cutoff potential is   0.100000E-03
  | Found data for basic radial integration grid :    35 points, outermost radius =    5.000 A
  | Found multiplier for basic radial grid :   1
  | Found angular grid specification: user-specified.
  | Specified grid contains     5 separate shells.
  | Check grid settings after all constraints further below.
  | Found free-atom valence shell :  2 s   2.000
  | Found free-atom valence shell :  2 p   3.000
  | No ionic wave fns used. Skipping ion_occ.
  | No ionic wave fns used. Skipping ion_occ.
  | Found hydrogenic basis function :  2 p   1.800
  | Found hydrogenic basis function :  3 d   6.800
  | Found hydrogenic basis function :  3 s   5.800
  Species N                   : Missing cutoff potential type.
  Defaulting to exp(1/x)/(1-x)^2 type cutoff potential.
  Species N : No 'logarithmic' tag. Using default grid for free atom:
  | Default logarithmic grid data [bohr] : 0.1000E-03 0.1000E+03 0.1012E+01
  Species N : On-site basis accuracy parameter (for Gram-Schmidt orthonormalisation) not specified.
  Using default value basis_acc =  0.1000000E-03.
  Species N                   : Using default innermost maximum threshold i_radial=  2 for radial functions.
  Species N                   : Default cutoff onset for free atom density etc. : 0.35000000E+01 AA.
  Species N                   : Basic radial grid will be enhanced according to radial_multiplier =   1, to contain    35 grid points.
 
  Reading configuration options for species O                   .
  | Found nuclear charge :   8.0000
  | Found atomic mass :    15.9994000000000      amu
  | Found l_max for Hartree potential  :   4
  | Found cutoff potl. onset [A], width [A], scale factor :    3.50000    1.50000    1.00000
  | Threshold for basis-dependent cutoff potential is   0.100000E-03
  | Found data for basic radial integration grid :    36 points, outermost radius =    5.000 A
  | Found multiplier for basic radial grid :   1
  | Found angular grid specification: user-specified.
  | Specified grid contains     5 separate shells.
  | Check grid settings after all constraints further below.
  | Found free-atom valence shell :  2 s   2.000
  | Found free-atom valence shell :  2 p   4.000
  | No ionic wave fns used. Skipping ion_occ.
  | No ionic wave fns used. Skipping ion_occ.
  | Found hydrogenic basis function :  2 p   1.800
  | Found hydrogenic basis function :  3 d   7.600
  | Found hydrogenic basis function :  3 s   6.400
  Species O                   : Missing cutoff potential type.
  Defaulting to exp(1/x)/(1-x)^2 type cutoff potential.
  Species O : No 'logarithmic' tag. Using default grid for free atom:
  | Default logarithmic grid data [bohr] : 0.1000E-03 0.1000E+03 0.1012E+01
  Species O : On-site basis accuracy parameter (for Gram-Schmidt orthonormalisation) not specified.
  Using default value basis_acc =  0.1000000E-03.
  Species O                   : Using default innermost maximum threshold i_radial=  2 for radial functions.
  Species O                   : Default cutoff onset for free atom density etc. : 0.35000000E+01 AA.
  Species O                   : Basic radial grid will be enhanced according to radial_multiplier =   1, to contain    36 grid points.
 
  Finished reading input file 'control.in'. Consistency checks are next.
 
  MPI_IN_PLACE appears to work with this MPI implementation.
  | Keeping use_mpi_in_place .true. (see manual).
  Target number of points in a grid batch is not set. Defaulting to  100
  Method for grid partitioning is not set. Defaulting to parallel hash+maxmin partitioning.
  Batch size limit is not set. Defaulting to    200
  By default, will store active basis functions for each batch.
  If in need of memory, prune_basis_once .false. can be used to disable this option.
  communication_type for Hartree potential was not specified.
  Defaulting to calc_hartree .
  Pulay mixer: Number of initial linear mixing iterations not set.
  Defaulting to    0 iterations.
  Work space size for distributed Hartree potential not set.
  Defaulting to   0.200000E+03 MB.
  Algorithm-dependent basis array size parameters:
  | n_max_pulay                         :       10
  Presetting      1001 iterations before the initial mixing cycle
  is restarted anyway using the sc_init_iter criterion / keyword.
  Presetting a factor      1.000 between actual scf density residual
  and density convergence criterion sc_accuracy_rho below which sc_init_iter
  takes no effect.
  Geometry relaxation not requested: no relaxation will be performed.
  Handling of forces: Unphysical translation and rotation will be removed from forces.
  No accuracy limit for integral partition fn. given. Defaulting to  0.1000E-14.
  No threshold value for u(r) in integrations given. Defaulting to  0.1000E-05.
  No accuracy for occupation numbers given. Defaulting to  0.1000E-12.
  No threshold value for occupation numbers given. Defaulting to  0.0000E+00.
  No accuracy for fermi level given. Defaulting to  0.1000E-19.
  Maximum # of iterations to find E_F not set. Defaulting to  200.
  Preferred method for the eigenvalue solver ('KS_method') not specified in 'control.in'.
  Calling BLACS routine to test compilation state
  Since ScaLAPACK support is enabled, defaulting to 'elsi'.
  Will not use alltoall communication since running on < 1024 CPUs.
  Threshold for basis singularities not set.
  Default threshold for basis singularities:  0.1000E-04
  partition_type (choice of integration weights) for integrals was not specified.
  | Using a version of the partition function of Stratmann and coworkers ('stratmann_smoother').
  | At each grid point, the set of atoms used to build the partition table is smoothly restricted to
  | only those atoms whose free-atom density would be non-zero at that grid point.
  Partitioning for Hartree potential was not defined. Using partition_type for integrals.
  | Adjusted default value of keyword multip_moments_threshold to:       0.10000000E-11
  | This value may affect high angular momentum components of the Hartree potential in periodic systems.
  No q(lm)/r^(l+1) cutoff set for long-range Hartree potential.
  | Using default value of  0.100000E-09 .
  | Verify using the multipole_threshold keyword.
  Defaulting to new monopole extrapolation.
  Density update method: automatic selection selected.
------------------------------------------------------------


------------------------------------------------------------
          Reading geometry description geometry.in.
------------------------------------------------------------
  Input structure read successfully.
  The structure contains       13 atoms,  and a total of         48.000 electrons.

  Input geometry:
  | No unit cell requested.
  | Atomic structure:
  |       Atom                x [A]            y [A]            z [A]
  |    1: Species C             0.00000000        0.00000000        0.00000000
  |    2: Species H             1.09300000        0.00000000        0.00000000
  |    3: Species N            -0.47961000        0.00000000       -1.41207000
  |    4: Species H            -0.75172000       -0.95067000       -1.66508000
  |    5: Species H            -1.27876000        0.62613000       -1.48584000
  |    6: Species C            -0.49584000        1.26211000        0.72868000
  |    7: Species H             0.34461000        1.80204000        1.17102000
  |    8: Species H            -1.00758000        1.92905000        0.03092000
  |    9: Species H            -1.19306000        0.99321000        1.52564000
  |   10: Species C            -0.39425000       -1.28861000        0.74398000
  |   11: Species O            -0.16578000       -1.53284000        1.90476000
  |   12: Species O            -1.02612000       -2.17534000        0.04312000
  |   13: Species H            -0.40190000       -2.91267000        0.15114000
  |

  | The smallest distance between any two atoms is         0.97209797 AA.
  |
  | The first atom of this pair is atom number                     12 .
  | The second atom of this pair is atom number                    13 .

  Number of empty states per atom not set in control.in - providing a guess from actual geometry.
  | Total number of empty states used during s.c.f. cycle:       29
  If you use a very high smearing, use empty_states (per atom!) in control.in to increase this value.

  Structure-dependent array size parameters: 
  | Maximum number of distinct radial functions  :       21
  | Maximum number of basis functions            :      119
  | Number of Kohn-Sham states (occupied + empty):       53
------------------------------------------------------------

------------------------------------------------------------
          Preparing all fixed parts of the calculation.
------------------------------------------------------------
  Determining machine precision:
    2.225073858507201E-308
  Setting up grids for atomic and cluster calculations.

  Creating wave function, potential, and density for free atoms.

  Species: H

  List of occupied orbitals and eigenvalues:
    n    l              occ      energy [Ha]    energy [eV]
    1    0           1.0000        -0.237589        -6.4651


  Species: C

  List of occupied orbitals and eigenvalues:
    n    l              occ      energy [Ha]    energy [eV]
    1    0           2.0000       -10.038835      -273.1706
    2    0           2.0000        -0.502696       -13.6791
    2    1           2.0000        -0.191971        -5.2238


  Species: N

  List of occupied orbitals and eigenvalues:
    n    l              occ      energy [Ha]    energy [eV]
    1    0           2.0000       -14.128000      -384.4424
    2    0           2.0000        -0.681077       -18.5330
    2    1           3.0000        -0.259788        -7.0692


  Species: O

  List of occupied orbitals and eigenvalues:
    n    l              occ      energy [Ha]    energy [eV]
    1    0           2.0000       -18.898188      -514.2459
    2    0           2.0000        -0.878505       -23.9053
    2    1           4.0000        -0.331779        -9.0282

  Creating fixed part of basis set: Ionic, confined, hydrogenic.
 
  H                    hydrogenic:
 
  List of hydrogenic basis orbitals: 
    n    l      effective z      eigenvalue [eV]  inner max. [A]     outer max. [A]     outer radius [A]   
    2    0         2.100000       -14.9728           0.193243           1.317208           4.583499
    2    1         3.500000       -41.6669           0.602369           0.602369           3.723403
 
 
  C                    hydrogenic:
 
  List of hydrogenic basis orbitals: 
    n    l      effective z      eigenvalue [eV]  inner max. [A]     outer max. [A]     outer radius [A]   
    2    1         1.700000        -9.7616           1.230570           1.230570           4.607917
    3    2         6.000000       -54.4224           0.792453           0.792453           3.883070
    2    0         4.900000       -81.6679           0.082559           0.562749           3.078220
 
 
  N                    hydrogenic:
 
  List of hydrogenic basis orbitals: 
    n    l      effective z      eigenvalue [eV]  inner max. [A]     outer max. [A]     outer radius [A]   
    2    1         1.800000       -10.9749           1.177451           1.177451           4.573712
    3    2         6.800000       -69.9026           0.704619           0.704619           3.538137
    3    0         5.800000       -50.8545           0.067388           1.191934           4.250239
 
 
  O                    hydrogenic:
 
  List of hydrogenic basis orbitals: 
    n    l      effective z      eigenvalue [eV]  inner max. [A]     outer max. [A]     outer radius [A]   
    2    1         1.800000       -10.9749           1.164242           1.164242           4.578029
    3    2         7.600000       -87.3180           0.624125           0.624125           3.251020
    3    0         6.400000       -61.9207           0.061167           1.081902           4.001998
 

  Adding cutoff potential to free-atom effective potential.
  Creating atomic-like basis functions for current effective potential.

  Species H                   :

  List of atomic basis orbitals and eigenvalues:
    n    l      energy [Ha]    energy [eV]    outer radius [A]
    1    0        -0.237589        -6.4651       4.527807


  Species C                   :

  List of atomic basis orbitals and eigenvalues:
    n    l      energy [Ha]    energy [eV]    outer radius [A]
    1    0       -10.038835      -273.1706       1.934409
    2    0        -0.502696       -13.6791       4.496620
    2    1        -0.191971        -5.2238       4.551928


  Species N                   :

  List of atomic basis orbitals and eigenvalues:
    n    l      energy [Ha]    energy [eV]    outer radius [A]
    1    0       -14.128000      -384.4424       1.637919
    2    0        -0.681077       -18.5330       4.463241
    2    1        -0.259788        -7.0692       4.518138


  Species O                   :

  List of atomic basis orbitals and eigenvalues:
    n    l      energy [Ha]    energy [eV]    outer radius [A]
    1    0       -18.898188      -514.2459       1.415765
    2    0        -0.878505       -23.9053       4.413171
    2    1        -0.331779        -9.0282       4.522403

  Assembling full basis from fixed parts.
  | Species H :   atomic orbital   1 s accepted.
  | Species H :    hydro orbital   2 s accepted.
  | Species H :    hydro orbital   2 p accepted.
  | Species C :   atomic orbital   1 s accepted.
  | Species C :    hydro orbital   2 s accepted.
  | Species C :   atomic orbital   2 s accepted.
  | Species C :   atomic orbital   2 p accepted.
  | Species C :    hydro orbital   2 p accepted.
  | Species C :    hydro orbital   3 d accepted.
  | Species N :   atomic orbital   1 s accepted.
  | Species N :    hydro orbital   3 s accepted.
  | Species N :   atomic orbital   2 s accepted.
  | Species N :   atomic orbital   2 p accepted.
  | Species N :    hydro orbital   2 p accepted.
  | Species N :    hydro orbital   3 d accepted.
  | Species O :   atomic orbital   1 s accepted.
  | Species O :    hydro orbital   3 s accepted.
  | Species O :   atomic orbital   2 s accepted.
  | Species O :   atomic orbital   2 p accepted.
  | Species O :    hydro orbital   2 p accepted.
  | Species O :    hydro orbital   3 d accepted.
 
  Basis size parameters after reduction:
  | Total number of radial functions:       21
  | Total number of basis functions :      119
 
  Per-task memory consumption for arrays in subroutine allocate_ext:
  |           5.250512MB.
  Testing on-site integration grid accuracy.
  |  Species  Function  <phi|h_atom|phi> (log., in eV)  <phi|h_atom|phi> (rad., in eV)
           1        1                 -6.4663192853                 -6.4651273558
           1        2                 13.7111246313                 13.7170609718
           1        3                 25.2673269279                 25.2674696378
           2        4               -273.1705927641               -273.1705631568
           2        5                -10.7109323383                -10.7107120029
           2        6                 17.4381822266                 17.4352413244
           2        7                 -5.2255326521                 -5.2270484734
           2        8                  8.6835629259                  8.6603288385
           2        9                 27.4952418996                 27.4953360207
           3       10               -384.4424306495               -384.4423701208
           3       11                 12.5842251816                 12.5842222903
           3       12                -15.7264628251                -15.7264433455
           3       13                 -7.0696854293                 -7.0701769954
           3       14                  8.8090390882                  8.7901077751
           3       15                 35.9586762123                 35.9588528632
           4       16               -514.2458688638               -514.2457643834
           4       17                 15.1795651126                 15.1795290741
           4       18                -21.5359799773                -21.5360846186
           4       19                 -9.0283069236                 -9.0284644067
           4       20                  8.3027758564                  8.2834874195
           4       21                 45.8339351984                 45.8338762259

  Preparing densities etc. for the partition functions (integrals / Hartree potential).

  Preparations completed.
  max(cpu_time)          :      0.165 s.
  Wall clock time (cpu1) :      0.165 s.
------------------------------------------------------------

------------------------------------------------------------
          Begin self-consistency loop: Initialization.

          Date     :  20200616, Time     :  045339.276
------------------------------------------------------------

  Initializing index lists of integration centers etc. from given atomic structure:
  | Number of centers in hartree potential         :        13
  | Number of centers in hartree multipole         :        13
  | Number of centers in electron density summation:        13
  | Number of centers in basis integrals           :        13
  | Number of centers in integrals                 :        13
  | Number of centers in hamiltonian               :        13
  * Using 20 tasks for Scalapack Eigenvalue solver.
  Detailed listing of tasks and assigned k-points:
  (for non-periodic systems, the "k-point" denotes an internal label only)
   Task     0 k-point     1 on r06c54.bullx
   Task     1 k-point     1 on r06c54.bullx
   Task     2 k-point     1 on r06c54.bullx
   Task     3 k-point     1 on r06c54.bullx
   Task     4 k-point     1 on r06c54.bullx
   Task     5 k-point     1 on r06c54.bullx
   Task     6 k-point     1 on r06c54.bullx
   Task     7 k-point     1 on r06c54.bullx
   Task     8 k-point     1 on r06c54.bullx
   Task     9 k-point     1 on r06c54.bullx
   Task    10 k-point     1 on r06c54.bullx
   Task    11 k-point     1 on r06c54.bullx
   Task    12 k-point     1 on r06c54.bullx
   Task    13 k-point     1 on r06c54.bullx
   Task    14 k-point     1 on r06c54.bullx
   Task    15 k-point     1 on r06c54.bullx
   Task    16 k-point     1 on r06c54.bullx
   Task    17 k-point     1 on r06c54.bullx
   Task    18 k-point     1 on r06c54.bullx
   Task    19 k-point     1 on r06c54.bullx
  Tasks:    20 split into      5 X      4 BLACS grid
  Calculating block size based on n_basis =          119  max_nprow =            5  max_npcol =            4
  ScaLAPACK block size set to:           16
  Allocating        0.008 MB for ovlp
  Allocating        0.008 MB for ham
  Allocating        0.008 MB for eigenvec
  Required Scalapack workspace - INTEGER:            1  REAL:             1
  Partitioning the integration grid into batches with parallel hashing+maxmin method.
  | Number of batches:      869
  | Maximal batch size:     198
  | Minimal batch size:      49
  | Average batch size:      80.145
  | Standard deviation of batch sizes:      22.978

  Integration load balanced across    20 MPI tasks.
  Work distribution over tasks is as follows:
  Task     0 has       3579 integration points.
  Task     1 has       3521 integration points.
  Task     2 has       3425 integration points.
  Task     3 has       3429 integration points.
  Task     4 has       3454 integration points.
  Task     5 has       3460 integration points.
  Task     6 has       3424 integration points.
  Task     7 has       3463 integration points.
  Task     8 has       3460 integration points.
  Task     9 has       3443 integration points.
  Task    10 has       3501 integration points.
  Task    11 has       3442 integration points.
  Task    12 has       3456 integration points.
  Task    13 has       3496 integration points.
  Task    14 has       3506 integration points.
  Task    15 has       3437 integration points.
  Task    16 has       3570 integration points.
  Task    17 has       3527 integration points.
  Task    18 has       3500 integration points.
  Task    19 has       3553 integration points.
  Initializing partition tables, free-atom densities, potentials, etc. across the integration grid (initialize_grid_storage).
  | initialize_grid_storage: Actual outermost partition radius vs. multipole_radius_free
  | (-- VB: in principle, multipole_radius_free should be larger, hence this output)
  | Species        1: Confinement radius =              4.999999999999999 AA, multipole_radius_free =              5.054417573612229 AA.
  | Species        1: outer_partition_radius set to              5.054417573612229 AA .
  | Species        2: Confinement radius =              4.999999999999999 AA, multipole_radius_free =              5.019602836301480 AA.
  | Species        2: outer_partition_radius set to              5.019602836301480 AA .
  | Species        3: Confinement radius =              4.999999999999999 AA, multipole_radius_free =              5.043624274424571 AA.
  | Species        3: outer_partition_radius set to              5.043624274424571 AA .
  | Species        4: Confinement radius =              4.999999999999999 AA, multipole_radius_free =              5.048384829883283 AA.
  | Species        4: outer_partition_radius set to              5.048384829883283 AA .
  | Original list of interatomic distances with          13 x         13 entries is created.
  | Net number of integration points:    69646
  | of which are non-zero points    :    59689
  Renormalizing the initial density to the exact electron count on the 3D integration grid.
  | Initial density: Formal number of electrons (from input files) :      48.0000000000
  | Integrated number of electrons on 3D grid     :      47.9999901283
  | Charge integration error                      :      -0.0000098717
  | Normalization factor for density and gradient :       1.0000002057
  Obtaining max. number of non-zero basis functions in each batch (get_n_compute_maxes).
  | Maximal number of non-zero basis functions:      117 in task     0
  | Maximal number of non-zero basis functions:      119 in task     1
  | Maximal number of non-zero basis functions:      118 in task     2
  | Maximal number of non-zero basis functions:      117 in task     3
  | Maximal number of non-zero basis functions:      118 in task     4
  | Maximal number of non-zero basis functions:      117 in task     5
  | Maximal number of non-zero basis functions:      117 in task     6
  | Maximal number of non-zero basis functions:      117 in task     7
  | Maximal number of non-zero basis functions:      118 in task     8
  | Maximal number of non-zero basis functions:      117 in task     9
  | Maximal number of non-zero basis functions:      118 in task    10
  | Maximal number of non-zero basis functions:      119 in task    11
  | Maximal number of non-zero basis functions:      118 in task    12
  | Maximal number of non-zero basis functions:      118 in task    13
  | Maximal number of non-zero basis functions:      118 in task    14
  | Maximal number of non-zero basis functions:      118 in task    15
  | Maximal number of non-zero basis functions:      119 in task    16
  | Maximal number of non-zero basis functions:      118 in task    17
  | Maximal number of non-zero basis functions:      118 in task    18
  | Maximal number of non-zero basis functions:      119 in task    19
  Selecting the method for density update.
  Loop over occupied states selected for charge density update.
  Allocating        0.050 MB for KS_eigenvector
  Integrating Hamiltonian matrix: batch-based integration.
  Time summed over all CPUs for integration: real work        0.517 s, elapsed        0.556 s
  Integrating overlap matrix.
  Time summed over all CPUs for integration: real work        0.217 s, elapsed        0.233 s
  Deallocating overlap matrix.

  Updating Kohn-Sham eigenvalues and eigenvectors using ELSI and the ELPA eigensolver.
  ELPA settings:
  | ELPA solver          1
  | Time full => band           :     0.001 s
  | Time band => tridiagonal    :     0.002 s
  | Time solve tridiagonal      :     0.002 s
  Overlap matrix is nonsingular
  | Lowest eigenvalue of overlap  :  0.45E-02
  | Highest eigenvalue of overlap :  0.62E+01
  Finished singularity check of overlap matrix
  | Time :     0.006 s
  Finished Cholesky decomposition
  | Time :     0.002 s
  Finished transformation to standard eigenproblem
  | Time :     0.001 s
  Starting ELPA eigensolver
  | Time full => tridiagonal    :     0.002 s
  | Time solve tridiagonal      :     0.000 s
  | Time ev tridiagonal => full :     0.001 s
  Finished solving standard eigenproblem
  | Time :     0.003 s
  Finished back-transformation of eigenvectors
  | Time :     0.000 s

  Obtaining occupation numbers and chemical potential using ELSI.
  | Chemical potential (Fermi level):    -9.61444358eV
  Writing Kohn-Sham eigenvalues.

  State    Occupation    Eigenvalue [Ha]    Eigenvalue [eV]
      1       2.00000         -19.008381         -517.24437
      2       2.00000         -18.977659         -516.40837
      3       2.00000         -14.245889         -387.65036
      4       2.00000         -10.166855         -276.65419
      5       2.00000         -10.141258         -275.95768
      6       2.00000         -10.132217         -275.71166
      7       2.00000          -1.186236          -32.27912
      8       2.00000          -1.095625          -29.81348
      9       2.00000          -0.992239          -27.00020
     10       2.00000          -0.859699          -23.39359
     11       2.00000          -0.759520          -20.66759
     12       2.00000          -0.683872          -18.60911
     13       2.00000          -0.626532          -17.04880
     14       2.00000          -0.602158          -16.38554
     15       2.00000          -0.593706          -16.15557
     16       2.00000          -0.568648          -15.47371
     17       2.00000          -0.552548          -15.03561
     18       2.00000          -0.532366          -14.48642
     19       2.00000          -0.514507          -14.00046
     20       2.00000          -0.495338          -13.47882
     21       2.00000          -0.464140          -12.62989
     22       2.00000          -0.434103          -11.81255
     23       2.00000          -0.413214          -11.24413
     24       2.00000          -0.377501          -10.27233
     25       0.00000          -0.159522           -4.34082
     26       0.00000          -0.060366           -1.64265
     27       0.00000          -0.043897           -1.19449
     28       0.00000          -0.027953           -0.76063
     29       0.00000          -0.016073           -0.43737
     30       0.00000          -0.004348           -0.11831
     31       0.00000           0.015227            0.41434
     32       0.00000           0.038124            1.03741
     33       0.00000           0.079058            2.15129
     34       0.00000           0.094532            2.57235
     35       0.00000           0.108964            2.96506
     36       0.00000           0.127997            3.48298
     37       0.00000           0.152277            4.14367
     38       0.00000           0.205607            5.59486
     39       0.00000           0.205981            5.60504
     40       0.00000           0.230859            6.28201
     41       0.00000           0.261938            7.12769
     42       0.00000           0.271756            7.39487
     43       0.00000           0.297809            8.10380
     44       0.00000           0.314092            8.54687
     45       0.00000           0.330271            8.98714
     46       0.00000           0.358029            9.74245
     47       0.00000           0.367046            9.98782
     48       0.00000           0.384804           10.47106
     49       0.00000           0.436055           11.86567
     50       0.00000           0.461552           12.55946
     51       0.00000           0.473030           12.87180
     52       0.00000           0.525959           14.31206
     53       0.00000           0.564138           15.35096

  Highest occupied state (VBM) at    -10.27233010 eV
  | Occupation number:      2.00000000

  Lowest unoccupied state (CBM) at    -4.34082490 eV
  | Occupation number:      0.00000000

  Overall HOMO-LUMO gap:      5.93150520 eV.
  Calculating total energy contributions from superposition of free atom densities.

  Total energy components:
  | Sum of eigenvalues            :        -188.84842438 Ha       -5138.82708790 eV
  | XC energy correction          :         -41.79521396 Ha       -1137.30563732 eV
  | XC potential correction       :          53.72900353 Ha        1462.04057393 eV
  | Free-atom electrostatic energy:        -146.84031627 Ha       -3995.72830604 eV
  | Hartree energy correction     :           0.00000000 Ha           0.00000000 eV
  | vdW energy correction         :           0.00000000 Ha           0.00000000 eV
  | Entropy correction            :           0.00000000 Ha           0.00000000 eV
  | ---------------------------
  | Total energy                  :        -323.75495107 Ha       -8809.82045734 eV
  | Total energy, T -> 0          :        -323.75495107 Ha       -8809.82045734 eV  <-- do not rely on this value for anything but (periodic) metals
  | Electronic free energy        :        -323.75495107 Ha       -8809.82045734 eV

  Derived energy quantities:
  | Kinetic energy                :         320.51455736 Ha        8721.64485823 eV
  | Electrostatic energy          :        -602.47429447 Ha      -16394.15967824 eV
  | Energy correction for multipole
  | error in Hartree potential    :           0.00000000 Ha           0.00000000 eV
  | Sum of eigenvalues per atom                           :        -395.29439138 eV
  | Total energy (T->0) per atom                          :        -677.67849672 eV  <-- do not rely on this value for anything but (periodic) metals
  | Electronic free energy per atom                       :        -677.67849672 eV
  Initialize hartree_potential_storage
  Max. number of atoms included in rho_multipole:           13

  End scf initialization - timings             :  max(cpu_time)    wall_clock(cpu1)
  | Time for scf. initialization               :        0.111 s           0.166 s
  | Boundary condition initialization          :        0.000 s           0.000 s
  | Integration                                :        0.041 s           0.071 s
  | Solution of K.-S. eqns.                    :        0.012 s           0.013 s
  | Grid partitioning                          :        0.035 s           0.035 s
  | Preloading free-atom quantities on grid    :        0.003 s           0.005 s
  | Free-atom superposition energy             :        0.005 s           0.004 s
  | Total energy evaluation                    :        0.000 s           0.001 s

  Partial memory accounting:
  | Current value for overall tracked memory usage on task 0  :           0.133 MB
  | Peak value for overall tracked memory usage on task 0     :           0.858 MB after allocating wave
  | Largest tracked array allocation on task 0 so far         :           0.185 MB  when allocating H_times_psi
  Note:  These values currently only include a subset of arrays which are explicitly tracked.
  The "true" memory usage will be greater.
------------------------------------------------------------

------------------------------------------------------------
          Begin self-consistency iteration #    1

  Date     :  20200616, Time     :  045339.442
------------------------------------------------------------
  Evaluating new KS density.
  Integration grid: deviation in total charge (<rho> - N_e) =   1.421085E-14
  Pulay mixing of updated and previous charge densities.

  Evaluating partitioned Hartree potential by multipole expansion.
  | Analytical far-field extrapolation by fixed multipoles:
  | Hartree multipole sum: apparent total charge =  -0.112632E-03
  Summing up the Hartree potential.
  Time summed over all CPUs for potential: real work        0.423 s, elapsed        0.441 s
  | RMS charge density error from multipole expansion :   0.597667E-02

  Integrating Hamiltonian matrix: batch-based integration.
  Time summed over all CPUs for integration: real work        0.506 s, elapsed        0.548 s

  Updating Kohn-Sham eigenvalues and eigenvectors using ELSI and the ELPA eigensolver.
  ELPA settings:
  | ELPA solver          1
  Finished transformation to standard eigenproblem
  | Time :     0.000 s
  Starting ELPA eigensolver
  | Time full => tridiagonal    :     0.002 s
  | Time solve tridiagonal      :     0.000 s
  | Time ev tridiagonal => full :     0.000 s
  Finished solving standard eigenproblem
  | Time :     0.003 s
  Finished back-transformation of eigenvectors
  | Time :     0.000 s

  Obtaining occupation numbers and chemical potential using ELSI.
  | Chemical potential (Fermi level):    -4.39967447eV
  Writing Kohn-Sham eigenvalues.

  State    Occupation    Eigenvalue [Ha]    Eigenvalue [eV]
      1       2.00000         -18.905120         -514.43448
      2       2.00000         -18.840642         -512.67997
      3       2.00000         -14.093378         -383.50032
      4       2.00000         -10.118636         -275.34209
      5       2.00000         -10.061651         -273.79144
      6       2.00000         -10.031721         -272.97703
      7       2.00000          -1.139334          -31.00285
      8       2.00000          -1.035031          -28.16462
      9       2.00000          -0.920878          -25.05836
     10       2.00000          -0.792859          -21.57480
     11       2.00000          -0.708942          -19.29129
     12       2.00000          -0.640108          -17.41822
     13       2.00000          -0.567374          -15.43904
     14       2.00000          -0.542119          -14.75182
     15       2.00000          -0.540579          -14.70990
     16       2.00000          -0.510365          -13.88773
     17       2.00000          -0.493097          -13.41786
     18       2.00000          -0.473150          -12.87506
     19       2.00000          -0.447421          -12.17493
     20       2.00000          -0.437324          -11.90020
     21       2.00000          -0.406963          -11.07402
     22       2.00000          -0.376478          -10.24449
     23       2.00000          -0.343001           -9.33353
     24       2.00000          -0.304930           -8.29758
     25       0.00000          -0.126236           -3.43506
     26       0.00000          -0.037158           -1.01113
     27       0.00000          -0.007485           -0.20368
     28       0.00000           0.008308            0.22608
     29       0.00000           0.014242            0.38754
     30       0.00000           0.027259            0.74175
     31       0.00000           0.058111            1.58128
     32       0.00000           0.073181            1.99137
     33       0.00000           0.118720            3.23053
     34       0.00000           0.136958            3.72682
     35       0.00000           0.146705            3.99204
     36       0.00000           0.160403            4.36478
     37       0.00000           0.178679            4.86211
     38       0.00000           0.233385            6.35072
     39       0.00000           0.235640            6.41210
     40       0.00000           0.266524            7.25249
     41       0.00000           0.298804            8.13088
     42       0.00000           0.307581            8.36972
     43       0.00000           0.332550            9.04915
     44       0.00000           0.348579            9.48532
     45       0.00000           0.371725           10.11516
     46       0.00000           0.389866           10.60880
     47       0.00000           0.404380           11.00375
     48       0.00000           0.426125           11.59544
     49       0.00000           0.475086           12.92774
     50       0.00000           0.500022           13.60630
     51       0.00000           0.506008           13.76919
     52       0.00000           0.559195           15.21646
     53       0.00000           0.600243           16.33345

  Highest occupied state (VBM) at     -8.29757853 eV
  | Occupation number:      2.00000000

  Lowest unoccupied state (CBM) at    -3.43505698 eV
  | Occupation number:      0.00000000

  Overall HOMO-LUMO gap:      4.86252156 eV.

  Total energy components:
  | Sum of eigenvalues            :        -185.46219970 Ha       -5046.68322625 eV
  | XC energy correction          :         -42.12389743 Ha       -1146.24956969 eV
  | XC potential correction       :          54.15647477 Ha        1473.67265806 eV
  | Free-atom electrostatic energy:        -146.84031627 Ha       -3995.72830604 eV
  | Hartree energy correction     :          -3.30232297 Ha         -89.86077995 eV
  | vdW energy correction         :           0.00000000 Ha           0.00000000 eV
  | Entropy correction            :           0.00000000 Ha           0.00000000 eV
  | ---------------------------
  | Total energy                  :        -323.57226160 Ha       -8804.84922387 eV
  | Total energy, T -> 0          :        -323.57226160 Ha       -8804.84922387 eV  <-- do not rely on this value for anything but (periodic) metals
  | Electronic free energy        :        -323.57226160 Ha       -8804.84922387 eV

  Derived energy quantities:
  | Kinetic energy                :         322.31009214 Ha        8770.50384532 eV
  | Electrostatic energy          :        -603.75845630 Ha      -16429.10349950 eV
  | Energy correction for multipole
  | error in Hartree potential    :           0.01271254 Ha           0.34592589 eV
  | Sum of eigenvalues per atom                           :        -388.20640202 eV
  | Total energy (T->0) per atom                          :        -677.29609414 eV  <-- do not rely on this value for anything but (periodic) metals
  | Electronic free energy per atom                       :        -677.29609414 eV

  Self-consistency convergence accuracy:
  | Change of charge density      :  0.5867E+00
  | Change of sum of eigenvalues  :  0.9214E+02 eV
  | Change of total energy        :  0.4971E+01 eV

  End self-consistency iteration #     1       :  max(cpu_time)    wall_clock(cpu1)
  | Time for this iteration                    :        0.079 s           0.079 s
  | Charge density update                      :        0.022 s           0.022 s
  | Density mixing                             :        0.000 s           0.001 s
  | Hartree multipole update                   :        0.001 s           0.001 s
  | Hartree multipole summation                :        0.023 s           0.023 s
  | Integration                                :        0.028 s           0.027 s
  | Solution of K.-S. eqns.                    :        0.004 s           0.005 s
  | Total energy evaluation                    :        0.000 s           0.000 s

  Partial memory accounting:
  | Current value for overall tracked memory usage on task 0  :           0.133 MB
  | Peak value for overall tracked memory usage on task 0     :           0.874 MB after allocating gradient_basis_wave
  | Largest tracked array allocation on task 0 so far         :           0.556 MB  when allocating gradient_basis_wave
  Note:  These values currently only include a subset of arrays which are explicitly tracked.
  The "true" memory usage will be greater.
------------------------------------------------------------

------------------------------------------------------------
          Begin self-consistency iteration #    2

  Date     :  20200616, Time     :  045339.525
------------------------------------------------------------
  Evaluating new KS density.
  Integration grid: deviation in total charge (<rho> - N_e) =   2.131628E-14
  Pulay mixing of updated and previous charge densities.

  Evaluating partitioned Hartree potential by multipole expansion.
  | Analytical far-field extrapolation by fixed multipoles:
  | Hartree multipole sum: apparent total charge =  -0.242072E-03
  Summing up the Hartree potential.
  Time summed over all CPUs for potential: real work        0.420 s, elapsed        0.439 s
  | RMS charge density error from multipole expansion :   0.142140E-01

  Integrating Hamiltonian matrix: batch-based integration.
  Time summed over all CPUs for integration: real work        0.506 s, elapsed        0.543 s

  Updating Kohn-Sham eigenvalues and eigenvectors using ELSI and the ELPA eigensolver.
  ELPA settings:
  | ELPA solver          1
  Finished transformation to standard eigenproblem
  | Time :     0.000 s
  Starting ELPA eigensolver
  | Time full => tridiagonal    :     0.002 s
  | Time solve tridiagonal      :     0.000 s
  | Time ev tridiagonal => full :     0.000 s
  Finished solving standard eigenproblem
  | Time :     0.003 s
  Finished back-transformation of eigenvectors
  | Time :     0.000 s

  Obtaining occupation numbers and chemical potential using ELSI.
  | Chemical potential (Fermi level):    -3.13756948eV
  Highest occupied state (VBM) at     -6.28060572 eV
  | Occupation number:      2.00000000

  Lowest unoccupied state (CBM) at    -2.26751775 eV
  | Occupation number:      0.00000000

  Overall HOMO-LUMO gap:      4.01308797 eV.

  Checking to see if s.c.f. parameters should be adjusted.

  Total energy components:
  | Sum of eigenvalues            :        -181.88390311 Ha       -4949.31282191 eV
  | XC energy correction          :         -42.48506071 Ha       -1156.07732243 eV
  | XC potential correction       :          54.62464159 Ha        1486.41212554 eV
  | Free-atom electrostatic energy:        -146.84031627 Ha       -3995.72830604 eV
  | Hartree energy correction     :          -6.90870709 Ha        -187.99548491 eV
  | vdW energy correction         :           0.00000000 Ha           0.00000000 eV
  | Entropy correction            :           0.00000000 Ha           0.00000000 eV
  | ---------------------------
  | Total energy                  :        -323.49334558 Ha       -8802.70180975 eV
  | Total energy, T -> 0          :        -323.49334558 Ha       -8802.70180975 eV  <-- do not rely on this value for anything but (periodic) metals
  | Electronic free energy        :        -323.49334558 Ha       -8802.70180975 eV

  Derived energy quantities:
  | Kinetic energy                :         323.64018409 Ha        8806.69748900 eV
  | Electrostatic energy          :        -604.64846896 Ha      -16453.32197632 eV
  | Energy correction for multipole
  | error in Hartree potential    :           0.02805565 Ha           0.76343321 eV
  | Sum of eigenvalues per atom                           :        -380.71637092 eV
  | Total energy (T->0) per atom                          :        -677.13090844 eV  <-- do not rely on this value for anything but (periodic) metals
  | Electronic free energy per atom                       :        -677.13090844 eV

  Self-consistency convergence accuracy:
  | Change of charge density      :  0.3671E+00
  | Change of sum of eigenvalues  :  0.9737E+02 eV
  | Change of total energy        :  0.2147E+01 eV

  End self-consistency iteration #     2       :  max(cpu_time)    wall_clock(cpu1)
  | Time for this iteration                    :        0.080 s           0.080 s
  | Charge density update                      :        0.023 s           0.023 s
  | Density mixing                             :        0.001 s           0.001 s
  | Hartree multipole update                   :        0.001 s           0.001 s
  | Hartree multipole summation                :        0.022 s           0.022 s
  | Integration                                :        0.028 s           0.028 s
  | Solution of K.-S. eqns.                    :        0.004 s           0.004 s
  | Total energy evaluation                    :        0.000 s           0.001 s

  Partial memory accounting:
  | Current value for overall tracked memory usage on task 0  :           0.134 MB
  | Peak value for overall tracked memory usage on task 0     :           0.874 MB after allocating gradient_basis_wave
  | Largest tracked array allocation on task 0 so far         :           0.556 MB  when allocating gradient_basis_wave
  Note:  These values currently only include a subset of arrays which are explicitly tracked.
  The "true" memory usage will be greater.
------------------------------------------------------------

------------------------------------------------------------
          Begin self-consistency iteration #    3

  Date     :  20200616, Time     :  045339.613
------------------------------------------------------------
  Evaluating new KS density.
  Integration grid: deviation in total charge (<rho> - N_e) =   2.131628E-14
  Pulay mixing of updated and previous charge densities.

  Evaluating partitioned Hartree potential by multipole expansion.
  | Analytical far-field extrapolation by fixed multipoles:
  | Hartree multipole sum: apparent total charge =  -0.327249E-03
  Summing up the Hartree potential.
  Time summed over all CPUs for potential: real work        0.420 s, elapsed        0.439 s
  | RMS charge density error from multipole expansion :   0.223398E-01

  Integrating Hamiltonian matrix: batch-based integration.
  Time summed over all CPUs for integration: real work        0.506 s, elapsed        0.544 s

  Updating Kohn-Sham eigenvalues and eigenvectors using ELSI and the ELPA eigensolver.
  ELPA settings:
  | ELPA solver          1
  Finished transformation to standard eigenproblem
  | Time :     0.000 s
  Starting ELPA eigensolver
  | Time full => tridiagonal    :     0.002 s
  | Time solve tridiagonal      :     0.000 s
  | Time ev tridiagonal => full :     0.000 s
  Finished solving standard eigenproblem
  | Time :     0.003 s
  Finished back-transformation of eigenvectors
  | Time :     0.000 s

  Obtaining occupation numbers and chemical potential using ELSI.
  | Chemical potential (Fermi level):    -2.47907220eV
  Highest occupied state (VBM) at     -5.58886304 eV
  | Occupation number:      2.00000000

  Lowest unoccupied state (CBM) at    -1.59706223 eV
  | Occupation number:      0.00000000

  Overall HOMO-LUMO gap:      3.99180081 eV.

  Total energy components:
  | Sum of eigenvalues            :        -180.57671732 Ha       -4913.74248679 eV
  | XC energy correction          :         -42.63668699 Ha       -1160.20328363 eV
  | XC potential correction       :          54.81803561 Ha        1491.67464444 eV
  | Free-atom electrostatic energy:        -146.84031627 Ha       -3995.72830604 eV
  | Hartree energy correction     :          -8.24502109 Ha        -224.35843910 eV
  | vdW energy correction         :           0.00000000 Ha           0.00000000 eV
  | Entropy correction            :           0.00000000 Ha           0.00000000 eV
  | ---------------------------
  | Total energy                  :        -323.48070607 Ha       -8802.35787112 eV
  | Total energy, T -> 0          :        -323.48070607 Ha       -8802.35787112 eV  <-- do not rely on this value for anything but (periodic) metals
  | Electronic free energy        :        -323.48070607 Ha       -8802.35787112 eV

  Derived energy quantities:
  | Kinetic energy                :         323.23509099 Ha        8795.67434492 eV
  | Electrostatic energy          :        -604.07911007 Ha      -16437.82893242 eV
  | Energy correction for multipole
  | error in Hartree potential    :           0.03952590 Ha           1.07555456 eV
  | Sum of eigenvalues per atom                           :        -377.98019129 eV
  | Total energy (T->0) per atom                          :        -677.10445162 eV  <-- do not rely on this value for anything but (periodic) metals
  | Electronic free energy per atom                       :        -677.10445162 eV

  Self-consistency convergence accuracy:
  | Change of charge density      :  0.2047E+00
  | Change of sum of eigenvalues  :  0.3557E+02 eV
  | Change of total energy        :  0.3439E+00 eV

  End self-consistency iteration #     3       :  max(cpu_time)    wall_clock(cpu1)
  | Time for this iteration                    :        0.080 s           0.075 s
  | Charge density update                      :        0.024 s           0.019 s
  | Density mixing                             :        0.001 s           0.001 s
  | Hartree multipole update                   :        0.001 s           0.001 s
  | Hartree multipole summation                :        0.022 s           0.022 s
  | Integration                                :        0.028 s           0.028 s
  | Solution of K.-S. eqns.                    :        0.004 s           0.004 s
  | Total energy evaluation                    :        0.000 s           0.000 s

  Partial memory accounting:
  | Current value for overall tracked memory usage on task 0  :           0.134 MB
  | Peak value for overall tracked memory usage on task 0     :           0.875 MB after allocating gradient_basis_wave
  | Largest tracked array allocation on task 0 so far         :           0.556 MB  when allocating gradient_basis_wave
  Note:  These values currently only include a subset of arrays which are explicitly tracked.
  The "true" memory usage will be greater.
------------------------------------------------------------

------------------------------------------------------------
          Begin self-consistency iteration #    4

  Date     :  20200616, Time     :  045339.698
------------------------------------------------------------
  Evaluating new KS density.
  Integration grid: deviation in total charge (<rho> - N_e) =   2.131628E-14
  Pulay mixing of updated and previous charge densities.

  Evaluating partitioned Hartree potential by multipole expansion.
  | Analytical far-field extrapolation by fixed multipoles:
  | Hartree multipole sum: apparent total charge =  -0.354321E-03
  Summing up the Hartree potential.
  Time summed over all CPUs for potential: real work        0.412 s, elapsed        0.430 s
  | RMS charge density error from multipole expansion :   0.257845E-01

  Integrating Hamiltonian matrix: batch-based integration.
  Time summed over all CPUs for integration: real work        0.506 s, elapsed        0.549 s

  Updating Kohn-Sham eigenvalues and eigenvectors using ELSI and the ELPA eigensolver.
  ELPA settings:
  | ELPA solver          1
  Finished transformation to standard eigenproblem
  | Time :     0.000 s
  Starting ELPA eigensolver
  | Time full => tridiagonal    :     0.002 s
  | Time solve tridiagonal      :     0.000 s
  | Time ev tridiagonal => full :     0.000 s
  Finished solving standard eigenproblem
  | Time :     0.003 s
  Finished back-transformation of eigenvectors
  | Time :     0.000 s

  Obtaining occupation numbers and chemical potential using ELSI.
  | Chemical potential (Fermi level):    -2.37296106eV
  Highest occupied state (VBM) at     -5.41114139 eV
  | Occupation number:      2.00000000

  Lowest unoccupied state (CBM) at    -1.51138213 eV
  | Occupation number:      0.00000000

  Overall HOMO-LUMO gap:      3.89975926 eV.

  Total energy components:
  | Sum of eigenvalues            :        -180.43583825 Ha       -4909.90897231 eV
  | XC energy correction          :         -42.67393199 Ha       -1161.21677148 eV
  | XC potential correction       :          54.86489263 Ha        1492.94968883 eV
  | Free-atom electrostatic energy:        -146.84031627 Ha       -3995.72830604 eV
  | Hartree energy correction     :          -8.39464622 Ha        -228.42994602 eV
  | vdW energy correction         :           0.00000000 Ha           0.00000000 eV
  | Entropy correction            :           0.00000000 Ha           0.00000000 eV
  | ---------------------------
  | Total energy                  :        -323.47984010 Ha       -8802.33430701 eV
  | Total energy, T -> 0          :        -323.47984010 Ha       -8802.33430701 eV  <-- do not rely on this value for anything but (periodic) metals
  | Electronic free energy        :        -323.47984010 Ha       -8802.33430701 eV

  Derived energy quantities:
  | Kinetic energy                :         322.84881905 Ha        8785.16335054 eV
  | Electrostatic energy          :        -603.65472716 Ha      -16426.28088608 eV
  | Energy correction for multipole
  | error in Hartree potential    :           0.04379237 Ha           1.19165110 eV
  | Sum of eigenvalues per atom                           :        -377.68530556 eV
  | Total energy (T->0) per atom                          :        -677.10263900 eV  <-- do not rely on this value for anything but (periodic) metals
  | Electronic free energy per atom                       :        -677.10263900 eV

  Self-consistency convergence accuracy:
  | Change of charge density      :  0.6541E-01
  | Change of sum of eigenvalues  :  0.3834E+01 eV
  | Change of total energy        :  0.2356E-01 eV

  End self-consistency iteration #     4       :  max(cpu_time)    wall_clock(cpu1)
  | Time for this iteration                    :        0.081 s           0.075 s
  | Charge density update                      :        0.025 s           0.019 s
  | Density mixing                             :        0.001 s           0.000 s
  | Hartree multipole update                   :        0.001 s           0.002 s
  | Hartree multipole summation                :        0.022 s           0.022 s
  | Integration                                :        0.028 s           0.027 s
  | Solution of K.-S. eqns.                    :        0.004 s           0.005 s
  | Total energy evaluation                    :        0.000 s           0.000 s

  Partial memory accounting:
  | Current value for overall tracked memory usage on task 0  :           0.134 MB
  | Peak value for overall tracked memory usage on task 0     :           0.875 MB after allocating gradient_basis_wave
  | Largest tracked array allocation on task 0 so far         :           0.556 MB  when allocating gradient_basis_wave
  Note:  These values currently only include a subset of arrays which are explicitly tracked.
  The "true" memory usage will be greater.
------------------------------------------------------------

------------------------------------------------------------
          Begin self-consistency iteration #    5

  Date     :  20200616, Time     :  045339.779
------------------------------------------------------------
  Evaluating new KS density.
  Integration grid: deviation in total charge (<rho> - N_e) =  -7.105427E-15
  Pulay mixing of updated and previous charge densities.

  Evaluating partitioned Hartree potential by multipole expansion.
  | Analytical far-field extrapolation by fixed multipoles:
  | Hartree multipole sum: apparent total charge =  -0.348325E-03
  Summing up the Hartree potential.
  Time summed over all CPUs for potential: real work        0.413 s, elapsed        0.432 s
  | RMS charge density error from multipole expansion :   0.255506E-01

  Integrating Hamiltonian matrix: batch-based integration.
  Time summed over all CPUs for integration: real work        0.506 s, elapsed        0.543 s

  Updating Kohn-Sham eigenvalues and eigenvectors using ELSI and the ELPA eigensolver.
  ELPA settings:
  | ELPA solver          1
  Finished transformation to standard eigenproblem
  | Time :     0.000 s
  Starting ELPA eigensolver
  | Time full => tridiagonal    :     0.002 s
  | Time solve tridiagonal      :     0.000 s
  | Time ev tridiagonal => full :     0.000 s
  Finished solving standard eigenproblem
  | Time :     0.003 s
  Finished back-transformation of eigenvectors
  | Time :     0.000 s

  Obtaining occupation numbers and chemical potential using ELSI.
  | Chemical potential (Fermi level):    -2.43019035eV
  Highest occupied state (VBM) at     -5.50040845 eV
  | Occupation number:      2.00000000

  Lowest unoccupied state (CBM) at    -1.59787924 eV
  | Occupation number:      0.00000000

  Overall HOMO-LUMO gap:      3.90252921 eV.

  Total energy components:
  | Sum of eigenvalues            :        -180.63731691 Ha       -4915.39148559 eV
  | XC energy correction          :         -42.64929370 Ha       -1160.54632965 eV
  | XC potential correction       :          54.83293211 Ha        1492.07999901 eV
  | Free-atom electrostatic energy:        -146.84031627 Ha       -3995.72830604 eV
  | Hartree energy correction     :          -8.18554962 Ha        -222.74013801 eV
  | vdW energy correction         :           0.00000000 Ha           0.00000000 eV
  | Entropy correction            :           0.00000000 Ha           0.00000000 eV
  | ---------------------------
  | Total energy                  :        -323.47954439 Ha       -8802.32626029 eV
  | Total energy, T -> 0          :        -323.47954439 Ha       -8802.32626029 eV  <-- do not rely on this value for anything but (periodic) metals
  | Electronic free energy        :        -323.47954439 Ha       -8802.32626029 eV

  Derived energy quantities:
  | Kinetic energy                :         322.72975299 Ha        8781.92339813 eV
  | Electrostatic energy          :        -603.56000367 Ha      -16423.70332876 eV
  | Energy correction for multipole
  | error in Hartree potential    :           0.04311227 Ha           1.17314467 eV
  | Sum of eigenvalues per atom                           :        -378.10703735 eV
  | Total energy (T->0) per atom                          :        -677.10202002 eV  <-- do not rely on this value for anything but (periodic) metals
  | Electronic free energy per atom                       :        -677.10202002 eV

  Self-consistency convergence accuracy:
  | Change of charge density      :  0.2046E-01
  | Change of sum of eigenvalues  : -0.5483E+01 eV
  | Change of total energy        :  0.8047E-02 eV

  End self-consistency iteration #     5       :  max(cpu_time)    wall_clock(cpu1)
  | Time for this iteration                    :        0.083 s           0.077 s
  | Charge density update                      :        0.026 s           0.021 s
  | Density mixing                             :        0.001 s           0.000 s
  | Hartree multipole update                   :        0.001 s           0.002 s
  | Hartree multipole summation                :        0.022 s           0.022 s
  | Integration                                :        0.028 s           0.027 s
  | Solution of K.-S. eqns.                    :        0.004 s           0.005 s
  | Total energy evaluation                    :        0.000 s           0.000 s

  Partial memory accounting:
  | Current value for overall tracked memory usage on task 0  :           0.134 MB
  | Peak value for overall tracked memory usage on task 0     :           0.875 MB after allocating gradient_basis_wave
  | Largest tracked array allocation on task 0 so far         :           0.556 MB  when allocating gradient_basis_wave
  Note:  These values currently only include a subset of arrays which are explicitly tracked.
  The "true" memory usage will be greater.
------------------------------------------------------------

------------------------------------------------------------
          Begin self-consistency iteration #    6

  Date     :  20200616, Time     :  045339.863
------------------------------------------------------------
  Evaluating new KS density.
  Integration grid: deviation in total charge (<rho> - N_e) =   0.000000E+00
  Pulay mixing of updated and previous charge densities.

[...]
  |   Hirshfeld dipole moment :      0.06089657
  |   Hirshfeld second moments:      0.01170249      -0.02958235      -0.01907285
  |                                 -0.02958235      -0.01543836       0.00995314
  |                                 -0.01907285       0.00995314      -0.01820607
  ----------------------------------------------------------------------
  | Atom    12: O
  |   Hirshfeld charge        :     -0.14574287
  |   Free atom volume        :     23.61338643
  |   Hirshfeld volume        :     20.55228476
  |   Hirshfeld dipole vector :      0.03148103       0.01215671       0.01259896
  |   Hirshfeld dipole moment :      0.03602186
  |   Hirshfeld second moments:      0.05841614      -0.02449695      -0.00862226
  |                                 -0.02449695       0.10015067       0.01041783
  |                                 -0.00862226       0.01041783       0.04347828
  ----------------------------------------------------------------------
  | Atom    13: H
  |   Hirshfeld charge        :      0.18795624
  |   Free atom volume        :      9.95071624
  |   Hirshfeld volume        :      5.98624929
  |   Hirshfeld dipole vector :      0.07814633      -0.09978288      -0.00905103
  |   Hirshfeld dipole moment :      0.12706452
  |   Hirshfeld second moments:      0.12127707       0.00110527      -0.00565517
  |                                  0.00110527       0.12892183       0.00056607
  |                                 -0.00565517       0.00056607       0.10660746
  ----------------------------------------------------------------------


  Total energy components:
  | Sum of eigenvalues            :        -180.62810516 Ha       -4915.14082100 eV
  | XC energy correction          :         -42.64642576 Ha       -1160.46828887 eV
  | XC potential correction       :          54.82927950 Ha        1491.98060625 eV
  | Free-atom electrostatic energy:        -146.84031627 Ha       -3995.72830604 eV
  | Hartree energy correction     :          -8.19391639 Ha        -222.96780945 eV
  | vdW energy correction         :          -0.00328212 Ha          -0.08931116 eV
  | Entropy correction            :           0.00000000 Ha           0.00000000 eV
  | ---------------------------
  | Total energy                  :        -323.48276620 Ha       -8802.41393028 eV
  | Total energy, T -> 0          :        -323.48276620 Ha       -8802.41393028 eV  <-- do not rely on this value for anything but (periodic) metals
  | Electronic free energy        :        -323.48276620 Ha       -8802.41393028 eV

  Derived energy quantities:
  | Kinetic energy                :         322.61395104 Ha        8778.77226672 eV
  | Electrostatic energy          :        -603.44700936 Ha      -16420.62859697 eV
  | Energy correction for multipole
  | error in Hartree potential    :           0.04352381 Ha           1.18434307 eV
  | Sum of eigenvalues per atom                           :        -378.08775546 eV
  | Total energy (T->0) per atom                          :        -677.10876387 eV  <-- do not rely on this value for anything but (periodic) metals
  | Electronic free energy per atom                       :        -677.10876387 eV

  atomic forces [eV/Ang]:
  -----------------------
  atom #    1
   Hellmann-Feynman              : -0.246815E+00 -0.139971E+00  0.705681E+00
   Ionic forces                  :  0.000000E+00  0.000000E+00  0.000000E+00
   Multipole                     :  0.437483E-01  0.278671E+00 -0.194836E+00
   Pulay + GGA                   : -0.846453E+00 -0.129659E+00 -0.125809E+01
   Van der Waals                 :  0.275033E-02  0.669819E-02 -0.185713E-02
   ----------------------------------------------------------------
   Total forces(   1)            : -0.104677E+01  0.157392E-01 -0.749098E+00
  atom #    2
   Hellmann-Feynman              :  0.353433E+00 -0.153385E+00  0.977107E-01
   Ionic forces                  :  0.000000E+00  0.000000E+00  0.000000E+00
   Multipole                     :  0.175134E+00  0.186058E-01 -0.580741E-01
   Pulay + GGA                   : -0.147513E+00  0.458526E-01 -0.148589E-01
   Van der Waals                 :  0.215875E-02  0.193111E-02 -0.256240E-02
   ----------------------------------------------------------------
   Total forces(   2)            :  0.383212E+00 -0.869955E-01  0.222153E-01
  atom #    3
   Hellmann-Feynman              :  0.846903E+01  0.342340E+01 -0.539842E+01
   Ionic forces                  :  0.000000E+00  0.000000E+00  0.000000E+00
   Multipole                     : -0.121540E+00  0.934262E-01 -0.123683E+01
   Pulay + GGA                   : -0.766439E+01 -0.339908E+01  0.710382E+01
   Van der Waals                 :  0.211080E-02 -0.995831E-03  0.391057E-02
   ----------------------------------------------------------------
   Total forces(   3)            :  0.685209E+00  0.116746E+00  0.472479E+00
  atom #    4
   Hellmann-Feynman              : -0.218910E+00  0.107086E-01 -0.125471E+00
   Ionic forces                  :  0.000000E+00  0.000000E+00  0.000000E+00
   Multipole                     : -0.573276E-01 -0.587850E-01 -0.715798E-01
   Pulay + GGA                   :  0.926895E-01  0.204503E+00  0.556136E-01
   Van der Waals                 : -0.310129E-02  0.514447E-02 -0.543541E-03
   ----------------------------------------------------------------
   Total forces(   4)            : -0.186649E+00  0.161571E+00 -0.141981E+00
  atom #    5
   Hellmann-Feynman              : -0.339239E+00 -0.121220E+00 -0.142022E-02
   Ionic forces                  :  0.000000E+00  0.000000E+00  0.000000E+00
   Multipole                     : -0.930684E-01  0.325782E-01 -0.668062E-01
   Pulay + GGA                   :  0.219588E+00 -0.109978E+00 -0.398168E-01
   Van der Waals                 :  0.696325E-03 -0.232935E-02  0.243651E-02
   ----------------------------------------------------------------
   Total forces(   5)            : -0.212022E+00 -0.200950E+00 -0.105607E+00
  atom #    6
   Hellmann-Feynman              :  0.651804E-02 -0.199112E+00  0.358766E+00
   Ionic forces                  :  0.000000E+00  0.000000E+00  0.000000E+00
   Multipole                     : -0.187275E+00  0.596906E+00  0.273307E+00
   Pulay + GGA                   :  0.385182E+00 -0.586644E+00 -0.384340E+00
   Van der Waals                 : -0.207802E-02  0.458781E-02 -0.329200E-02
   ----------------------------------------------------------------
   Total forces(   6)            :  0.202347E+00 -0.184262E+00  0.244441E+00
  atom #    7
   Hellmann-Feynman              :  0.366844E-01  0.102521E+00  0.103244E+00
   Ionic forces                  :  0.000000E+00  0.000000E+00  0.000000E+00
   Multipole                     :  0.553975E-01  0.126084E+00  0.793206E-01
   Pulay + GGA                   : -0.911974E-01 -0.757756E-01 -0.477236E-01
   Van der Waals                 : -0.365226E-02 -0.624906E-02 -0.286356E-02
   ----------------------------------------------------------------
   Total forces(   7)            : -0.276772E-02  0.146580E+00  0.131977E+00
  atom #    8
   Hellmann-Feynman              :  0.856003E-02  0.225808E-01 -0.194140E+00
   Ionic forces                  :  0.000000E+00  0.000000E+00  0.000000E+00
   Multipole                     : -0.674830E-01  0.147188E+00 -0.518650E-02
   Pulay + GGA                   :  0.665889E-01 -0.258213E-01  0.982440E-01
   Van der Waals                 :  0.116114E-02 -0.497746E-02  0.257059E-02
   ----------------------------------------------------------------
   Total forces(   8)            :  0.882707E-02  0.138970E+00 -0.985124E-01
  atom #    9
   Hellmann-Feynman              : -0.801267E-01  0.153984E-01  0.114258E+00
   Ionic forces                  :  0.000000E+00  0.000000E+00  0.000000E+00
   Multipole                     : -0.959900E-01  0.424764E-01  0.105828E+00
   Pulay + GGA                   :  0.923343E-01  0.147056E-01 -0.583614E-01
   Van der Waals                 : -0.142238E-02  0.343306E-02 -0.807603E-02
   ----------------------------------------------------------------
   Total forces(   9)            : -0.852048E-01  0.760134E-01  0.153648E+00
  atom #   10
   Hellmann-Feynman              :  0.277557E+01  0.626984E+01  0.209153E+01
   Ionic forces                  :  0.000000E+00  0.000000E+00  0.000000E+00
   Multipole                     :  0.118257E-01 -0.686198E-01  0.152645E+00
   Pulay + GGA                   : -0.190412E+01 -0.325923E+01 -0.337378E+00
   Van der Waals                 :  0.189564E-02 -0.264616E-02  0.500523E-02
   ----------------------------------------------------------------
   Total forces(  10)            :  0.885175E+00  0.293934E+01  0.191180E+01
  atom #   11
   Hellmann-Feynman              :  0.325590E+01 -0.183521E+01  0.142368E+02
   Ionic forces                  :  0.000000E+00  0.000000E+00  0.000000E+00
   Multipole                     :  0.190815E-01 -0.624816E+00  0.792240E+00
   Pulay + GGA                   : -0.227255E+01  0.297046E+01 -0.138146E+02
   Van der Waals                 : -0.370553E-04 -0.112265E-01  0.265257E-02
   ----------------------------------------------------------------
   Total forces(  11)            :  0.100239E+01  0.499203E+00  0.121712E+01
  atom #   12
   Hellmann-Feynman              : -0.119143E+02 -0.131020E+00 -0.109518E+02
   Ionic forces                  :  0.000000E+00  0.000000E+00  0.000000E+00
   Multipole                     : -0.967440E+00 -0.113197E+01 -0.444451E+00
   Pulay + GGA                   :  0.119802E+02 -0.121098E+01  0.829154E+01
   Van der Waals                 : -0.510156E-03  0.766020E-02  0.367830E-02
   ----------------------------------------------------------------
   Total forces(  12)            : -0.902088E+00 -0.246631E+01 -0.310100E+01
  atom #   13
   Hellmann-Feynman              : -0.513202E+00 -0.138655E+01  0.865048E-01
   Ionic forces                  :  0.000000E+00  0.000000E+00  0.000000E+00
   Multipole                     :  0.489767E-01 -0.650379E-01 -0.267157E-01
   Pulay + GGA                   : -0.266359E+00  0.292448E+00 -0.189255E-01
   Van der Waals                 :  0.281616E-04 -0.103049E-02 -0.105912E-02
   ----------------------------------------------------------------
   Total forces(  13)            : -0.730556E+00 -0.116017E+01  0.398045E-01

  Timings for VdW correction (Tkatchenko-Scheffler 2009 or later):
  | CPU time:        0.009 s, Wall clock time:        0.008 s.
  Removing unitary transformations (pure translations, rotations) from forces on atoms.
  Atomic forces before filtering:
  | Net force on center of mass :   0.110410E-02 -0.452650E-02 -0.271266E-02 eV/A
  | Net torque on center of mass:  -0.104803E-02  0.217292E-02  0.826072E-02 eV
  Atomic forces after filtering:
  | Net force on center of mass :  -0.267609E-15  0.713624E-15  0.108716E-14 eV/A
  | Net torque on center of mass:  -0.161674E-14 -0.187711E-15  0.755268E-15 eV

  Energy and forces in a compact form:
  | Total energy uncorrected      :         -0.880241393028061E+04 eV
  | Total energy corrected        :         -0.880241393028061E+04 eV  <-- do not rely on this value for anything but (periodic) metals
  | Electronic free energy        :         -0.880241393028061E+04 eV
  Total atomic forces (unitary forces cleaned) [eV/Ang]:
  |   1         -0.104679466646065E+01          0.159764955198280E-01         -0.748833394406717E+00
  |   2          0.383187018060852E+00         -0.870359126530260E-01          0.226111313317733E-01
  |   3          0.685354275550398E+00          0.117122963415243E+00          0.472685237610998E+00
  |   4         -0.186715062877145E+00          0.162020124457267E+00         -0.141819239798308E+00
  |   5         -0.211709227427913E+00         -0.200369029828224E+00         -0.105488938193964E+00
  |   6          0.202555021701988E+00         -0.183907758719463E+00          0.244661292016681E+00
  |   7         -0.247589253219788E-02          0.146715678645433E+00          0.132305235377953E+00
  |   8          0.928852797629785E-02          0.139462952138077E+00         -0.983459414057902E-01
  |   9         -0.851612180845805E-01          0.765350461697771E-01          0.153780775175218E+00
  |  10          0.884732803791704E+00          0.293966655419350E+01          0.191200091011642E+01
  |  11          0.100174860175519E+01          0.499458838319615E+00          0.121734575135750E+01
  |  12         -0.902671280447401E+00         -0.246581275802052E+01         -0.310088722809732E+01
  |  13         -0.731338901006541E+00         -0.115983319363750E+01          0.399844089155553E-01

  ------------------------------------ 
  Start decomposition of the XC Energy 
  ------------------------------------ 
  X and C from original XC functional choice 
  Hartree-Fock Energy :          0.000000000 Ha              0.000000000 eV
  X Energy            :        -41.044622619 Ha          -1116.881007733 eV
  C Energy            :         -1.601803140 Ha            -43.587281141 eV
  Total XC Energy     :        -42.646425759 Ha          -1160.468288873 eV
  ------------------------------------ 
  LDA X and C from self-consistent density 
  X Energy LDA        :        -37.265006722 Ha          -1014.032426299 eV
  C Energy LDA        :         -3.139200182 Ha            -85.421983176 eV
  ------------------------------------ 
  End decomposition of the XC Energy 
  ------------------------------------ 

------------------------------------------------------------

------------------------------------------------------------------------------
  Final output of selected total energy values:

  The following output summarizes some interesting total energy values
  at the end of a run (AFTER all relaxation, molecular dynamics, etc.).

  | Total energy of the DFT / Hartree-Fock s.c.f. calculation      :          -8802.413930281 eV
  | Final zero-broadening corrected energy (caution - metals only) :          -8802.413930281 eV
  | For reference only, the value of 1 Hartree used in FHI-aims is :             27.211384500 eV

  Before relying on these values, please be sure to understand exactly which
  total energy value is referred to by a given number. Different objects may
  all carry the same name 'total energy'. Definitions:

  Total energy of the DFT / Hartree-Fock s.c.f. calculation:
  | Note that this energy does not include ANY quantities calculated after the
  | s.c.f. cycle, in particular not ANY RPA, MP2, etc. many-body perturbation terms.

  Final zero-broadening corrected energy:
  | For metallic systems only, a broadening of the occupation numbers at the Fermi
  | level can be extrapolated back to zero broadening by an electron-gas inspired
  | formula. For all systems that are not real metals, this value can be
  | meaningless and should be avoided.

------------------------------------------------------------------------------
  Methods described in the following list of references were used in this FHI-aims run.
  If you publish the results, please make sure to cite these reference if they apply.
  FHI-aims is an academic code, and for our developers (often, Ph.D. students
  and postdocs), scientific credit in the community is essential.
  Thank you for helping us!

  For any use of FHI-aims, please cite:

    Volker Blum, Ralf Gehrke, Felix Hanke, Paula Havu, Ville Havu,
    Xinguo Ren, Karsten Reuter, and Matthias Scheffler
    'Ab initio molecular simulations with numeric atom-centered orbitals'
    Computer Physics Communications 180, 2175-2196 (2009)
    http://dx.doi.org/10.1016/j.cpc.2009.06.022


  The scalable eigensolver library ELPA was used in your run.
  ELPA is essential especially for large systems on hundreds or thousands of CPUs.
  For ELPA, please cite:

    Andreas Marek, Volker Blum, Rainer Johanni, Ville Havu, Bruno Lang,
    Thomas Auckenthaler, Alexander Heinecke, Hans-Joachim Bungartz, and Hermann Lederer,
    'The ELPA Library - Scalable Parallel Eigenvalue Solutions
    for Electronic Structure Theory and Computational Science'
    The Journal of Physics: Condensed Matter 26, 213201 (2014).
    http://dx.doi.org/10.1088/0953-8984/26/21/213201


  The ELSI infrastructure was used in your run to solve the Kohn-Sham electronic structure.
  Please check out http://elsi-interchange.org to learn more.
  If scalability is important for your project, please acknowledge ELSI by citing:

    V. W-z. Yu, F. Corsetti, A. Garcia, W. P. Huhn, M. Jacquelin, W. Jia,
    B. Lange, L. Lin, J. Lu, W. Mi, A. Seifitokaldani, A. Vazquez-Mayagoitia,
    C. Yang, H. Yang, and V. Blum
    'ELSI: A unified software interface for Kohn-Sham electronic structure solvers'
    Computer Physics Communications 222, 267-285 (2018).
    http://dx.doi.org/10.1016/j.cpc.2017.09.007


  For the real-space grid partitioning and parallelization used in this calculation, please cite:

    Ville Havu, Volker Blum, Paula Havu, and Matthias Scheffler,
    'Efficient O(N) integration for all-electron electronic structure calculation'
    'using numerically tabulated basis functions'
    Journal of Computational Physics 228, 8367-8379 (2009).
    http://dx.doi.org/10.1016/j.jcp.2009.08.008

  Of course, there are many other important community references, e.g., those cited in the
  above references. Our list is limited to references that describe implementations in the
  FHI-aims code. The reason is purely practical (length of this list) - please credit others as well.

------------------------------------------------------------
          Leaving FHI-aims.
          Date     :  20200616, Time     :  045340.944

          Computational steps:
          | Number of self-consistency cycles          :           16
          | Number of SCF (re)initializations          :            1

          Detailed time accounting                     :  max(cpu_time)    wall_clock(cpu1)
          | Total time                                 :        2.526 s           3.886 s
          | Preparation time                           :        0.165 s           0.165 s
          | Boundary condition initalization           :        0.000 s           0.000 s
          | Grid partitioning                          :        0.035 s           0.035 s
          | Preloading free-atom quantities on grid    :        0.003 s           0.005 s
          | Free-atom superposition energy             :        0.005 s           0.004 s
          | Total time for integrations                :        0.481 s           0.509 s
          | Total time for solution of K.-S. equations :        0.077 s           0.082 s
          | Total time for density & force components  :        0.451 s           0.387 s
          | Total time for mixing                      :        0.016 s           0.014 s
          | Total time for Hartree multipole update    :        0.019 s           0.021 s
          | Total time for Hartree multipole sum       :        0.434 s           0.433 s
          | Total time for total energy evaluation     :        0.003 s           0.005 s
          | Total time for vdW correction              :        0.009 s           0.008 s

          Partial memory accounting:
          | Residual value for overall tracked memory usage across tasks :           0.000 MB (should be 0.000 MB)
          | Peak values for overall tracked memory usage (after allocating hessian_basis_wave):
          |   Minimum:        2.169 MB (on task  4)
          |   Maximum:        2.207 MB (on task  2)
          |   Average:        2.182 MB
          | Largest tracked array allocation (hessian_basis_wave):
          |   Minimum:        1.112 MB (on task  1)
          |   Maximum:        1.131 MB (on task  2)
          |   Average:        1.121 MB
          Note:  These values currently only include a subset of arrays which are explicitly tracked.
          The "true" memory usage will be greater.

          Have a nice day.
------------------------------------------------------------
