  MPI-parallelism will be employed.
------------------------------------------------------------
          Invoking FHI-aims ...
          Version 171221_1
          Compiled on 2019/09/09 at 14:39:39 on host puhti-login2.bullx.

          When using FHI-aims, please cite the following reference:

          Volker Blum, Ralf Gehrke, Felix Hanke, Paula Havu,
          Ville Havu, Xinguo Ren, Karsten Reuter, and Matthias Scheffler,
          'Ab Initio Molecular Simulations with Numeric Atom-Centered Orbitals',
          Computer Physics Communications 180, 2175-2196 (2009)

          For any questions about FHI-aims, please visit the aimsclub website
          with its forums and wiki. Contributions to both the forums and the
          wiki are warmly encouraged - they are for you, and everyone is welcome there.

------------------------------------------------------------



  Date     :  20200601, Time     :  010727.389
  Time zero on CPU 1             :   0.313180000000000E-01  s.
  Internal wall clock time zero  :           360205647.389  s.

  FHI-aims created a unique identifier for this run for later identification
  aims_uuid : A0B59AEC-4090-4210-A514-72E7BAC29E48

  Using       20 parallel tasks.
  Task        0 on host r01c25.bullx reporting.
  Task        1 on host r01c25.bullx reporting.
  Task        2 on host r01c25.bullx reporting.
  Task        3 on host r01c25.bullx reporting.
  Task        4 on host r01c25.bullx reporting.
  Task        5 on host r01c25.bullx reporting.
  Task        6 on host r01c25.bullx reporting.
  Task        7 on host r01c25.bullx reporting.
  Task        8 on host r01c25.bullx reporting.
  Task        9 on host r01c25.bullx reporting.
  Task       10 on host r01c25.bullx reporting.
  Task       11 on host r01c25.bullx reporting.
  Task       12 on host r01c25.bullx reporting.
  Task       13 on host r01c25.bullx reporting.
  Task       14 on host r01c25.bullx reporting.
  Task       15 on host r01c25.bullx reporting.
  Task       16 on host r01c25.bullx reporting.
  Task       17 on host r01c25.bullx reporting.
  Task       18 on host r01c25.bullx reporting.
  Task       19 on host r01c25.bullx reporting.

  Performing system and environment tests:
  | Environment variable OMP_NUM_THREADS correctly set to 1.
  | Stacksize not measured: no C compiler
  | Checking for scalapack...
  | Testing pdtran()...
  | All pdtran() tests passed.

  Obtaining array dimensions for all initial allocations:
  
  -----------------------------------------------------------------------
  Parsing control.in (first pass over file, find array dimensions only).
  The contents of control.in will be repeated verbatim below
  unless switched off by setting 'verbatim_writeout .false.' .
  in the first line of control.in .
  -----------------------------------------------------------------------
  
  #########################################################################################
  #
  #  Volker Blum, FHI 2009 : Test run input file control.in for simple H2O
  #
  #########################################################################################
  #
  #  Physical model
  #
    xc                 pbe
    vdw_correction_hirshfeld
    spin               none
    relativistic       none
    charge             0.
  #
  #  SCF convergence
  #
    occupation_type    gaussian 0.01
    mixer              pulay
      n_max_pulay        10
      charge_mix_param   0.2
    sc_accuracy_rho    1E-5
    sc_accuracy_eev    1E-3
    sc_accuracy_etot   1E-6
    sc_accuracy_forces 1E-4
    sc_iter_limit      100
  #
  #  Relaxation
  #
  #  relax_geometry   bfgs 1.e-3
  #
  ################################################################################
  #
  #  FHI-aims code project
  #  VB, Fritz-Haber Institut, 2009
  #
  #  Suggested "light" defaults for H atom (to be pasted into control.in file)
  #  Be sure to double-check any results obtained with these settings for post-processing,
  #  e.g., with the "tight" defaults and larger basis sets.
  #
  ################################################################################
    species        H
  #     global species definitions
      nucleus             1
      mass                1.00794
  #
      l_hartree           4
  #
      cut_pot             3.5  1.5  1.0
      basis_dep_cutoff    1e-4
  #
      radial_base         24 5.0
      radial_multiplier   1
      angular_grids       specified
        division   0.2421   50
        division   0.3822  110
        division   0.4799  194
        division   0.5341  302
  #      division   0.5626  434
  #      division   0.5922  590
  #      division   0.6542  770
  #      division   0.6868 1202
  #      outer_grid  770
        outer_grid  302
  ################################################################################
  #
  #  Definition of "minimal" basis
  #
  ################################################################################
  #     valence basis states
      valence      1  s   1.
  #     ion occupancy
      ion_occ      1  s   0.5
  ################################################################################
  #
  #  Suggested additional basis functions. For production calculations,
  #  uncomment them one after another (the most important basis functions are
  #  listed first).
  #
  #  Basis constructed for dimers: 0.5 A, 0.7 A, 1.0 A, 1.5 A, 2.5 A
  #
  ################################################################################
  #  "First tier" - improvements: -1014.90 meV to -62.69 meV
       hydro 2 s 2.1
       hydro 2 p 3.5
  #  "Second tier" - improvements: -12.89 meV to -1.83 meV
  #     hydro 1 s 0.85
  #     hydro 2 p 3.7
  #     hydro 2 s 1.2
  #     hydro 3 d 7
  #  "Third tier" - improvements: -0.25 meV to -0.12 meV
  #     hydro 4 f 11.2
  #     hydro 3 p 4.8
  #     hydro 4 d 9
  #     hydro 3 s 3.2
  ################################################################################
  #
  #  FHI-aims code project
  #  VB, Fritz-Haber Institut, 2009
  #
  #  Suggested "light" defaults for C atom (to be pasted into control.in file)
  #  Be sure to double-check any results obtained with these settings for post-processing,
  #  e.g., with the "tight" defaults and larger basis sets.
  #
  ################################################################################
    species        C
  #     global species definitions
      nucleus             6
      mass                12.0107
  #
      l_hartree           4
  #
      cut_pot             3.5  1.5  1.0
      basis_dep_cutoff    1e-4
  #
      radial_base         34 5.0
      radial_multiplier   1
      angular_grids specified
        division   0.3326   50
        division   0.5710  110
        division   0.7727  194
        division   0.8772  302
  #      division   0.9334  434
  #      division   0.9625  590
  #      division   0.9924  770
  #      division   1.0230  974
  #      division   1.4589 1202
  #     outer_grid  974
       outer_grid 302
  ################################################################################
  #
  #  Definition of "minimal" basis
  #
  ################################################################################
  #     valence basis states
      valence      2  s   2.
      valence      2  p   2.
  #     ion occupancy
      ion_occ      2  s   1.
      ion_occ      2  p   1.
  ################################################################################
  #
  #  Suggested additional basis functions. For production calculations,
  #  uncomment them one after another (the most important basis functions are
  #  listed first).
  #
  #  Constructed for dimers: 1.0 A, 1.25 A, 1.5 A, 2.0 A, 3.0 A
  #
  ################################################################################
  #  "First tier" - improvements: -1214.57 meV to -155.61 meV
       hydro 2 p 1.7
       hydro 3 d 6
       hydro 2 s 4.9
  #  "Second tier" - improvements: -67.75 meV to -5.23 meV
  #     hydro 4 f 9.8
  #     hydro 3 p 5.2
  #     hydro 3 s 4.3
  #     hydro 5 g 14.4
  #     hydro 3 d 6.2
  #  "Third tier" - improvements: -2.43 meV to -0.60 meV
  #     hydro 2 p 5.6
  #     hydro 2 s 1.4
  #     hydro 3 d 4.9
  #     hydro 4 f 11.2
  #  "Fourth tier" - improvements: -0.39 meV to -0.18 meV
  #     hydro 2 p 2.1
  #     hydro 5 g 16.4
  #     hydro 4 d 13.2
  #     hydro 3 s 13.6
  #     hydro 4 f 17.6
  #  Further basis functions - improvements: -0.08 meV and below
  #     hydro 3 s 2
  #     hydro 3 p 6
  #     hydro 4 d 20
  ################################################################################
  #
  #  FHI-aims code project
  #  VB, Fritz-Haber Institut, 2009
  #
  #  Suggested "light" defaults for N atom (to be pasted into control.in file)
  #  Be sure to double-check any results obtained with these settings for post-processing,
  #  e.g., with the "tight" defaults and larger basis sets.
  #
  ################################################################################
    species        N
  #     global species definitions
      nucleus             7
      mass                14.0067
  #
      l_hartree           4
  #
      cut_pot             3.5  1.5  1.0
      basis_dep_cutoff    1e-4
  #
      radial_base         35 5.0
      radial_multiplier   1
      angular_grids       specified
        division   0.2599   50
        division   0.4601  110
        division   0.5885  194
        division   0.6503  302
  #      division   0.6939  434
  #      division   0.7396  590
  #      division   0.7632  770
  #      division   0.8122  974
  #      division   1.1604 1202
  #      outer_grid  974
        outer_grid  302
  ################################################################################
  #
  #  Definition of "minimal" basis
  #
  ################################################################################
  #     valence basis states
      valence      2  s   2.
      valence      2  p   3.
  #     ion occupancy
      ion_occ      2  s   1.
      ion_occ      2  p   2.
  ################################################################################
  #
  #  Suggested additional basis functions. For production calculations,
  #  uncomment them one after another (the most important basis functions are
  #  listed first).
  #
  #  Constructed for dimers: 1.0 A, 1.1 A, 1.5 A, 2.0 A, 3.0 A
  #
  ################################################################################
  #  "First tier" - improvements: -1193.42 meV to -220.60 meV
       hydro 2 p 1.8
       hydro 3 d 6.8
       hydro 3 s 5.8
  #  "Second tier" - improvements: -80.21 meV to -6.86 meV
  #     hydro 4 f 10.8
  #     hydro 3 p 5.8
  #     hydro 1 s 0.8
  #     hydro 5 g 16
  #     hydro 3 d 4.9
  #  "Third tier" - improvements: -4.29 meV to -0.53 meV
  #     hydro 3 s 16
  #     ionic 2 p auto
  #     hydro 3 d 6.6
  #     hydro 4 f 11.6
  #  "Fourth tier" - improvements: -0.75 meV to -0.25 meV
  #     hydro 2 p 4.5
  #     hydro 2 s 2.4
  #     hydro 5 g 14.4
  #     hydro 4 d 14.4
  #     hydro 4 f 16.8
  # Further basis functions - -0.21 meV and below
  #     hydro 3 p 14.8
  #     hydro 3 s 4.4
  #     hydro 3 d 19.6
  #     hydro 5 g 12.8
  ################################################################################
  #
  #  FHI-aims code project
  #  VB, Fritz-Haber Institut, 2009
  #
  #  Suggested "light" defaults for O atom (to be pasted into control.in file)
  #  Be sure to double-check any results obtained with these settings for post-processing,
  #  e.g., with the "tight" defaults and larger basis sets.
  #
  ################################################################################
    species        O
  #     global species definitions
      nucleus             8
      mass                15.9994
  #
      l_hartree           4
  #
      cut_pot             3.5  1.5  1.0
      basis_dep_cutoff    1e-4
  #
      radial_base         36 5.0
      radial_multiplier   1
       angular_grids specified
        division   0.2659   50
        division   0.4451  110
        division   0.6052  194
        division   0.7543  302
  #      division   0.8014  434
  #      division   0.8507  590
  #      division   0.8762  770
  #      division   0.9023  974
  #      division   1.2339 1202
  #      outer_grid 974
        outer_grid 302
  ################################################################################
  #
  #  Definition of "minimal" basis
  #
  ################################################################################
  #     valence basis states
      valence      2  s   2.
      valence      2  p   4.
  #     ion occupancy
      ion_occ      2  s   1.
      ion_occ      2  p   3.
  ################################################################################
  #
  #  Suggested additional basis functions. For production calculations,
  #  uncomment them one after another (the most important basis functions are
  #  listed first).
  #
  #  Constructed for dimers: 1.0 A, 1.208 A, 1.5 A, 2.0 A, 3.0 A
  #
  ################################################################################
  #  "First tier" - improvements: -699.05 meV to -159.38 meV
       hydro 2 p 1.8
       hydro 3 d 7.6
       hydro 3 s 6.4
  #  "Second tier" - improvements: -49.91 meV to -5.39 meV
  #     hydro 4 f 11.6
  #     hydro 3 p 6.2
  #     hydro 3 d 5.6
  #     hydro 5 g 17.6
  #     hydro 1 s 0.75
  #  "Third tier" - improvements: -2.83 meV to -0.50 meV
  #     ionic 2 p auto
  #     hydro 4 f 10.8
  #     hydro 4 d 4.7
  #     hydro 2 s 6.8
  #  "Fourth tier" - improvements: -0.40 meV to -0.12 meV
  #     hydro 3 p 5
  #     hydro 3 s 3.3
  #     hydro 5 g 15.6
  #     hydro 4 f 17.6
  #     hydro 4 d 14
  # Further basis functions - -0.08 meV and below
  #     hydro 3 s 2.1
  #     hydro 4 d 11.6
  #     hydro 3 p 16
  #     hydro 2 s 17.2
  
  -----------------------------------------------------------------------
  Completed first pass over input file control.in .
  -----------------------------------------------------------------------
  
  
  -----------------------------------------------------------------------
  Parsing geometry.in (first pass over file, find array dimensions only).
  The contents of geometry.in will be repeated verbatim below
  unless switched off by setting 'verbatim_writeout .false.' .
  in the first line of geometry.in .
  -----------------------------------------------------------------------
  
  atom  0.00000 0.00000 0.00000 C
  atom  1.09300 0.00000 0.00000 H
  atom  -0.47961 0.00000 -1.41207 N
  atom  -0.59391 0.96683 -1.71868 H
  atom  0.21027 -0.47366 -1.99158 H
  atom  -0.49584 1.26211 0.72868 C
  atom  0.31066 1.70326 1.31902 H
  atom  -0.84503 2.00581 0.00858 H
  atom  -1.32166 1.01524 1.39998 H
  atom  -0.39425 -1.28861 0.74398 C
  atom  -0.03277 -1.60355 1.85276 O
  atom  -1.18431 -2.09124 0.10496 O
  atom  -1.02894 -1.75689 -0.79451 H
  
  -----------------------------------------------------------------------
  Completed first pass over input file geometry.in .
  -----------------------------------------------------------------------
  

  Basic array size parameters:
  | Number of species                 :        4
  | Number of atoms                   :       13
  | Max. basis fn. angular momentum   :        2
  | Max. atomic/ionic basis occupied n:        2
  | Max. number of basis fn. types    :        2
  | Max. radial fns per species/type  :        3
  | Max. logarithmic grid size        :     1301
  | Max. radial integration grid size :       36
  | Max. angular integration grid size:      302
  | Max. angular grid division number :        8
  | Radial grid for Hartree potential :     1301
  | Number of spin channels           :        1

------------------------------------------------------------
          Reading file control.in.
------------------------------------------------------------
  XC: Using PBE gradient-corrected functionals.
  Spin treatment: No spin polarisation.
  Non-relativistic treatment of kinetic energy.
  Charge =   0.000000E+00: Neutral system requested explicitly.
  Occupation type: Gaussian broadening, width =   0.100000E-01 eV.
  Using pulay charge density mixing.
  Pulay mixing - number of memorized iterations:   10
  Charge density mixing - mixing parameter:     0.2000
  Convergence accuracy of self-consistent charge density:  0.1000E-04
  Convergence accuracy of sum of eigenvalues:  0.1000E-02
  Convergence accuracy of total energy:  0.1000E-05
  Convergence accuracy of forces:  0.1000E-03
  Maximum number of s.-c. iterations  :   100
 
  Reading configuration options for species H                   .
  | Found nuclear charge :   1.0000
  | Found atomic mass :    1.00794000000000      amu
  | Found l_max for Hartree potential  :   4
  | Found cutoff potl. onset [A], width [A], scale factor :    3.50000    1.50000    1.00000
  | Threshold for basis-dependent cutoff potential is   0.100000E-03
  | Found data for basic radial integration grid :    24 points, outermost radius =    5.000 A
  | Found multiplier for basic radial grid :   1
  | Found angular grid specification: user-specified.
  | Specified grid contains     5 separate shells.
  | Check grid settings after all constraints further below.
  | Found free-atom valence shell :  1 s   1.000
  | No ionic wave fns used. Skipping ion_occ.
  | Found hydrogenic basis function :  2 s   2.100
  | Found hydrogenic basis function :  2 p   3.500
  Species H                   : Missing cutoff potential type.
  Defaulting to exp(1/x)/(1-x)^2 type cutoff potential.
  Species H : No 'logarithmic' tag. Using default grid for free atom:
  | Default logarithmic grid data [bohr] : 0.1000E-03 0.1000E+03 0.1012E+01
  Species H : On-site basis accuracy parameter (for Gram-Schmidt orthonormalisation) not specified.
  Using default value basis_acc =  0.1000000E-03.
  Species H                   : Using default innermost maximum threshold i_radial=  2 for radial functions.
  Species H                   : Default cutoff onset for free atom density etc. : 0.35000000E+01 AA.
  Species H                   : Basic radial grid will be enhanced according to radial_multiplier =   1, to contain    24 grid points.
 
  Reading configuration options for species C                   .
  | Found nuclear charge :   6.0000
  | Found atomic mass :    12.0107000000000      amu
  | Found l_max for Hartree potential  :   4
  | Found cutoff potl. onset [A], width [A], scale factor :    3.50000    1.50000    1.00000
  | Threshold for basis-dependent cutoff potential is   0.100000E-03
  | Found data for basic radial integration grid :    34 points, outermost radius =    5.000 A
  | Found multiplier for basic radial grid :   1
  | Found angular grid specification: user-specified.
  | Specified grid contains     5 separate shells.
  | Check grid settings after all constraints further below.
  | Found free-atom valence shell :  2 s   2.000
  | Found free-atom valence shell :  2 p   2.000
  | No ionic wave fns used. Skipping ion_occ.
  | No ionic wave fns used. Skipping ion_occ.
  | Found hydrogenic basis function :  2 p   1.700
  | Found hydrogenic basis function :  3 d   6.000
  | Found hydrogenic basis function :  2 s   4.900
  Species C                   : Missing cutoff potential type.
  Defaulting to exp(1/x)/(1-x)^2 type cutoff potential.
  Species C : No 'logarithmic' tag. Using default grid for free atom:
  | Default logarithmic grid data [bohr] : 0.1000E-03 0.1000E+03 0.1012E+01
  Species C : On-site basis accuracy parameter (for Gram-Schmidt orthonormalisation) not specified.
  Using default value basis_acc =  0.1000000E-03.
  Species C                   : Using default innermost maximum threshold i_radial=  2 for radial functions.
  Species C                   : Default cutoff onset for free atom density etc. : 0.35000000E+01 AA.
  Species C                   : Basic radial grid will be enhanced according to radial_multiplier =   1, to contain    34 grid points.
 
  Reading configuration options for species N                   .
  | Found nuclear charge :   7.0000
  | Found atomic mass :    14.0067000000000      amu
  | Found l_max for Hartree potential  :   4
  | Found cutoff potl. onset [A], width [A], scale factor :    3.50000    1.50000    1.00000
  | Threshold for basis-dependent cutoff potential is   0.100000E-03
  | Found data for basic radial integration grid :    35 points, outermost radius =    5.000 A
  | Found multiplier for basic radial grid :   1
  | Found angular grid specification: user-specified.
  | Specified grid contains     5 separate shells.
  | Check grid settings after all constraints further below.
  | Found free-atom valence shell :  2 s   2.000
  | Found free-atom valence shell :  2 p   3.000
  | No ionic wave fns used. Skipping ion_occ.
  | No ionic wave fns used. Skipping ion_occ.
  | Found hydrogenic basis function :  2 p   1.800
  | Found hydrogenic basis function :  3 d   6.800
  | Found hydrogenic basis function :  3 s   5.800
  Species N                   : Missing cutoff potential type.
  Defaulting to exp(1/x)/(1-x)^2 type cutoff potential.
  Species N : No 'logarithmic' tag. Using default grid for free atom:
  | Default logarithmic grid data [bohr] : 0.1000E-03 0.1000E+03 0.1012E+01
  Species N : On-site basis accuracy parameter (for Gram-Schmidt orthonormalisation) not specified.
  Using default value basis_acc =  0.1000000E-03.
  Species N                   : Using default innermost maximum threshold i_radial=  2 for radial functions.
  Species N                   : Default cutoff onset for free atom density etc. : 0.35000000E+01 AA.
  Species N                   : Basic radial grid will be enhanced according to radial_multiplier =   1, to contain    35 grid points.
 
  Reading configuration options for species O                   .
  | Found nuclear charge :   8.0000
  | Found atomic mass :    15.9994000000000      amu
  | Found l_max for Hartree potential  :   4
  | Found cutoff potl. onset [A], width [A], scale factor :    3.50000    1.50000    1.00000
  | Threshold for basis-dependent cutoff potential is   0.100000E-03
  | Found data for basic radial integration grid :    36 points, outermost radius =    5.000 A
  | Found multiplier for basic radial grid :   1
  | Found angular grid specification: user-specified.
  | Specified grid contains     5 separate shells.
  | Check grid settings after all constraints further below.
  | Found free-atom valence shell :  2 s   2.000
  | Found free-atom valence shell :  2 p   4.000
  | No ionic wave fns used. Skipping ion_occ.
  | No ionic wave fns used. Skipping ion_occ.
  | Found hydrogenic basis function :  2 p   1.800
  | Found hydrogenic basis function :  3 d   7.600
  | Found hydrogenic basis function :  3 s   6.400
  Species O                   : Missing cutoff potential type.
  Defaulting to exp(1/x)/(1-x)^2 type cutoff potential.
  Species O : No 'logarithmic' tag. Using default grid for free atom:
  | Default logarithmic grid data [bohr] : 0.1000E-03 0.1000E+03 0.1012E+01
  Species O : On-site basis accuracy parameter (for Gram-Schmidt orthonormalisation) not specified.
  Using default value basis_acc =  0.1000000E-03.
  Species O                   : Using default innermost maximum threshold i_radial=  2 for radial functions.
  Species O                   : Default cutoff onset for free atom density etc. : 0.35000000E+01 AA.
  Species O                   : Basic radial grid will be enhanced according to radial_multiplier =   1, to contain    36 grid points.
 
  Finished reading input file 'control.in'. Consistency checks are next.
 
  MPI_IN_PLACE appears to work with this MPI implementation.
  | Keeping use_mpi_in_place .true. (see manual).
  Target number of points in a grid batch is not set. Defaulting to  100
  Method for grid partitioning is not set. Defaulting to parallel hash+maxmin partitioning.
  Batch size limit is not set. Defaulting to    200
  By default, will store active basis functions for each batch.
  If in need of memory, prune_basis_once .false. can be used to disable this option.
  communication_type for Hartree potential was not specified.
  Defaulting to calc_hartree .
  Pulay mixer: Number of initial linear mixing iterations not set.
  Defaulting to    0 iterations.
  Work space size for distributed Hartree potential not set.
  Defaulting to   0.200000E+03 MB.
  Algorithm-dependent basis array size parameters:
  | n_max_pulay                         :       10
  Presetting      1001 iterations before the initial mixing cycle
  is restarted anyway using the sc_init_iter criterion / keyword.
  Presetting a factor      1.000 between actual scf density residual
  and density convergence criterion sc_accuracy_rho below which sc_init_iter
  takes no effect.
  Geometry relaxation not requested: no relaxation will be performed.
  Handling of forces: Unphysical translation and rotation will be removed from forces.
  No accuracy limit for integral partition fn. given. Defaulting to  0.1000E-14.
  No threshold value for u(r) in integrations given. Defaulting to  0.1000E-05.
  No accuracy for occupation numbers given. Defaulting to  0.1000E-12.
  No threshold value for occupation numbers given. Defaulting to  0.0000E+00.
  No accuracy for fermi level given. Defaulting to  0.1000E-19.
  Maximum # of iterations to find E_F not set. Defaulting to  200.
  Preferred method for the eigenvalue solver ('KS_method') not specified in 'control.in'.
  Calling BLACS routine to test compilation state
  Since ScaLAPACK support is enabled, defaulting to 'elsi'.
  Will not use alltoall communication since running on < 1024 CPUs.
  Threshold for basis singularities not set.
  Default threshold for basis singularities:  0.1000E-04
  partition_type (choice of integration weights) for integrals was not specified.
  | Using a version of the partition function of Stratmann and coworkers ('stratmann_smoother').
  | At each grid point, the set of atoms used to build the partition table is smoothly restricted to
  | only those atoms whose free-atom density would be non-zero at that grid point.
  Partitioning for Hartree potential was not defined. Using partition_type for integrals.
  | Adjusted default value of keyword multip_moments_threshold to:       0.10000000E-11
  | This value may affect high angular momentum components of the Hartree potential in periodic systems.
  No q(lm)/r^(l+1) cutoff set for long-range Hartree potential.
  | Using default value of  0.100000E-09 .
  | Verify using the multipole_threshold keyword.
  Defaulting to new monopole extrapolation.
  Density update method: automatic selection selected.
------------------------------------------------------------


------------------------------------------------------------
          Reading geometry description geometry.in.
------------------------------------------------------------
  Input structure read successfully.
  The structure contains       13 atoms,  and a total of         48.000 electrons.

  Input geometry:
  | No unit cell requested.
  | Atomic structure:
  |       Atom                x [A]            y [A]            z [A]
  |    1: Species C             0.00000000        0.00000000        0.00000000
  |    2: Species H             1.09300000        0.00000000        0.00000000
  |    3: Species N            -0.47961000        0.00000000       -1.41207000
  |    4: Species H            -0.59391000        0.96683000       -1.71868000
  |    5: Species H             0.21027000       -0.47366000       -1.99158000
  |    6: Species C            -0.49584000        1.26211000        0.72868000
  |    7: Species H             0.31066000        1.70326000        1.31902000
  |    8: Species H            -0.84503000        2.00581000        0.00858000
  |    9: Species H            -1.32166000        1.01524000        1.39998000
  |   10: Species C            -0.39425000       -1.28861000        0.74398000
  |   11: Species O            -0.03277000       -1.60355000        1.85276000
  |   12: Species O            -1.18431000       -2.09124000        0.10496000
  |   13: Species H            -1.02894000       -1.75689000       -0.79451000
  |

  | The smallest distance between any two atoms is         0.97209878 AA.
  |
  | The first atom of this pair is atom number                     12 .
  | The second atom of this pair is atom number                    13 .

  Number of empty states per atom not set in control.in - providing a guess from actual geometry.
  | Total number of empty states used during s.c.f. cycle:       29
  If you use a very high smearing, use empty_states (per atom!) in control.in to increase this value.

  Structure-dependent array size parameters: 
  | Maximum number of distinct radial functions  :       21
  | Maximum number of basis functions            :      119
  | Number of Kohn-Sham states (occupied + empty):       53
------------------------------------------------------------

------------------------------------------------------------
          Preparing all fixed parts of the calculation.
------------------------------------------------------------
  Determining machine precision:
    2.225073858507201E-308
  Setting up grids for atomic and cluster calculations.

  Creating wave function, potential, and density for free atoms.

  Species: H

  List of occupied orbitals and eigenvalues:
    n    l              occ      energy [Ha]    energy [eV]
    1    0           1.0000        -0.237589        -6.4651


  Species: C

  List of occupied orbitals and eigenvalues:
    n    l              occ      energy [Ha]    energy [eV]
    1    0           2.0000       -10.038835      -273.1706
    2    0           2.0000        -0.502696       -13.6791
    2    1           2.0000        -0.191971        -5.2238


  Species: N

  List of occupied orbitals and eigenvalues:
    n    l              occ      energy [Ha]    energy [eV]
    1    0           2.0000       -14.128000      -384.4424
    2    0           2.0000        -0.681077       -18.5330
    2    1           3.0000        -0.259788        -7.0692


  Species: O

  List of occupied orbitals and eigenvalues:
    n    l              occ      energy [Ha]    energy [eV]
    1    0           2.0000       -18.898188      -514.2459
    2    0           2.0000        -0.878505       -23.9053
    2    1           4.0000        -0.331779        -9.0282

  Creating fixed part of basis set: Ionic, confined, hydrogenic.
 
  H                    hydrogenic:
 
  List of hydrogenic basis orbitals: 
    n    l      effective z      eigenvalue [eV]  inner max. [A]     outer max. [A]     outer radius [A]   
    2    0         2.100000       -14.9728           0.193243           1.317208           4.583499
    2    1         3.500000       -41.6669           0.602369           0.602369           3.723403
 
 
  C                    hydrogenic:
 
  List of hydrogenic basis orbitals: 
    n    l      effective z      eigenvalue [eV]  inner max. [A]     outer max. [A]     outer radius [A]   
    2    1         1.700000        -9.7616           1.230570           1.230570           4.607917
    3    2         6.000000       -54.4224           0.792453           0.792453           3.883070
    2    0         4.900000       -81.6679           0.082559           0.562749           3.078220
 
 
  N                    hydrogenic:
 
  List of hydrogenic basis orbitals: 
    n    l      effective z      eigenvalue [eV]  inner max. [A]     outer max. [A]     outer radius [A]   
    2    1         1.800000       -10.9749           1.177451           1.177451           4.573712
    3    2         6.800000       -69.9026           0.704619           0.704619           3.538137
    3    0         5.800000       -50.8545           0.067388           1.191934           4.250239
 
 
  O                    hydrogenic:
 
  List of hydrogenic basis orbitals: 
    n    l      effective z      eigenvalue [eV]  inner max. [A]     outer max. [A]     outer radius [A]   
    2    1         1.800000       -10.9749           1.164242           1.164242           4.578029
    3    2         7.600000       -87.3180           0.624125           0.624125           3.251020
    3    0         6.400000       -61.9207           0.061167           1.081902           4.001998
 

  Adding cutoff potential to free-atom effective potential.
  Creating atomic-like basis functions for current effective potential.

  Species H                   :

  List of atomic basis orbitals and eigenvalues:
    n    l      energy [Ha]    energy [eV]    outer radius [A]
    1    0        -0.237589        -6.4651       4.527807


  Species C                   :

  List of atomic basis orbitals and eigenvalues:
    n    l      energy [Ha]    energy [eV]    outer radius [A]
    1    0       -10.038835      -273.1706       1.934409
    2    0        -0.502696       -13.6791       4.496620
    2    1        -0.191971        -5.2238       4.551928


  Species N                   :

  List of atomic basis orbitals and eigenvalues:
    n    l      energy [Ha]    energy [eV]    outer radius [A]
    1    0       -14.128000      -384.4424       1.637919
    2    0        -0.681077       -18.5330       4.463241
    2    1        -0.259788        -7.0692       4.518138


  Species O                   :

  List of atomic basis orbitals and eigenvalues:
    n    l      energy [Ha]    energy [eV]    outer radius [A]
    1    0       -18.898188      -514.2459       1.415765
    2    0        -0.878505       -23.9053       4.413171
    2    1        -0.331779        -9.0282       4.522403

  Assembling full basis from fixed parts.
  | Species H :   atomic orbital   1 s accepted.
  | Species H :    hydro orbital   2 s accepted.
  | Species H :    hydro orbital   2 p accepted.
  | Species C :   atomic orbital   1 s accepted.
  | Species C :    hydro orbital   2 s accepted.
  | Species C :   atomic orbital   2 s accepted.
  | Species C :   atomic orbital   2 p accepted.
  | Species C :    hydro orbital   2 p accepted.
  | Species C :    hydro orbital   3 d accepted.
  | Species N :   atomic orbital   1 s accepted.
  | Species N :    hydro orbital   3 s accepted.
  | Species N :   atomic orbital   2 s accepted.
  | Species N :   atomic orbital   2 p accepted.
  | Species N :    hydro orbital   2 p accepted.
  | Species N :    hydro orbital   3 d accepted.
  | Species O :   atomic orbital   1 s accepted.
  | Species O :    hydro orbital   3 s accepted.
  | Species O :   atomic orbital   2 s accepted.
  | Species O :   atomic orbital   2 p accepted.
  | Species O :    hydro orbital   2 p accepted.
  | Species O :    hydro orbital   3 d accepted.
 
  Basis size parameters after reduction:
  | Total number of radial functions:       21
  | Total number of basis functions :      119
 
  Per-task memory consumption for arrays in subroutine allocate_ext:
  |           5.250512MB.
  Testing on-site integration grid accuracy.
  |  Species  Function  <phi|h_atom|phi> (log., in eV)  <phi|h_atom|phi> (rad., in eV)
           1        1                 -6.4663192853                 -6.4651273558
           1        2                 13.7111246313                 13.7170609718
           1        3                 25.2673269279                 25.2674696378
           2        4               -273.1705927641               -273.1705631568
           2        5                -10.7109323383                -10.7107120029
           2        6                 17.4381822266                 17.4352413244
           2        7                 -5.2255326521                 -5.2270484734
           2        8                  8.6835629259                  8.6603288385
           2        9                 27.4952418996                 27.4953360207
           3       10               -384.4424306495               -384.4423701208
           3       11                 12.5842251816                 12.5842222903
           3       12                -15.7264628251                -15.7264433455
           3       13                 -7.0696854293                 -7.0701769954
           3       14                  8.8090390882                  8.7901077751
           3       15                 35.9586762123                 35.9588528632
           4       16               -514.2458688638               -514.2457643834
           4       17                 15.1795651126                 15.1795290741
           4       18                -21.5359799773                -21.5360846186
           4       19                 -9.0283069236                 -9.0284644067
           4       20                  8.3027758564                  8.2834874195
           4       21                 45.8339351984                 45.8338762259

  Preparing densities etc. for the partition functions (integrals / Hartree potential).

  Preparations completed.
  max(cpu_time)          :      0.165 s.
  Wall clock time (cpu1) :      0.165 s.
------------------------------------------------------------

------------------------------------------------------------
          Begin self-consistency loop: Initialization.

          Date     :  20200601, Time     :  010727.595
------------------------------------------------------------

  Initializing index lists of integration centers etc. from given atomic structure:
  | Number of centers in hartree potential         :        13
  | Number of centers in hartree multipole         :        13
  | Number of centers in electron density summation:        13
  | Number of centers in basis integrals           :        13
  | Number of centers in integrals                 :        13
  | Number of centers in hamiltonian               :        13
  * Using 20 tasks for Scalapack Eigenvalue solver.
  Detailed listing of tasks and assigned k-points:
  (for non-periodic systems, the "k-point" denotes an internal label only)
   Task     0 k-point     1 on r01c25.bullx
   Task     1 k-point     1 on r01c25.bullx
   Task     2 k-point     1 on r01c25.bullx
   Task     3 k-point     1 on r01c25.bullx
   Task     4 k-point     1 on r01c25.bullx
   Task     5 k-point     1 on r01c25.bullx
   Task     6 k-point     1 on r01c25.bullx
   Task     7 k-point     1 on r01c25.bullx
   Task     8 k-point     1 on r01c25.bullx
   Task     9 k-point     1 on r01c25.bullx
   Task    10 k-point     1 on r01c25.bullx
   Task    11 k-point     1 on r01c25.bullx
   Task    12 k-point     1 on r01c25.bullx
   Task    13 k-point     1 on r01c25.bullx
   Task    14 k-point     1 on r01c25.bullx
   Task    15 k-point     1 on r01c25.bullx
   Task    16 k-point     1 on r01c25.bullx
   Task    17 k-point     1 on r01c25.bullx
   Task    18 k-point     1 on r01c25.bullx
   Task    19 k-point     1 on r01c25.bullx
  Tasks:    20 split into      5 X      4 BLACS grid
  Calculating block size based on n_basis =          119  max_nprow =            5  max_npcol =            4
  ScaLAPACK block size set to:           16
  Allocating        0.008 MB for ovlp
  Allocating        0.008 MB for ham
  Allocating        0.008 MB for eigenvec
  Required Scalapack workspace - INTEGER:            1  REAL:             1
  Partitioning the integration grid into batches with parallel hashing+maxmin method.
  | Number of batches:      935
  | Maximal batch size:     193
  | Minimal batch size:      49
  | Average batch size:      74.488
  | Standard deviation of batch sizes:      23.370

  Integration load balanced across    20 MPI tasks.
  Work distribution over tasks is as follows:
  Task     0 has       3463 integration points.
  Task     1 has       3461 integration points.
  Task     2 has       3595 integration points.
  Task     3 has       3424 integration points.
  Task     4 has       3490 integration points.
  Task     5 has       3462 integration points.
  Task     6 has       3458 integration points.
  Task     7 has       3457 integration points.
  Task     8 has       3458 integration points.
  Task     9 has       3466 integration points.
  Task    10 has       3465 integration points.
  Task    11 has       3520 integration points.
  Task    12 has       3426 integration points.
  Task    13 has       3468 integration points.
  Task    14 has       3462 integration points.
  Task    15 has       3493 integration points.
  Task    16 has       3471 integration points.
  Task    17 has       3512 integration points.
  Task    18 has       3583 integration points.
  Task    19 has       3512 integration points.
  Initializing partition tables, free-atom densities, potentials, etc. across the integration grid (initialize_grid_storage).
  | initialize_grid_storage: Actual outermost partition radius vs. multipole_radius_free
  | (-- VB: in principle, multipole_radius_free should be larger, hence this output)
  | Species        1: Confinement radius =              4.999999999999999 AA, multipole_radius_free =              5.054417573612229 AA.
  | Species        1: outer_partition_radius set to              5.054417573612229 AA .
  | Species        2: Confinement radius =              4.999999999999999 AA, multipole_radius_free =              5.019602836301480 AA.
  | Species        2: outer_partition_radius set to              5.019602836301480 AA .
  | Species        3: Confinement radius =              4.999999999999999 AA, multipole_radius_free =              5.043624274424571 AA.
  | Species        3: outer_partition_radius set to              5.043624274424571 AA .
  | Species        4: Confinement radius =              4.999999999999999 AA, multipole_radius_free =              5.048384829883283 AA.
  | Species        4: outer_partition_radius set to              5.048384829883283 AA .
  | Original list of interatomic distances with          13 x         13 entries is created.
  | Net number of integration points:    69646
  | of which are non-zero points    :    59576
  Renormalizing the initial density to the exact electron count on the 3D integration grid.
  | Initial density: Formal number of electrons (from input files) :      48.0000000000
  | Integrated number of electrons on 3D grid     :      47.9998843606
  | Charge integration error                      :      -0.0001156394
  | Normalization factor for density and gradient :       1.0000024092
  Obtaining max. number of non-zero basis functions in each batch (get_n_compute_maxes).
  | Maximal number of non-zero basis functions:      118 in task     0
  | Maximal number of non-zero basis functions:      118 in task     1
  | Maximal number of non-zero basis functions:      119 in task     2
  | Maximal number of non-zero basis functions:      118 in task     3
  | Maximal number of non-zero basis functions:      118 in task     4
  | Maximal number of non-zero basis functions:      118 in task     5
  | Maximal number of non-zero basis functions:      118 in task     6
  | Maximal number of non-zero basis functions:      118 in task     7
  | Maximal number of non-zero basis functions:      118 in task     8
  | Maximal number of non-zero basis functions:      118 in task     9
  | Maximal number of non-zero basis functions:      118 in task    10
  | Maximal number of non-zero basis functions:      118 in task    11
  | Maximal number of non-zero basis functions:      119 in task    12
  | Maximal number of non-zero basis functions:      118 in task    13
  | Maximal number of non-zero basis functions:      118 in task    14
  | Maximal number of non-zero basis functions:      117 in task    15
  | Maximal number of non-zero basis functions:      118 in task    16
  | Maximal number of non-zero basis functions:      118 in task    17
  | Maximal number of non-zero basis functions:      119 in task    18
  | Maximal number of non-zero basis functions:      118 in task    19
  Selecting the method for density update.
  Loop over occupied states selected for charge density update.
  Allocating        0.050 MB for KS_eigenvector
  Integrating Hamiltonian matrix: batch-based integration.
  Time summed over all CPUs for integration: real work        0.520 s, elapsed        0.544 s
  Integrating overlap matrix.
  Time summed over all CPUs for integration: real work        0.218 s, elapsed        0.229 s
  Deallocating overlap matrix.

  Updating Kohn-Sham eigenvalues and eigenvectors using ELSI and the ELPA eigensolver.
  ELPA settings:
  | ELPA solver          1
  | Time full => band           :     0.001 s
  | Time band => tridiagonal    :     0.001 s
  | Time solve tridiagonal      :     0.001 s
  Overlap matrix is nonsingular
  | Lowest eigenvalue of overlap  :  0.45E-02
  | Highest eigenvalue of overlap :  0.63E+01
  Finished singularity check of overlap matrix
  | Time :     0.003 s
  Finished Cholesky decomposition
  | Time :     0.001 s
  Finished transformation to standard eigenproblem
  | Time :     0.001 s
  Starting ELPA eigensolver
  | Time full => tridiagonal    :     0.002 s
  | Time solve tridiagonal      :     0.000 s
  | Time ev tridiagonal => full :     0.000 s
  Finished solving standard eigenproblem
  | Time :     0.003 s
  Finished back-transformation of eigenvectors
  | Time :     0.000 s

  Obtaining occupation numbers and chemical potential using ELSI.
  | Chemical potential (Fermi level):    -9.49697163eV
  Writing Kohn-Sham eigenvalues.

  State    Occupation    Eigenvalue [Ha]    Eigenvalue [eV]
      1       2.00000         -19.007506         -517.22056
      2       2.00000         -18.977106         -516.39332
      3       2.00000         -14.247564         -387.69594
      4       2.00000         -10.166819         -276.65323
      5       2.00000         -10.141951         -275.97652
      6       2.00000         -10.131961         -275.70468
      7       2.00000          -1.181446          -32.14878
      8       2.00000          -1.101204          -29.96529
      9       2.00000          -0.993976          -27.04747
     10       2.00000          -0.860547          -23.41667
     11       2.00000          -0.755575          -20.56024
     12       2.00000          -0.680918          -18.52872
     13       2.00000          -0.630700          -17.16221
     14       2.00000          -0.611080          -16.62834
     15       2.00000          -0.593679          -16.15482
     16       2.00000          -0.559844          -15.23414
     17       2.00000          -0.556236          -15.13596
     18       2.00000          -0.519695          -14.14163
     19       2.00000          -0.514650          -14.00434
     20       2.00000          -0.504236          -13.72097
     21       2.00000          -0.473814          -12.89314
     22       2.00000          -0.427990          -11.64621
     23       2.00000          -0.416242          -11.32651
     24       2.00000          -0.383771          -10.44295
     25       0.00000          -0.149449           -4.06671
     26       0.00000          -0.066177           -1.80076
     27       0.00000          -0.046371           -1.26181
     28       0.00000          -0.019731           -0.53692
     29       0.00000          -0.008656           -0.23554
     30       0.00000           0.003174            0.08636
     31       0.00000           0.017353            0.47220
     32       0.00000           0.036216            0.98549
     33       0.00000           0.080572            2.19248
     34       0.00000           0.095673            2.60339
     35       0.00000           0.101893            2.77264
     36       0.00000           0.121529            3.30697
     37       0.00000           0.161268            4.38833
     38       0.00000           0.199341            5.42434
     39       0.00000           0.211045            5.74283
     40       0.00000           0.215660            5.86840
     41       0.00000           0.251577            6.84577
     42       0.00000           0.259009            7.04800
     43       0.00000           0.291297            7.92659
     44       0.00000           0.297962            8.10795
     45       0.00000           0.337644            9.18776
     46       0.00000           0.354803            9.65468
     47       0.00000           0.409452           11.14176
     48       0.00000           0.417161           11.35153
     49       0.00000           0.441062           12.00190
     50       0.00000           0.449215           12.22376
     51       0.00000           0.489582           13.32219
     52       0.00000           0.508572           13.83895
     53       0.00000           0.568624           15.47304

  Highest occupied state (VBM) at    -10.44294570 eV
  | Occupation number:      2.00000000

  Lowest unoccupied state (CBM) at    -4.06670845 eV
  | Occupation number:      0.00000000

  Overall HOMO-LUMO gap:      6.37623725 eV.
  Calculating total energy contributions from superposition of free atom densities.

  Total energy components:
  | Sum of eigenvalues            :        -188.87702174 Ha       -5139.60526173 eV
  | XC energy correction          :         -41.80390188 Ha       -1137.54204764 eV
  | XC potential correction       :          53.74094207 Ha        1462.36543797 eV
  | Free-atom electrostatic energy:        -146.82358495 Ha       -3995.27302384 eV
  | Hartree energy correction     :           0.00000000 Ha           0.00000000 eV
  | vdW energy correction         :           0.00000000 Ha           0.00000000 eV
  | Entropy correction            :           0.00000000 Ha           0.00000000 eV
  | ---------------------------
  | Total energy                  :        -323.76356650 Ha       -8810.05489524 eV
  | Total energy, T -> 0          :        -323.76356650 Ha       -8810.05489524 eV  <-- do not rely on this value for anything but (periodic) metals
  | Electronic free energy        :        -323.76356650 Ha       -8810.05489524 eV

  Derived energy quantities:
  | Kinetic energy                :         320.52375220 Ha        8721.89506236 eV
  | Electrostatic energy          :        -602.48341682 Ha      -16394.40790996 eV
  | Energy correction for multipole
  | error in Hartree potential    :           0.00000000 Ha           0.00000000 eV
  | Sum of eigenvalues per atom                           :        -395.35425090 eV
  | Total energy (T->0) per atom                          :        -677.69653040 eV  <-- do not rely on this value for anything but (periodic) metals
  | Electronic free energy per atom                       :        -677.69653040 eV
  Initialize hartree_potential_storage
  Max. number of atoms included in rho_multipole:           13

  End scf initialization - timings             :  max(cpu_time)    wall_clock(cpu1)
  | Time for scf. initialization               :        0.097 s           0.097 s
  | Boundary condition initialization          :        0.000 s           0.000 s
  | Integration                                :        0.040 s           0.040 s
  | Solution of K.-S. eqns.                    :        0.010 s           0.010 s
  | Grid partitioning                          :        0.024 s           0.024 s
  | Preloading free-atom quantities on grid    :        0.002 s           0.003 s
  | Free-atom superposition energy             :        0.005 s           0.005 s
  | Total energy evaluation                    :        0.000 s           0.000 s

  Partial memory accounting:
  | Current value for overall tracked memory usage on task 0  :           0.133 MB
  | Peak value for overall tracked memory usage on task 0     :           0.851 MB after allocating wave
  | Largest tracked array allocation on task 0 so far         :           0.182 MB  when allocating H_times_psi
  Note:  These values currently only include a subset of arrays which are explicitly tracked.
  The "true" memory usage will be greater.
------------------------------------------------------------

------------------------------------------------------------
          Begin self-consistency iteration #    1

  Date     :  20200601, Time     :  010727.692
------------------------------------------------------------
  Evaluating new KS density.
  Integration grid: deviation in total charge (<rho> - N_e) =   7.105427E-15
  Pulay mixing of updated and previous charge densities.

  Evaluating partitioned Hartree potential by multipole expansion.
  | Analytical far-field extrapolation by fixed multipoles:
  | Hartree multipole sum: apparent total charge =  -0.216388E-03
  Summing up the Hartree potential.
  Time summed over all CPUs for potential: real work        0.420 s, elapsed        0.432 s
  | RMS charge density error from multipole expansion :   0.593188E-02

  Integrating Hamiltonian matrix: batch-based integration.
  Time summed over all CPUs for integration: real work        0.511 s, elapsed        0.534 s

  Updating Kohn-Sham eigenvalues and eigenvectors using ELSI and the ELPA eigensolver.
  ELPA settings:
  | ELPA solver          1
  Finished transformation to standard eigenproblem
  | Time :     0.000 s
  Starting ELPA eigensolver
  | Time full => tridiagonal    :     0.002 s
  | Time solve tridiagonal      :     0.000 s
  | Time ev tridiagonal => full :     0.000 s
  Finished solving standard eigenproblem
  | Time :     0.003 s
  Finished back-transformation of eigenvectors
  | Time :     0.000 s

  Obtaining occupation numbers and chemical potential using ELSI.
  | Chemical potential (Fermi level):    -4.42975251eV
  Writing Kohn-Sham eigenvalues.

  State    Occupation    Eigenvalue [Ha]    Eigenvalue [eV]
      1       2.00000         -18.901100         -514.32511
      2       2.00000         -18.828312         -512.34443
      3       2.00000         -14.112624         -384.02404
      4       2.00000         -10.110758         -275.12772
      5       2.00000         -10.068241         -273.97078
      6       2.00000         -10.035316         -273.07485
      7       2.00000          -1.128195          -30.69976
      8       2.00000          -1.032593          -28.09828
      9       2.00000          -0.933142          -25.39208
     10       2.00000          -0.798992          -21.74168
     11       2.00000          -0.705183          -19.18902
     12       2.00000          -0.632379          -17.20791
     13       2.00000          -0.576851          -15.69691
     14       2.00000          -0.562564          -15.30813
     15       2.00000          -0.534040          -14.53197
     16       2.00000          -0.507529          -13.81057
     17       2.00000          -0.487043          -13.25313
     18       2.00000          -0.463284          -12.60660
     19       2.00000          -0.455454          -12.39353
     20       2.00000          -0.445149          -12.11312
     21       2.00000          -0.417854          -11.37038
     22       2.00000          -0.361742           -9.84349
     23       2.00000          -0.346503           -9.42883
     24       2.00000          -0.315552           -8.58661
     25       0.00000          -0.108386           -2.94932
     26       0.00000          -0.043793           -1.19168
     27       0.00000          -0.009396           -0.25568
     28       0.00000           0.011403            0.31030
     29       0.00000           0.021673            0.58976
     30       0.00000           0.032816            0.89296
     31       0.00000           0.053260            1.44928
     32       0.00000           0.067247            1.82987
     33       0.00000           0.114910            3.12686
     34       0.00000           0.134215            3.65218
     35       0.00000           0.141948            3.86260
     36       0.00000           0.150551            4.09669
     37       0.00000           0.192232            5.23090
     38       0.00000           0.232143            6.31693
     39       0.00000           0.238048            6.47762
     40       0.00000           0.249221            6.78166
     41       0.00000           0.283961            7.72696
     42       0.00000           0.290797            7.91300
     43       0.00000           0.328058            8.92690
     44       0.00000           0.337653            9.18801
     45       0.00000           0.381298           10.37565
     46       0.00000           0.388321           10.56674
     47       0.00000           0.442284           12.03515
     48       0.00000           0.454410           12.36512
     49       0.00000           0.477469           12.99260
     50       0.00000           0.483844           13.16606
     51       0.00000           0.524731           14.27865
     52       0.00000           0.544787           14.82441
     53       0.00000           0.598930           16.29770

  Highest occupied state (VBM) at     -8.58661446 eV
  | Occupation number:      2.00000000

  Lowest unoccupied state (CBM) at    -2.94932230 eV
  | Occupation number:      0.00000000

  Overall HOMO-LUMO gap:      5.63729216 eV.

  Total energy components:
  | Sum of eigenvalues            :        -185.52080415 Ha       -5048.27793457 eV
  | XC energy correction          :         -42.12835529 Ha       -1146.37087418 eV
  | XC potential correction       :          54.16285482 Ha        1473.84626825 eV
  | Free-atom electrostatic energy:        -146.82358495 Ha       -3995.27302384 eV
  | Hartree energy correction     :          -3.27804377 Ha         -89.20010952 eV
  | vdW energy correction         :           0.00000000 Ha           0.00000000 eV
  | Entropy correction            :           0.00000000 Ha           0.00000000 eV
  | ---------------------------
  | Total energy                  :        -323.58793335 Ha       -8805.27567385 eV
  | Total energy, T -> 0          :        -323.58793335 Ha       -8805.27567385 eV  <-- do not rely on this value for anything but (periodic) metals
  | Electronic free energy        :        -323.58793335 Ha       -8805.27567385 eV

  Derived energy quantities:
  | Kinetic energy                :         322.29256609 Ha        8770.02693738 eV
  | Electrostatic energy          :        -603.75214415 Ha      -16428.93173705 eV
  | Energy correction for multipole
  | error in Hartree potential    :           0.01222847 Ha           0.33275355 eV
  | Sum of eigenvalues per atom                           :        -388.32907189 eV
  | Total energy (T->0) per atom                          :        -677.32889799 eV  <-- do not rely on this value for anything but (periodic) metals
  | Electronic free energy per atom                       :        -677.32889799 eV

  Self-consistency convergence accuracy:
  | Change of charge density      :  0.5774E+00
  | Change of sum of eigenvalues  :  0.9133E+02 eV
  | Change of total energy        :  0.4779E+01 eV

  End self-consistency iteration #     1       :  max(cpu_time)    wall_clock(cpu1)
  | Time for this iteration                    :        0.078 s           0.079 s
  | Charge density update                      :        0.022 s           0.023 s
  | Density mixing                             :        0.000 s           0.000 s
  | Hartree multipole update                   :        0.001 s           0.001 s
  | Hartree multipole summation                :        0.022 s           0.023 s
  | Integration                                :        0.027 s           0.027 s
  | Solution of K.-S. eqns.                    :        0.004 s           0.004 s
  | Total energy evaluation                    :        0.000 s           0.001 s

  Partial memory accounting:
  | Current value for overall tracked memory usage on task 0  :           0.133 MB
  | Peak value for overall tracked memory usage on task 0     :           0.862 MB after allocating gradient_basis_wave
  | Largest tracked array allocation on task 0 so far         :           0.547 MB  when allocating gradient_basis_wave
  Note:  These values currently only include a subset of arrays which are explicitly tracked.
  The "true" memory usage will be greater.
------------------------------------------------------------

------------------------------------------------------------
          Begin self-consistency iteration #    2

  Date     :  20200601, Time     :  010727.776
------------------------------------------------------------
  Evaluating new KS density.
  Integration grid: deviation in total charge (<rho> - N_e) =   2.131628E-14
  Pulay mixing of updated and previous charge densities.

  Evaluating partitioned Hartree potential by multipole expansion.
  | Analytical far-field extrapolation by fixed multipoles:
  | Hartree multipole sum: apparent total charge =  -0.344969E-03
  Summing up the Hartree potential.
  Time summed over all CPUs for potential: real work        0.419 s, elapsed        0.430 s
  | RMS charge density error from multipole expansion :   0.141536E-01

  Integrating Hamiltonian matrix: batch-based integration.
  Time summed over all CPUs for integration: real work        0.511 s, elapsed        0.539 s

  Updating Kohn-Sham eigenvalues and eigenvectors using ELSI and the ELPA eigensolver.
  ELPA settings:
  | ELPA solver          1
  Finished transformation to standard eigenproblem
  | Time :     0.000 s
  Starting ELPA eigensolver
  | Time full => tridiagonal    :     0.002 s
  | Time solve tridiagonal      :     0.000 s
  | Time ev tridiagonal => full :     0.000 s
  Finished solving standard eigenproblem
  | Time :     0.003 s
  Finished back-transformation of eigenvectors
  | Time :     0.000 s

  Obtaining occupation numbers and chemical potential using ELSI.
  | Chemical potential (Fermi level):    -3.30415788eV
  Highest occupied state (VBM) at     -6.68022607 eV
  | Occupation number:      2.00000000

  Lowest unoccupied state (CBM) at    -1.53819680 eV
  | Occupation number:      0.00000000

  Overall HOMO-LUMO gap:      5.14202927 eV.

  Checking to see if s.c.f. parameters should be adjusted.

  Total energy components:
  | Sum of eigenvalues            :        -181.97166596 Ha       -4951.70097048 eV
  | XC energy correction          :         -42.48459800 Ha       -1156.06473152 eV
  | XC potential correction       :          54.62451310 Ha        1486.40862904 eV
  | Free-atom electrostatic energy:        -146.82358495 Ha       -3995.27302384 eV
  | Hartree energy correction     :          -6.85636294 Ha        -186.57112835 eV
  | vdW energy correction         :           0.00000000 Ha           0.00000000 eV
  | Entropy correction            :           0.00000000 Ha           0.00000000 eV
  | ---------------------------
  | Total energy                  :        -323.51169876 Ha       -8803.20122515 eV
  | Total energy, T -> 0          :        -323.51169876 Ha       -8803.20122515 eV  <-- do not rely on this value for anything but (periodic) metals
  | Electronic free energy        :        -323.51169876 Ha       -8803.20122515 eV

  Derived energy quantities:
  | Kinetic energy                :         323.60436314 Ha        8805.72275127 eV
  | Electrostatic energy          :        -604.63146390 Ha      -16452.85924490 eV
  | Energy correction for multipole
  | error in Hartree potential    :           0.02691142 Ha           0.73229709 eV
  | Sum of eigenvalues per atom                           :        -380.90007465 eV
  | Total energy (T->0) per atom                          :        -677.16932501 eV  <-- do not rely on this value for anything but (periodic) metals
  | Electronic free energy per atom                       :        -677.16932501 eV

  Self-consistency convergence accuracy:
  | Change of charge density      :  0.3606E+00
  | Change of sum of eigenvalues  :  0.9658E+02 eV
  | Change of total energy        :  0.2074E+01 eV

  End self-consistency iteration #     2       :  max(cpu_time)    wall_clock(cpu1)
  | Time for this iteration                    :        0.079 s           0.077 s
  | Charge density update                      :        0.024 s           0.022 s
  | Density mixing                             :        0.001 s           0.000 s
  | Hartree multipole update                   :        0.001 s           0.002 s
  | Hartree multipole summation                :        0.022 s           0.022 s
  | Integration                                :        0.027 s           0.027 s
  | Solution of K.-S. eqns.                    :        0.004 s           0.004 s
  | Total energy evaluation                    :        0.000 s           0.000 s

  Partial memory accounting:
  | Current value for overall tracked memory usage on task 0  :           0.134 MB
  | Peak value for overall tracked memory usage on task 0     :           0.862 MB after allocating gradient_basis_wave
  | Largest tracked array allocation on task 0 so far         :           0.547 MB  when allocating gradient_basis_wave
  Note:  These values currently only include a subset of arrays which are explicitly tracked.
  The "true" memory usage will be greater.
------------------------------------------------------------

------------------------------------------------------------
          Begin self-consistency iteration #    3

  Date     :  20200601, Time     :  010727.858
------------------------------------------------------------
  Evaluating new KS density.
  Integration grid: deviation in total charge (<rho> - N_e) =   7.105427E-15
  Pulay mixing of updated and previous charge densities.

  Evaluating partitioned Hartree potential by multipole expansion.
  | Analytical far-field extrapolation by fixed multipoles:
  | Hartree multipole sum: apparent total charge =  -0.436464E-03
  Summing up the Hartree potential.
  Time summed over all CPUs for potential: real work        0.419 s, elapsed        0.430 s
  | RMS charge density error from multipole expansion :   0.224862E-01

  Integrating Hamiltonian matrix: batch-based integration.
  Time summed over all CPUs for integration: real work        0.511 s, elapsed        0.536 s

  Updating Kohn-Sham eigenvalues and eigenvectors using ELSI and the ELPA eigensolver.
  ELPA settings:
  | ELPA solver          1
  Finished transformation to standard eigenproblem
  | Time :     0.000 s
  Starting ELPA eigensolver
  | Time full => tridiagonal    :     0.002 s
  | Time solve tridiagonal      :     0.000 s
  | Time ev tridiagonal => full :     0.000 s
  Finished solving standard eigenproblem
  | Time :     0.003 s
  Finished back-transformation of eigenvectors
  | Time :     0.000 s

  Obtaining occupation numbers and chemical potential using ELSI.
  | Chemical potential (Fermi level):    -2.64643892eV
  Highest occupied state (VBM) at     -6.02686034 eV
  | Occupation number:      2.00000000

  Lowest unoccupied state (CBM) at    -0.76379489 eV
  | Occupation number:      0.00000000

  Overall HOMO-LUMO gap:      5.26306544 eV.

  Total energy components:
  | Sum of eigenvalues            :        -180.62269450 Ha       -4914.99358935 eV
  | XC energy correction          :         -42.63908272 Ha       -1160.26847465 eV
  | XC potential correction       :          54.82142566 Ha        1491.76689249 eV
  | Free-atom electrostatic energy:        -146.82358495 Ha       -3995.27302384 eV
  | Hartree energy correction     :          -8.23540181 Ha        -224.09668510 eV
  | vdW energy correction         :           0.00000000 Ha           0.00000000 eV
  | Entropy correction            :           0.00000000 Ha           0.00000000 eV
  | ---------------------------
  | Total energy                  :        -323.49933832 Ha       -8802.86488044 eV
  | Total energy, T -> 0          :        -323.49933832 Ha       -8802.86488044 eV  <-- do not rely on this value for anything but (periodic) metals
  | Electronic free energy        :        -323.49933832 Ha       -8802.86488044 eV

  Derived energy quantities:
  | Kinetic energy                :         323.20406906 Ha        8794.83019518 eV
  | Electrostatic energy          :        -604.06432466 Ha      -16437.42660097 eV
  | Energy correction for multipole
  | error in Hartree potential    :           0.03803888 Ha           1.03509053 eV
  | Sum of eigenvalues per atom                           :        -378.07642995 eV
  | Total energy (T->0) per atom                          :        -677.14345234 eV  <-- do not rely on this value for anything but (periodic) metals
  | Electronic free energy per atom                       :        -677.14345234 eV

  Self-consistency convergence accuracy:
  | Change of charge density      :  0.2009E+00
  | Change of sum of eigenvalues  :  0.3671E+02 eV
  | Change of total energy        :  0.3363E+00 eV

  End self-consistency iteration #     3       :  max(cpu_time)    wall_clock(cpu1)
  | Time for this iteration                    :        0.077 s           0.076 s
  | Charge density update                      :        0.022 s           0.020 s
  | Density mixing                             :        0.001 s           0.001 s
  | Hartree multipole update                   :        0.001 s           0.001 s
  | Hartree multipole summation                :        0.022 s           0.022 s
  | Integration                                :        0.027 s           0.028 s
  | Solution of K.-S. eqns.                    :        0.004 s           0.004 s
  | Total energy evaluation                    :        0.000 s           0.000 s

  Partial memory accounting:
  | Current value for overall tracked memory usage on task 0  :           0.134 MB
  | Peak value for overall tracked memory usage on task 0     :           0.862 MB after allocating gradient_basis_wave
  | Largest tracked array allocation on task 0 so far         :           0.547 MB  when allocating gradient_basis_wave
  Note:  These values currently only include a subset of arrays which are explicitly tracked.
  The "true" memory usage will be greater.
------------------------------------------------------------

------------------------------------------------------------
          Begin self-consistency iteration #    4

  Date     :  20200601, Time     :  010727.939
------------------------------------------------------------
  Evaluating new KS density.
  Integration grid: deviation in total charge (<rho> - N_e) =   0.000000E+00
  Pulay mixing of updated and previous charge densities.

  Evaluating partitioned Hartree potential by multipole expansion.
  | Analytical far-field extrapolation by fixed multipoles:
  | Hartree multipole sum: apparent total charge =  -0.465107E-03
  Summing up the Hartree potential.
  Time summed over all CPUs for potential: real work        0.411 s, elapsed        0.424 s
  | RMS charge density error from multipole expansion :   0.259183E-01

  Integrating Hamiltonian matrix: batch-based integration.
  Time summed over all CPUs for integration: real work        0.511 s, elapsed        0.538 s

  Updating Kohn-Sham eigenvalues and eigenvectors using ELSI and the ELPA eigensolver.
  ELPA settings:
  | ELPA solver          1
  Finished transformation to standard eigenproblem
  | Time :     0.000 s
  Starting ELPA eigensolver
  | Time full => tridiagonal    :     0.002 s
  | Time solve tridiagonal      :     0.000 s
  | Time ev tridiagonal => full :     0.000 s
  Finished solving standard eigenproblem
  | Time :     0.003 s
  Finished back-transformation of eigenvectors
  | Time :     0.000 s

  Obtaining occupation numbers and chemical potential using ELSI.
  | Chemical potential (Fermi level):    -2.57030523eV
  Highest occupied state (VBM) at     -5.75341627 eV
  | Occupation number:      2.00000000

  Lowest unoccupied state (CBM) at    -0.69316778 eV
  | Occupation number:      0.00000000

  Overall HOMO-LUMO gap:      5.06024849 eV.

  Total energy components:
  | Sum of eigenvalues            :        -180.53183364 Ha       -4912.52113959 eV
  | XC energy correction          :         -42.67270145 Ha       -1161.18328671 eV
  | XC potential correction       :          54.86347775 Ha        1492.91118805 eV
  | Free-atom electrostatic energy:        -146.82358495 Ha       -3995.27302384 eV
  | Hartree energy correction     :          -8.33379626 Ha        -226.77413433 eV
  | vdW energy correction         :           0.00000000 Ha           0.00000000 eV
  | Entropy correction            :           0.00000000 Ha           0.00000000 eV
  | ---------------------------
  | Total energy                  :        -323.49843855 Ha       -8802.84039642 eV
  | Total energy, T -> 0          :        -323.49843855 Ha       -8802.84039642 eV  <-- do not rely on this value for anything but (periodic) metals
  | Electronic free energy        :        -323.49843855 Ha       -8802.84039642 eV

  Derived energy quantities:
  | Kinetic energy                :         322.80339876 Ha        8783.92740148 eV
  | Electrostatic energy          :        -603.62913586 Ha      -16425.58451119 eV
  | Energy correction for multipole
  | error in Hartree potential    :           0.04200613 Ha           1.14304498 eV
  | Sum of eigenvalues per atom                           :        -377.88624151 eV
  | Total energy (T->0) per atom                          :        -677.14156896 eV  <-- do not rely on this value for anything but (periodic) metals
  | Electronic free energy per atom                       :        -677.14156896 eV

  Self-consistency convergence accuracy:
  | Change of charge density      :  0.6376E-01
  | Change of sum of eigenvalues  :  0.2472E+01 eV
  | Change of total energy        :  0.2448E-01 eV

  End self-consistency iteration #     4       :  max(cpu_time)    wall_clock(cpu1)
  | Time for this iteration                    :        0.077 s           0.076 s
  | Charge density update                      :        0.022 s           0.020 s
  | Density mixing                             :        0.001 s           0.001 s
  | Hartree multipole update                   :        0.001 s           0.001 s
  | Hartree multipole summation                :        0.022 s           0.022 s
  | Integration                                :        0.027 s           0.027 s
  | Solution of K.-S. eqns.                    :        0.004 s           0.004 s
  | Total energy evaluation                    :        0.000 s           0.000 s

  Partial memory accounting:
  | Current value for overall tracked memory usage on task 0  :           0.134 MB
  | Peak value for overall tracked memory usage on task 0     :           0.862 MB after allocating gradient_basis_wave
  | Largest tracked array allocation on task 0 so far         :           0.547 MB  when allocating gradient_basis_wave
  Note:  These values currently only include a subset of arrays which are explicitly tracked.
  The "true" memory usage will be greater.
------------------------------------------------------------

------------------------------------------------------------
          Begin self-consistency iteration #    5

  Date     :  20200601, Time     :  010728.020
------------------------------------------------------------
  Evaluating new KS density.
  Integration grid: deviation in total charge (<rho> - N_e) =   1.421085E-14
  Pulay mixing of updated and previous charge densities.

  Evaluating partitioned Hartree potential by multipole expansion.
  | Analytical far-field extrapolation by fixed multipoles:
  | Hartree multipole sum: apparent total charge =  -0.460475E-03
  Summing up the Hartree potential.
  Time summed over all CPUs for potential: real work        0.410 s, elapsed        0.424 s
  | RMS charge density error from multipole expansion :   0.256550E-01

  Integrating Hamiltonian matrix: batch-based integration.
  Time summed over all CPUs for integration: real work        0.510 s, elapsed        0.534 s

  Updating Kohn-Sham eigenvalues and eigenvectors using ELSI and the ELPA eigensolver.
  ELPA settings:
  | ELPA solver          1
  Finished transformation to standard eigenproblem
  | Time :     0.000 s
  Starting ELPA eigensolver
  | Time full => tridiagonal    :     0.002 s
  | Time solve tridiagonal      :     0.000 s
  | Time ev tridiagonal => full :     0.000 s
  Finished solving standard eigenproblem
  | Time :     0.003 s
  Finished back-transformation of eigenvectors
  | Time :     0.000 s

  Obtaining occupation numbers and chemical potential using ELSI.
  | Chemical potential (Fermi level):    -2.60849607eV
  Highest occupied state (VBM) at     -5.87397350 eV
  | Occupation number:      2.00000000

  Lowest unoccupied state (CBM) at    -0.76058986 eV
  | Occupation number:      0.00000000

  Overall HOMO-LUMO gap:      5.11338364 eV.

  Total energy components:
  | Sum of eigenvalues            :        -180.67155514 Ha       -4916.32315508 eV
  | XC energy correction          :         -42.65446242 Ha       -1160.68697751 eV
  | XC potential correction       :          54.83984811 Ha        1492.26819276 eV
  | Free-atom electrostatic energy:        -146.82358495 Ha       -3995.27302384 eV
  | Hartree energy correction     :          -8.18837851 Ha        -222.81711602 eV
  | vdW energy correction         :           0.00000000 Ha           0.00000000 eV
  | Entropy correction            :           0.00000000 Ha           0.00000000 eV
  | ---------------------------
  | Total energy                  :        -323.49813291 Ha       -8802.83207969 eV
  | Total energy, T -> 0          :        -323.49813291 Ha       -8802.83207969 eV  <-- do not rely on this value for anything but (periodic) metals
  | Electronic free energy        :        -323.49813291 Ha       -8802.83207969 eV

  Derived energy quantities:
  | Kinetic energy                :         322.73090054 Ha        8781.95462452 eV
  | Electrostatic energy          :        -603.57457103 Ha      -16424.09972670 eV
  | Energy correction for multipole
  | error in Hartree potential    :           0.04140937 Ha           1.12680640 eV
  | Sum of eigenvalues per atom                           :        -378.17870424 eV
  | Total energy (T->0) per atom                          :        -677.14092921 eV  <-- do not rely on this value for anything but (periodic) metals
  | Electronic free energy per atom                       :        -677.14092921 eV

  Self-consistency convergence accuracy:
  | Change of charge density      :  0.2225E-01
  | Change of sum of eigenvalues  : -0.3802E+01 eV
  | Change of total energy        :  0.8317E-02 eV

  End self-consistency iteration #     5       :  max(cpu_time)    wall_clock(cpu1)
  | Time for this iteration                    :        0.078 s           0.075 s
  | Charge density update                      :        0.023 s           0.020 s
  | Density mixing                             :        0.001 s           0.000 s
  | Hartree multipole update                   :        0.001 s           0.001 s
  | Hartree multipole summation                :        0.022 s           0.021 s
  | Integration                                :        0.027 s           0.027 s
  | Solution of K.-S. eqns.                    :        0.004 s           0.004 s
  | Total energy evaluation                    :        0.000 s           0.000 s

  Partial memory accounting:
  | Current value for overall tracked memory usage on task 0  :           0.134 MB
  | Peak value for overall tracked memory usage on task 0     :           0.862 MB after allocating gradient_basis_wave
  | Largest tracked array allocation on task 0 so far         :           0.547 MB  when allocating gradient_basis_wave
  Note:  These values currently only include a subset of arrays which are explicitly tracked.
  The "true" memory usage will be greater.
------------------------------------------------------------

------------------------------------------------------------
          Begin self-consistency iteration #    6

  Date     :  20200601, Time     :  010728.099
------------------------------------------------------------
  Evaluating new KS density.
  Integration grid: deviation in total charge (<rho> - N_e) =   2.842171E-14
  Pulay mixing of updated and previous charge densities.

[...]
  |   Hirshfeld dipole moment :      0.06455281
  |   Hirshfeld second moments:     -0.00437844      -0.02690986      -0.01643949
  |                                 -0.02690986      -0.02976652       0.00507562
  |                                 -0.01643949       0.00507562      -0.02471556
  ----------------------------------------------------------------------
  | Atom    12: O
  |   Hirshfeld charge        :     -0.15045296
  |   Free atom volume        :     23.61338643
  |   Hirshfeld volume        :     21.25139720
  |   Hirshfeld dipole vector :      0.01985572       0.03500667      -0.01099008
  |   Hirshfeld dipole moment :      0.04171928
  |   Hirshfeld second moments:      0.04655429      -0.00796514       0.00139618
  |                                 -0.00796514       0.02410071       0.01877410
  |                                  0.00139618       0.01877410       0.07929318
  ----------------------------------------------------------------------
  | Atom    13: H
  |   Hirshfeld charge        :      0.12726881
  |   Free atom volume        :      9.95071624
  |   Hirshfeld volume        :      7.15453306
  |   Hirshfeld dipole vector :      0.01524290      -0.01668357      -0.07775276
  |   Hirshfeld dipole moment :      0.08097023
  |   Hirshfeld second moments:      0.10307905      -0.00345183      -0.00004188
  |                                 -0.00345183       0.06416710       0.03406771
  |                                 -0.00004188       0.03406771       0.08201502
  ----------------------------------------------------------------------


  Total energy components:
  | Sum of eigenvalues            :        -180.71652037 Ha       -4917.54672124 eV
  | XC energy correction          :         -42.64502099 Ha       -1160.43006319 eV
  | XC potential correction       :          54.82766079 Ha        1491.93655897 eV
  | Free-atom electrostatic energy:        -146.82358495 Ha       -3995.27302384 eV
  | Hartree energy correction     :          -8.14057114 Ha        -221.51621147 eV
  | vdW energy correction         :          -0.00339382 Ha          -0.09235055 eV
  | Entropy correction            :           0.00000000 Ha           0.00000000 eV
  | ---------------------------
  | Total energy                  :        -323.50143049 Ha       -8802.92181131 eV
  | Total energy, T -> 0          :        -323.50143049 Ha       -8802.92181131 eV  <-- do not rely on this value for anything but (periodic) metals
  | Electronic free energy        :        -323.50143049 Ha       -8802.92181131 eV

  Derived energy quantities:
  | Kinetic energy                :         322.59693622 Ha        8778.30926988 eV
  | Electrostatic energy          :        -603.44995189 Ha      -16420.70866746 eV
  | Energy correction for multipole
  | error in Hartree potential    :           0.04151127 Ha           1.12957919 eV
  | Sum of eigenvalues per atom                           :        -378.27282471 eV
  | Total energy (T->0) per atom                          :        -677.14783164 eV  <-- do not rely on this value for anything but (periodic) metals
  | Electronic free energy per atom                       :        -677.14783164 eV

  atomic forces [eV/Ang]:
  -----------------------
  atom #    1
   Hellmann-Feynman              :  0.161542E+01 -0.181437E+00  0.124680E+01
   Ionic forces                  :  0.000000E+00  0.000000E+00  0.000000E+00
   Multipole                     :  0.131984E+00  0.258708E+00 -0.277853E+00
   Pulay + GGA                   : -0.143099E+01  0.303723E+00 -0.139575E+01
   Van der Waals                 :  0.190170E-02  0.909696E-03 -0.104108E-02
   ----------------------------------------------------------------
   Total forces(   1)            :  0.318317E+00  0.381904E+00 -0.427849E+00
  atom #    2
   Hellmann-Feynman              :  0.324513E+00  0.127055E-01  0.181068E+00
   Ionic forces                  :  0.000000E+00  0.000000E+00  0.000000E+00
   Multipole                     :  0.168034E+00  0.145250E-01 -0.264282E-01
   Pulay + GGA                   : -0.126772E+00  0.144299E-01  0.351098E-01
   Van der Waals                 :  0.415341E-02 -0.750089E-03  0.682667E-03
   ----------------------------------------------------------------
   Total forces(   2)            :  0.369929E+00  0.409104E-01  0.190432E+00
  atom #    3
   Hellmann-Feynman              : -0.913623E+01 -0.611653E+01  0.108432E+01
   Ionic forces                  :  0.000000E+00  0.000000E+00  0.000000E+00
   Multipole                     : -0.680100E-01  0.965110E-01 -0.817925E+00
   Pulay + GGA                   :  0.914608E+01  0.543953E+01  0.411592E+00
   Van der Waals                 :  0.250605E-02  0.181360E-02  0.425360E-03
   ----------------------------------------------------------------
   Total forces(   3)            : -0.556619E-01 -0.578675E+00  0.678410E+00
  atom #    4
   Hellmann-Feynman              :  0.719819E-01 -0.739805E-02 -0.231573E+00
   Ionic forces                  :  0.000000E+00  0.000000E+00  0.000000E+00
   Multipole                     : -0.599980E-02  0.538053E-01 -0.921738E-01
   Pulay + GGA                   : -0.557797E-01 -0.234744E+00  0.648776E-01
   Van der Waals                 : -0.350763E-02 -0.507404E-02  0.237315E-02
   ----------------------------------------------------------------
   Total forces(   4)            :  0.669476E-02 -0.193411E+00 -0.256496E+00
  atom #    5
   Hellmann-Feynman              :  0.289888E+00  0.210163E+00 -0.364329E+00
   Ionic forces                  :  0.000000E+00  0.000000E+00  0.000000E+00
   Multipole                     :  0.394276E-01 -0.171382E-01 -0.105147E+00
   Pulay + GGA                   : -0.165897E+00  0.881929E-01  0.121413E+00
   Van der Waals                 : -0.933428E-03  0.501157E-02 -0.243091E-02
   ----------------------------------------------------------------
   Total forces(   5)            :  0.162485E+00  0.286229E+00 -0.350495E+00
  atom #    6
   Hellmann-Feynman              : -0.329314E+00 -0.319998E+00  0.473243E+00
   Ionic forces                  :  0.000000E+00  0.000000E+00  0.000000E+00
   Multipole                     : -0.887978E-01  0.651593E+00  0.210065E+00
   Pulay + GGA                   :  0.433146E+00 -0.701846E+00 -0.462079E+00
   Van der Waals                 : -0.274973E-02  0.214913E-02 -0.470989E-02
   ----------------------------------------------------------------
   Total forces(   6)            :  0.122839E-01 -0.368102E+00  0.216519E+00
  atom #    7
   Hellmann-Feynman              :  0.419707E-01  0.141125E-01  0.912125E-01
   Ionic forces                  :  0.000000E+00  0.000000E+00  0.000000E+00
   Multipole                     :  0.517487E-01  0.113226E+00  0.908742E-01
   Pulay + GGA                   : -0.871267E-01 -0.720705E-01 -0.510342E-01
   Van der Waals                 : -0.270609E-02 -0.387802E-02 -0.309592E-02
   ----------------------------------------------------------------
   Total forces(   7)            :  0.388657E-02  0.513902E-01  0.127957E+00
  atom #    8
   Hellmann-Feynman              :  0.158056E-01  0.399522E-01 -0.211723E+00
   Ionic forces                  :  0.000000E+00  0.000000E+00  0.000000E+00
   Multipole                     : -0.611386E-01  0.146385E+00 -0.223969E-02
   Pulay + GGA                   :  0.409942E-02 -0.297518E-01  0.130135E+00
   Van der Waals                 :  0.396316E-03 -0.382345E-02  0.286538E-02
   ----------------------------------------------------------------
   Total forces(   8)            : -0.408372E-01  0.152762E+00 -0.809617E-01
  atom #    9
   Hellmann-Feynman              : -0.146805E+00  0.584719E-01  0.801789E-01
   Ionic forces                  :  0.000000E+00  0.000000E+00  0.000000E+00
   Multipole                     : -0.109887E+00  0.366928E-01  0.997847E-01
   Pulay + GGA                   :  0.109339E+00  0.172568E-01 -0.642448E-01
   Van der Waals                 :  0.602842E-03 -0.551597E-03 -0.718097E-02
   ----------------------------------------------------------------
   Total forces(   9)            : -0.146749E+00  0.111870E+00  0.108538E+00
  atom #   10
   Hellmann-Feynman              :  0.242675E+01  0.318962E+01  0.148082E+01
   Ionic forces                  :  0.000000E+00  0.000000E+00  0.000000E+00
   Multipole                     :  0.670955E-01 -0.143056E+00  0.187622E+00
   Pulay + GGA                   : -0.157370E+01 -0.236719E+01 -0.105541E-01
   Van der Waals                 : -0.118323E-02 -0.227015E-02  0.346331E-02
   ----------------------------------------------------------------
   Total forces(  10)            :  0.918963E+00  0.677105E+00  0.166135E+01
  atom #   11
   Hellmann-Feynman              :  0.511023E+01 -0.294462E+01  0.138848E+02
   Ionic forces                  :  0.000000E+00  0.000000E+00  0.000000E+00
   Multipole                     :  0.288434E+00 -0.639041E+00  0.798911E+00
   Pulay + GGA                   : -0.464193E+01  0.436374E+01 -0.135056E+02
   Van der Waals                 :  0.212068E-02 -0.797458E-02  0.809538E-02
   ----------------------------------------------------------------
   Total forces(  11)            :  0.758851E+00  0.772108E+00  0.118619E+01
  atom #   12
   Hellmann-Feynman              : -0.863065E+01 -0.111378E+02  0.224893E+01
   Ionic forces                  :  0.000000E+00  0.000000E+00  0.000000E+00
   Multipole                     : -0.761144E+00 -0.159800E+01  0.257774E-01
   Pulay + GGA                   :  0.835060E+01  0.113125E+02 -0.400679E+01
   Van der Waals                 :  0.139552E-02  0.821537E-02  0.295959E-02
   ----------------------------------------------------------------
   Total forces(  12)            : -0.103980E+01 -0.141504E+01 -0.172912E+01
  atom #   13
   Hellmann-Feynman              : -0.118835E+01  0.898158E-01 -0.162030E+01
   Ionic forces                  :  0.000000E+00  0.000000E+00  0.000000E+00
   Multipole                     :  0.339461E-01  0.491877E-01 -0.101104E+00
   Pulay + GGA                   : -0.111836E+00 -0.642114E-01  0.393166E+00
   Van der Waals                 : -0.199642E-02  0.622255E-02 -0.240607E-02
   ----------------------------------------------------------------
   Total forces(  13)            : -0.126823E+01  0.810147E-01 -0.133064E+01

  Timings for VdW correction (Tkatchenko-Scheffler 2009 or later):
  | CPU time:        0.009 s, Wall clock time:        0.007 s.
  Removing unitary transformations (pure translations, rotations) from forces on atoms.
  Atomic forces before filtering:
  | Net force on center of mass :   0.131069E-03  0.647845E-04 -0.617114E-02 eV/A
  | Net torque on center of mass:   0.940440E-02  0.305207E-03 -0.319933E-02 eV
  Atomic forces after filtering:
  | Net force on center of mass :   0.178406E-15 -0.669023E-16 -0.178406E-15 eV/A
  | Net torque on center of mass:   0.743467E-15 -0.566451E-15  0.377634E-15 eV

  Energy and forces in a compact form:
  | Total energy uncorrected      :         -0.880292181130681E+04 eV
  | Total energy corrected        :         -0.880292181130681E+04 eV  <-- do not rely on this value for anything but (periodic) metals
  | Electronic free energy        :         -0.880292181130681E+04 eV
  Total atomic forces (unitary forces cleaned) [eV/Ang]:
  |   1          0.318304561799959E+00          0.381936637117329E+00         -0.427373067482990E+00
  |   2          0.369916679352211E+00          0.410686513418965E-01          0.190926655657842E+00
  |   3         -0.556499169014627E-01         -0.579029275636738E+00          0.678877916758030E+00
  |   4          0.660085600188296E-02         -0.193849670979139E+00         -0.256257155049838E+00
  |   5          0.162561255296740E+00          0.285818044939757E+00         -0.349903756079187E+00
  |   6          0.121144087721360E-01         -0.367954908085756E+00          0.216690827447794E+00
  |   7          0.365640748292768E-02          0.517683888666250E-01          0.128038064500006E+00
  |   8         -0.410798772420976E-01          0.152699609231021E+00         -0.809709548297720E-01
  |   9         -0.146901921361063E+00          0.112079493230631E+00          0.108753199686994E+00
  |  10          0.919086534668398E+00          0.677267265427395E+00          0.166212490424520E+01
  |  11          0.758991727238336E+00          0.772571721206881E+00          0.118703889249548E+01
  |  12         -0.103956927778086E+01         -0.141511860181693E+01         -0.172817594169146E+01
  |  13         -0.126803143732711E+01          0.807426451570295E-01         -0.132976958565811E+01

  ------------------------------------ 
  Start decomposition of the XC Energy 
  ------------------------------------ 
  X and C from original XC functional choice 
  Hartree-Fock Energy :          0.000000000 Ha              0.000000000 eV
  X Energy            :        -41.042389061 Ha          -1116.820229529 eV
  C Energy            :         -1.602631930 Ha            -43.609833658 eV
  Total XC Energy     :        -42.645020991 Ha          -1160.430063186 eV
  ------------------------------------ 
  LDA X and C from self-consistent density 
  X Energy LDA        :        -37.263843444 Ha          -1014.000771894 eV
  C Energy LDA        :         -3.139301704 Ha            -85.424745721 eV
  ------------------------------------ 
  End decomposition of the XC Energy 
  ------------------------------------ 

------------------------------------------------------------

------------------------------------------------------------------------------
  Final output of selected total energy values:

  The following output summarizes some interesting total energy values
  at the end of a run (AFTER all relaxation, molecular dynamics, etc.).

  | Total energy of the DFT / Hartree-Fock s.c.f. calculation      :          -8802.921811307 eV
  | Final zero-broadening corrected energy (caution - metals only) :          -8802.921811307 eV
  | For reference only, the value of 1 Hartree used in FHI-aims is :             27.211384500 eV

  Before relying on these values, please be sure to understand exactly which
  total energy value is referred to by a given number. Different objects may
  all carry the same name 'total energy'. Definitions:

  Total energy of the DFT / Hartree-Fock s.c.f. calculation:
  | Note that this energy does not include ANY quantities calculated after the
  | s.c.f. cycle, in particular not ANY RPA, MP2, etc. many-body perturbation terms.

  Final zero-broadening corrected energy:
  | For metallic systems only, a broadening of the occupation numbers at the Fermi
  | level can be extrapolated back to zero broadening by an electron-gas inspired
  | formula. For all systems that are not real metals, this value can be
  | meaningless and should be avoided.

------------------------------------------------------------------------------
  Methods described in the following list of references were used in this FHI-aims run.
  If you publish the results, please make sure to cite these reference if they apply.
  FHI-aims is an academic code, and for our developers (often, Ph.D. students
  and postdocs), scientific credit in the community is essential.
  Thank you for helping us!

  For any use of FHI-aims, please cite:

    Volker Blum, Ralf Gehrke, Felix Hanke, Paula Havu, Ville Havu,
    Xinguo Ren, Karsten Reuter, and Matthias Scheffler
    'Ab initio molecular simulations with numeric atom-centered orbitals'
    Computer Physics Communications 180, 2175-2196 (2009)
    http://dx.doi.org/10.1016/j.cpc.2009.06.022


  The scalable eigensolver library ELPA was used in your run.
  ELPA is essential especially for large systems on hundreds or thousands of CPUs.
  For ELPA, please cite:

    Andreas Marek, Volker Blum, Rainer Johanni, Ville Havu, Bruno Lang,
    Thomas Auckenthaler, Alexander Heinecke, Hans-Joachim Bungartz, and Hermann Lederer,
    'The ELPA Library - Scalable Parallel Eigenvalue Solutions
    for Electronic Structure Theory and Computational Science'
    The Journal of Physics: Condensed Matter 26, 213201 (2014).
    http://dx.doi.org/10.1088/0953-8984/26/21/213201


  The ELSI infrastructure was used in your run to solve the Kohn-Sham electronic structure.
  Please check out http://elsi-interchange.org to learn more.
  If scalability is important for your project, please acknowledge ELSI by citing:

    V. W-z. Yu, F. Corsetti, A. Garcia, W. P. Huhn, M. Jacquelin, W. Jia,
    B. Lange, L. Lin, J. Lu, W. Mi, A. Seifitokaldani, A. Vazquez-Mayagoitia,
    C. Yang, H. Yang, and V. Blum
    'ELSI: A unified software interface for Kohn-Sham electronic structure solvers'
    Computer Physics Communications 222, 267-285 (2018).
    http://dx.doi.org/10.1016/j.cpc.2017.09.007


  For the real-space grid partitioning and parallelization used in this calculation, please cite:

    Ville Havu, Volker Blum, Paula Havu, and Matthias Scheffler,
    'Efficient O(N) integration for all-electron electronic structure calculation'
    'using numerically tabulated basis functions'
    Journal of Computational Physics 228, 8367-8379 (2009).
    http://dx.doi.org/10.1016/j.jcp.2009.08.008

  Of course, there are many other important community references, e.g., those cited in the
  above references. Our list is limited to references that describe implementations in the
  FHI-aims code. The reason is purely practical (length of this list) - please credit others as well.

------------------------------------------------------------
          Leaving FHI-aims.
          Date     :  20200601, Time     :  010729.163

          Computational steps:
          | Number of self-consistency cycles          :           16
          | Number of SCF (re)initializations          :            1

          Detailed time accounting                     :  max(cpu_time)    wall_clock(cpu1)
          | Total time                                 :        1.712 s           1.774 s
          | Preparation time                           :        0.165 s           0.165 s
          | Boundary condition initalization           :        0.000 s           0.000 s
          | Grid partitioning                          :        0.024 s           0.024 s
          | Preloading free-atom quantities on grid    :        0.002 s           0.003 s
          | Free-atom superposition energy             :        0.005 s           0.005 s
          | Total time for integrations                :        0.476 s           0.475 s
          | Total time for solution of K.-S. equations :        0.074 s           0.074 s
          | Total time for density & force components  :        0.433 s           0.374 s
          | Total time for mixing                      :        0.017 s           0.019 s
          | Total time for Hartree multipole update    :        0.020 s           0.018 s
          | Total time for Hartree multipole sum       :        0.426 s           0.427 s
          | Total time for total energy evaluation     :        0.003 s           0.004 s
          | Total time for vdW correction              :        0.009 s           0.007 s

          Partial memory accounting:
          | Residual value for overall tracked memory usage across tasks :           0.000 MB (should be 0.000 MB)
          | Peak values for overall tracked memory usage (after allocating hessian_basis_wave):
          |   Minimum:        2.108 MB (on task 16)
          |   Maximum:        2.155 MB (on task  3)
          |   Average:        2.134 MB
          | Largest tracked array allocation (hessian_basis_wave):
          |   Minimum:        1.084 MB (on task 16)
          |   Maximum:        1.102 MB (on task  3)
          |   Average:        1.094 MB
          Note:  These values currently only include a subset of arrays which are explicitly tracked.
          The "true" memory usage will be greater.

          Have a nice day.
------------------------------------------------------------
