  MPI-parallelism will be employed.
------------------------------------------------------------
          Invoking FHI-aims ...
          Version 171221_1
          Compiled on 2019/09/09 at 14:39:39 on host puhti-login2.bullx.

          When using FHI-aims, please cite the following reference:

          Volker Blum, Ralf Gehrke, Felix Hanke, Paula Havu,
          Ville Havu, Xinguo Ren, Karsten Reuter, and Matthias Scheffler,
          'Ab Initio Molecular Simulations with Numeric Atom-Centered Orbitals',
          Computer Physics Communications 180, 2175-2196 (2009)

          For any questions about FHI-aims, please visit the aimsclub website
          with its forums and wiki. Contributions to both the forums and the
          wiki are warmly encouraged - they are for you, and everyone is welcome there.

------------------------------------------------------------



  Date     :  20200815, Time     :  003832.411
  Time zero on CPU 1             :   0.116520000000000E-01  s.
  Internal wall clock time zero  :           366683912.411  s.

  FHI-aims created a unique identifier for this run for later identification
  aims_uuid : 93AEDDD9-8FBD-4F67-AB60-0E363ECE5233

  Using        1 parallel tasks.
  Task        0 on host r16c11.bullx reporting.

  Performing system and environment tests:
  | Environment variable OMP_NUM_THREADS correctly set to 1.
  | Stacksize not measured: no C compiler
  | Checking for scalapack...
  | Testing pdtran()...
  | All pdtran() tests passed.

  Obtaining array dimensions for all initial allocations:
  
  -----------------------------------------------------------------------
  Parsing control.in (first pass over file, find array dimensions only).
  The contents of control.in will be repeated verbatim below
  unless switched off by setting 'verbatim_writeout .false.' .
  in the first line of control.in .
  -----------------------------------------------------------------------
  
  #########################################################################################
  #
  #  Volker Blum, FHI 2009 : Test run input file control.in for simple H2O
  #
  #########################################################################################
  #
  #  Physical model
  #
    xc                 pbe
    vdw_correction_hirshfeld
    spin               none
    relativistic       none
    charge             0.
  #
  #  SCF convergence
  #
    occupation_type    gaussian 0.01
    mixer              pulay
      n_max_pulay        10
      charge_mix_param   0.2
    sc_accuracy_rho    1E-5
    sc_accuracy_eev    1E-3
    sc_accuracy_etot   1E-6
    sc_accuracy_forces 1E-4
    sc_iter_limit      100
  #
  #  Relaxation
  #
  #  relax_geometry   bfgs 1.e-3
  #
  ################################################################################
  #
  #  FHI-aims code project
  #  VB, Fritz-Haber Institut, 2009
  #
  #  Suggested "light" defaults for H atom (to be pasted into control.in file)
  #  Be sure to double-check any results obtained with these settings for post-processing,
  #  e.g., with the "tight" defaults and larger basis sets.
  #
  ################################################################################
    species        H
  #     global species definitions
      nucleus             1
      mass                1.00794
  #
      l_hartree           4
  #
      cut_pot             3.5  1.5  1.0
      basis_dep_cutoff    1e-4
  #
      radial_base         24 5.0
      radial_multiplier   1
      angular_grids       specified
        division   0.2421   50
        division   0.3822  110
        division   0.4799  194
        division   0.5341  302
  #      division   0.5626  434
  #      division   0.5922  590
  #      division   0.6542  770
  #      division   0.6868 1202
  #      outer_grid  770
        outer_grid  302
  ################################################################################
  #
  #  Definition of "minimal" basis
  #
  ################################################################################
  #     valence basis states
      valence      1  s   1.
  #     ion occupancy
      ion_occ      1  s   0.5
  ################################################################################
  #
  #  Suggested additional basis functions. For production calculations,
  #  uncomment them one after another (the most important basis functions are
  #  listed first).
  #
  #  Basis constructed for dimers: 0.5 A, 0.7 A, 1.0 A, 1.5 A, 2.5 A
  #
  ################################################################################
  #  "First tier" - improvements: -1014.90 meV to -62.69 meV
       hydro 2 s 2.1
       hydro 2 p 3.5
  #  "Second tier" - improvements: -12.89 meV to -1.83 meV
  #     hydro 1 s 0.85
  #     hydro 2 p 3.7
  #     hydro 2 s 1.2
  #     hydro 3 d 7
  #  "Third tier" - improvements: -0.25 meV to -0.12 meV
  #     hydro 4 f 11.2
  #     hydro 3 p 4.8
  #     hydro 4 d 9
  #     hydro 3 s 3.2
  ################################################################################
  #
  #  FHI-aims code project
  #  VB, Fritz-Haber Institut, 2009
  #
  #  Suggested "light" defaults for C atom (to be pasted into control.in file)
  #  Be sure to double-check any results obtained with these settings for post-processing,
  #  e.g., with the "tight" defaults and larger basis sets.
  #
  ################################################################################
    species        C
  #     global species definitions
      nucleus             6
      mass                12.0107
  #
      l_hartree           4
  #
      cut_pot             3.5  1.5  1.0
      basis_dep_cutoff    1e-4
  #
      radial_base         34 5.0
      radial_multiplier   1
      angular_grids specified
        division   0.3326   50
        division   0.5710  110
        division   0.7727  194
        division   0.8772  302
  #      division   0.9334  434
  #      division   0.9625  590
  #      division   0.9924  770
  #      division   1.0230  974
  #      division   1.4589 1202
  #     outer_grid  974
       outer_grid 302
  ################################################################################
  #
  #  Definition of "minimal" basis
  #
  ################################################################################
  #     valence basis states
      valence      2  s   2.
      valence      2  p   2.
  #     ion occupancy
      ion_occ      2  s   1.
      ion_occ      2  p   1.
  ################################################################################
  #
  #  Suggested additional basis functions. For production calculations,
  #  uncomment them one after another (the most important basis functions are
  #  listed first).
  #
  #  Constructed for dimers: 1.0 A, 1.25 A, 1.5 A, 2.0 A, 3.0 A
  #
  ################################################################################
  #  "First tier" - improvements: -1214.57 meV to -155.61 meV
       hydro 2 p 1.7
       hydro 3 d 6
       hydro 2 s 4.9
  #  "Second tier" - improvements: -67.75 meV to -5.23 meV
  #     hydro 4 f 9.8
  #     hydro 3 p 5.2
  #     hydro 3 s 4.3
  #     hydro 5 g 14.4
  #     hydro 3 d 6.2
  #  "Third tier" - improvements: -2.43 meV to -0.60 meV
  #     hydro 2 p 5.6
  #     hydro 2 s 1.4
  #     hydro 3 d 4.9
  #     hydro 4 f 11.2
  #  "Fourth tier" - improvements: -0.39 meV to -0.18 meV
  #     hydro 2 p 2.1
  #     hydro 5 g 16.4
  #     hydro 4 d 13.2
  #     hydro 3 s 13.6
  #     hydro 4 f 17.6
  #  Further basis functions - improvements: -0.08 meV and below
  #     hydro 3 s 2
  #     hydro 3 p 6
  #     hydro 4 d 20
  ################################################################################
  #
  #  FHI-aims code project
  #  VB, Fritz-Haber Institut, 2009
  #
  #  Suggested "light" defaults for N atom (to be pasted into control.in file)
  #  Be sure to double-check any results obtained with these settings for post-processing,
  #  e.g., with the "tight" defaults and larger basis sets.
  #
  ################################################################################
    species        N
  #     global species definitions
      nucleus             7
      mass                14.0067
  #
      l_hartree           4
  #
      cut_pot             3.5  1.5  1.0
      basis_dep_cutoff    1e-4
  #
      radial_base         35 5.0
      radial_multiplier   1
      angular_grids       specified
        division   0.2599   50
        division   0.4601  110
        division   0.5885  194
        division   0.6503  302
  #      division   0.6939  434
  #      division   0.7396  590
  #      division   0.7632  770
  #      division   0.8122  974
  #      division   1.1604 1202
  #      outer_grid  974
        outer_grid  302
  ################################################################################
  #
  #  Definition of "minimal" basis
  #
  ################################################################################
  #     valence basis states
      valence      2  s   2.
      valence      2  p   3.
  #     ion occupancy
      ion_occ      2  s   1.
      ion_occ      2  p   2.
  ################################################################################
  #
  #  Suggested additional basis functions. For production calculations,
  #  uncomment them one after another (the most important basis functions are
  #  listed first).
  #
  #  Constructed for dimers: 1.0 A, 1.1 A, 1.5 A, 2.0 A, 3.0 A
  #
  ################################################################################
  #  "First tier" - improvements: -1193.42 meV to -220.60 meV
       hydro 2 p 1.8
       hydro 3 d 6.8
       hydro 3 s 5.8
  #  "Second tier" - improvements: -80.21 meV to -6.86 meV
  #     hydro 4 f 10.8
  #     hydro 3 p 5.8
  #     hydro 1 s 0.8
  #     hydro 5 g 16
  #     hydro 3 d 4.9
  #  "Third tier" - improvements: -4.29 meV to -0.53 meV
  #     hydro 3 s 16
  #     ionic 2 p auto
  #     hydro 3 d 6.6
  #     hydro 4 f 11.6
  #  "Fourth tier" - improvements: -0.75 meV to -0.25 meV
  #     hydro 2 p 4.5
  #     hydro 2 s 2.4
  #     hydro 5 g 14.4
  #     hydro 4 d 14.4
  #     hydro 4 f 16.8
  # Further basis functions - -0.21 meV and below
  #     hydro 3 p 14.8
  #     hydro 3 s 4.4
  #     hydro 3 d 19.6
  #     hydro 5 g 12.8
  ################################################################################
  #
  #  FHI-aims code project
  #  VB, Fritz-Haber Institut, 2009
  #
  #  Suggested "light" defaults for O atom (to be pasted into control.in file)
  #  Be sure to double-check any results obtained with these settings for post-processing,
  #  e.g., with the "tight" defaults and larger basis sets.
  #
  ################################################################################
    species        O
  #     global species definitions
      nucleus             8
      mass                15.9994
  #
      l_hartree           4
  #
      cut_pot             3.5  1.5  1.0
      basis_dep_cutoff    1e-4
  #
      radial_base         36 5.0
      radial_multiplier   1
       angular_grids specified
        division   0.2659   50
        division   0.4451  110
        division   0.6052  194
        division   0.7543  302
  #      division   0.8014  434
  #      division   0.8507  590
  #      division   0.8762  770
  #      division   0.9023  974
  #      division   1.2339 1202
  #      outer_grid 974
        outer_grid 302
  ################################################################################
  #
  #  Definition of "minimal" basis
  #
  ################################################################################
  #     valence basis states
      valence      2  s   2.
      valence      2  p   4.
  #     ion occupancy
      ion_occ      2  s   1.
      ion_occ      2  p   3.
  ################################################################################
  #
  #  Suggested additional basis functions. For production calculations,
  #  uncomment them one after another (the most important basis functions are
  #  listed first).
  #
  #  Constructed for dimers: 1.0 A, 1.208 A, 1.5 A, 2.0 A, 3.0 A
  #
  ################################################################################
  #  "First tier" - improvements: -699.05 meV to -159.38 meV
       hydro 2 p 1.8
       hydro 3 d 7.6
       hydro 3 s 6.4
  #  "Second tier" - improvements: -49.91 meV to -5.39 meV
  #     hydro 4 f 11.6
  #     hydro 3 p 6.2
  #     hydro 3 d 5.6
  #     hydro 5 g 17.6
  #     hydro 1 s 0.75
  #  "Third tier" - improvements: -2.83 meV to -0.50 meV
  #     ionic 2 p auto
  #     hydro 4 f 10.8
  #     hydro 4 d 4.7
  #     hydro 2 s 6.8
  #  "Fourth tier" - improvements: -0.40 meV to -0.12 meV
  #     hydro 3 p 5
  #     hydro 3 s 3.3
  #     hydro 5 g 15.6
  #     hydro 4 f 17.6
  #     hydro 4 d 14
  # Further basis functions - -0.08 meV and below
  #     hydro 3 s 2.1
  #     hydro 4 d 11.6
  #     hydro 3 p 16
  #     hydro 2 s 17.2
  
  -----------------------------------------------------------------------
  Completed first pass over input file control.in .
  -----------------------------------------------------------------------
  
  
  -----------------------------------------------------------------------
  Parsing geometry.in (first pass over file, find array dimensions only).
  The contents of geometry.in will be repeated verbatim below
  unless switched off by setting 'verbatim_writeout .false.' .
  in the first line of geometry.in .
  -----------------------------------------------------------------------
  
  atom  0.00000 0.00000 0.00000 C
  atom  1.09300 0.00000 0.00000 H
  atom  -0.47961 0.00000 -1.41207 N
  atom  -0.91340 -0.90245 -1.61017 H
  atom  -1.15874 0.74952 -1.52660 H
  atom  -0.49584 1.26211 0.72868 C
  atom  -1.58789 1.28919 0.74431 H
  atom  -0.13407 1.27425 1.75947 H
  atom  -0.13407 2.16087 0.22380 H
  atom  -0.39425 -1.28861 0.74398 C
  atom  -0.10189 -1.56493 1.88303 O
  atom  -1.10210 -2.13717 0.06896 O
  atom  -1.57495 -1.50657 -0.50001 H
  
  -----------------------------------------------------------------------
  Completed first pass over input file geometry.in .
  -----------------------------------------------------------------------
  

  Basic array size parameters:
  | Number of species                 :        4
  | Number of atoms                   :       13
  | Max. basis fn. angular momentum   :        2
  | Max. atomic/ionic basis occupied n:        2
  | Max. number of basis fn. types    :        2
  | Max. radial fns per species/type  :        3
  | Max. logarithmic grid size        :     1301
  | Max. radial integration grid size :       36
  | Max. angular integration grid size:      302
  | Max. angular grid division number :        8
  | Radial grid for Hartree potential :     1301
  | Number of spin channels           :        1

------------------------------------------------------------
          Reading file control.in.
------------------------------------------------------------
  XC: Using PBE gradient-corrected functionals.
  Spin treatment: No spin polarisation.
  Non-relativistic treatment of kinetic energy.
  Charge =   0.000000E+00: Neutral system requested explicitly.
  Occupation type: Gaussian broadening, width =   0.100000E-01 eV.
  Using pulay charge density mixing.
  Pulay mixing - number of memorized iterations:   10
  Charge density mixing - mixing parameter:     0.2000
  Convergence accuracy of self-consistent charge density:  0.1000E-04
  Convergence accuracy of sum of eigenvalues:  0.1000E-02
  Convergence accuracy of total energy:  0.1000E-05
  Convergence accuracy of forces:  0.1000E-03
  Maximum number of s.-c. iterations  :   100
 
  Reading configuration options for species H                   .
  | Found nuclear charge :   1.0000
  | Found atomic mass :    1.00794000000000      amu
  | Found l_max for Hartree potential  :   4
  | Found cutoff potl. onset [A], width [A], scale factor :    3.50000    1.50000    1.00000
  | Threshold for basis-dependent cutoff potential is   0.100000E-03
  | Found data for basic radial integration grid :    24 points, outermost radius =    5.000 A
  | Found multiplier for basic radial grid :   1
  | Found angular grid specification: user-specified.
  | Specified grid contains     5 separate shells.
  | Check grid settings after all constraints further below.
  | Found free-atom valence shell :  1 s   1.000
  | No ionic wave fns used. Skipping ion_occ.
  | Found hydrogenic basis function :  2 s   2.100
  | Found hydrogenic basis function :  2 p   3.500
  Species H                   : Missing cutoff potential type.
  Defaulting to exp(1/x)/(1-x)^2 type cutoff potential.
  Species H : No 'logarithmic' tag. Using default grid for free atom:
  | Default logarithmic grid data [bohr] : 0.1000E-03 0.1000E+03 0.1012E+01
  Species H : On-site basis accuracy parameter (for Gram-Schmidt orthonormalisation) not specified.
  Using default value basis_acc =  0.1000000E-03.
  Species H                   : Using default innermost maximum threshold i_radial=  2 for radial functions.
  Species H                   : Default cutoff onset for free atom density etc. : 0.35000000E+01 AA.
  Species H                   : Basic radial grid will be enhanced according to radial_multiplier =   1, to contain    24 grid points.
 
  Reading configuration options for species C                   .
  | Found nuclear charge :   6.0000
  | Found atomic mass :    12.0107000000000      amu
  | Found l_max for Hartree potential  :   4
  | Found cutoff potl. onset [A], width [A], scale factor :    3.50000    1.50000    1.00000
  | Threshold for basis-dependent cutoff potential is   0.100000E-03
  | Found data for basic radial integration grid :    34 points, outermost radius =    5.000 A
  | Found multiplier for basic radial grid :   1
  | Found angular grid specification: user-specified.
  | Specified grid contains     5 separate shells.
  | Check grid settings after all constraints further below.
  | Found free-atom valence shell :  2 s   2.000
  | Found free-atom valence shell :  2 p   2.000
  | No ionic wave fns used. Skipping ion_occ.
  | No ionic wave fns used. Skipping ion_occ.
  | Found hydrogenic basis function :  2 p   1.700
  | Found hydrogenic basis function :  3 d   6.000
  | Found hydrogenic basis function :  2 s   4.900
  Species C                   : Missing cutoff potential type.
  Defaulting to exp(1/x)/(1-x)^2 type cutoff potential.
  Species C : No 'logarithmic' tag. Using default grid for free atom:
  | Default logarithmic grid data [bohr] : 0.1000E-03 0.1000E+03 0.1012E+01
  Species C : On-site basis accuracy parameter (for Gram-Schmidt orthonormalisation) not specified.
  Using default value basis_acc =  0.1000000E-03.
  Species C                   : Using default innermost maximum threshold i_radial=  2 for radial functions.
  Species C                   : Default cutoff onset for free atom density etc. : 0.35000000E+01 AA.
  Species C                   : Basic radial grid will be enhanced according to radial_multiplier =   1, to contain    34 grid points.
 
  Reading configuration options for species N                   .
  | Found nuclear charge :   7.0000
  | Found atomic mass :    14.0067000000000      amu
  | Found l_max for Hartree potential  :   4
  | Found cutoff potl. onset [A], width [A], scale factor :    3.50000    1.50000    1.00000
  | Threshold for basis-dependent cutoff potential is   0.100000E-03
  | Found data for basic radial integration grid :    35 points, outermost radius =    5.000 A
  | Found multiplier for basic radial grid :   1
  | Found angular grid specification: user-specified.
  | Specified grid contains     5 separate shells.
  | Check grid settings after all constraints further below.
  | Found free-atom valence shell :  2 s   2.000
  | Found free-atom valence shell :  2 p   3.000
  | No ionic wave fns used. Skipping ion_occ.
  | No ionic wave fns used. Skipping ion_occ.
  | Found hydrogenic basis function :  2 p   1.800
  | Found hydrogenic basis function :  3 d   6.800
  | Found hydrogenic basis function :  3 s   5.800
  Species N                   : Missing cutoff potential type.
  Defaulting to exp(1/x)/(1-x)^2 type cutoff potential.
  Species N : No 'logarithmic' tag. Using default grid for free atom:
  | Default logarithmic grid data [bohr] : 0.1000E-03 0.1000E+03 0.1012E+01
  Species N : On-site basis accuracy parameter (for Gram-Schmidt orthonormalisation) not specified.
  Using default value basis_acc =  0.1000000E-03.
  Species N                   : Using default innermost maximum threshold i_radial=  2 for radial functions.
  Species N                   : Default cutoff onset for free atom density etc. : 0.35000000E+01 AA.
  Species N                   : Basic radial grid will be enhanced according to radial_multiplier =   1, to contain    35 grid points.
 
  Reading configuration options for species O                   .
  | Found nuclear charge :   8.0000
  | Found atomic mass :    15.9994000000000      amu
  | Found l_max for Hartree potential  :   4
  | Found cutoff potl. onset [A], width [A], scale factor :    3.50000    1.50000    1.00000
  | Threshold for basis-dependent cutoff potential is   0.100000E-03
  | Found data for basic radial integration grid :    36 points, outermost radius =    5.000 A
  | Found multiplier for basic radial grid :   1
  | Found angular grid specification: user-specified.
  | Specified grid contains     5 separate shells.
  | Check grid settings after all constraints further below.
  | Found free-atom valence shell :  2 s   2.000
  | Found free-atom valence shell :  2 p   4.000
  | No ionic wave fns used. Skipping ion_occ.
  | No ionic wave fns used. Skipping ion_occ.
  | Found hydrogenic basis function :  2 p   1.800
  | Found hydrogenic basis function :  3 d   7.600
  | Found hydrogenic basis function :  3 s   6.400
  Species O                   : Missing cutoff potential type.
  Defaulting to exp(1/x)/(1-x)^2 type cutoff potential.
  Species O : No 'logarithmic' tag. Using default grid for free atom:
  | Default logarithmic grid data [bohr] : 0.1000E-03 0.1000E+03 0.1012E+01
  Species O : On-site basis accuracy parameter (for Gram-Schmidt orthonormalisation) not specified.
  Using default value basis_acc =  0.1000000E-03.
  Species O                   : Using default innermost maximum threshold i_radial=  2 for radial functions.
  Species O                   : Default cutoff onset for free atom density etc. : 0.35000000E+01 AA.
  Species O                   : Basic radial grid will be enhanced according to radial_multiplier =   1, to contain    36 grid points.
 
  Finished reading input file 'control.in'. Consistency checks are next.
 
  MPI_IN_PLACE appears to work with this MPI implementation.
  | Keeping use_mpi_in_place .true. (see manual).
  Target number of points in a grid batch is not set. Defaulting to  100
  Method for grid partitioning is not set. Defaulting to parallel hash+maxmin partitioning.
  Batch size limit is not set. Defaulting to    200
  By default, will store active basis functions for each batch.
  If in need of memory, prune_basis_once .false. can be used to disable this option.
  communication_type for Hartree potential was not specified.
  Defaulting to calc_hartree .
  Pulay mixer: Number of initial linear mixing iterations not set.
  Defaulting to    0 iterations.
  Work space size for distributed Hartree potential not set.
  Defaulting to   0.200000E+03 MB.
  Algorithm-dependent basis array size parameters:
  | n_max_pulay                         :       10
  Presetting      1001 iterations before the initial mixing cycle
  is restarted anyway using the sc_init_iter criterion / keyword.
  Presetting a factor      1.000 between actual scf density residual
  and density convergence criterion sc_accuracy_rho below which sc_init_iter
  takes no effect.
  Geometry relaxation not requested: no relaxation will be performed.
  Handling of forces: Unphysical translation and rotation will be removed from forces.
  No accuracy limit for integral partition fn. given. Defaulting to  0.1000E-14.
  No threshold value for u(r) in integrations given. Defaulting to  0.1000E-05.
  No accuracy for occupation numbers given. Defaulting to  0.1000E-12.
  No threshold value for occupation numbers given. Defaulting to  0.0000E+00.
  No accuracy for fermi level given. Defaulting to  0.1000E-19.
  Maximum # of iterations to find E_F not set. Defaulting to  200.
  Preferred method for the eigenvalue solver ('KS_method') not specified in 'control.in'.
  Defaulting to serial version, 'lapack_fast'.
  Will not use alltoall communication since running on < 1024 CPUs.
  Threshold for basis singularities not set.
  Default threshold for basis singularities:  0.1000E-04
  partition_type (choice of integration weights) for integrals was not specified.
  | Using a version of the partition function of Stratmann and coworkers ('stratmann_smoother').
  | At each grid point, the set of atoms used to build the partition table is smoothly restricted to
  | only those atoms whose free-atom density would be non-zero at that grid point.
  Partitioning for Hartree potential was not defined. Using partition_type for integrals.
  | Adjusted default value of keyword multip_moments_threshold to:       0.10000000E-11
  | This value may affect high angular momentum components of the Hartree potential in periodic systems.
  No q(lm)/r^(l+1) cutoff set for long-range Hartree potential.
  | Using default value of  0.100000E-09 .
  | Verify using the multipole_threshold keyword.
  Defaulting to new monopole extrapolation.
  Density update method: automatic selection selected.
------------------------------------------------------------


------------------------------------------------------------
          Reading geometry description geometry.in.
------------------------------------------------------------
  Input structure read successfully.
  The structure contains       13 atoms,  and a total of         48.000 electrons.

  Input geometry:
  | No unit cell requested.
  | Atomic structure:
  |       Atom                x [A]            y [A]            z [A]
  |    1: Species C             0.00000000        0.00000000        0.00000000
  |    2: Species H             1.09300000        0.00000000        0.00000000
  |    3: Species N            -0.47961000        0.00000000       -1.41207000
  |    4: Species H            -0.91340000       -0.90245000       -1.61017000
  |    5: Species H            -1.15874000        0.74952000       -1.52660000
  |    6: Species C            -0.49584000        1.26211000        0.72868000
  |    7: Species H            -1.58789000        1.28919000        0.74431000
  |    8: Species H            -0.13407000        1.27425000        1.75947000
  |    9: Species H            -0.13407000        2.16087000        0.22380000
  |   10: Species C            -0.39425000       -1.28861000        0.74398000
  |   11: Species O            -0.10189000       -1.56493000        1.88303000
  |   12: Species O            -1.10210000       -2.13717000        0.06896000
  |   13: Species H            -1.57495000       -1.50657000       -0.50001000
  |

  | The smallest distance between any two atoms is         0.97209585 AA.
  |
  | The first atom of this pair is atom number                     12 .
  | The second atom of this pair is atom number                    13 .

  Number of empty states per atom not set in control.in - providing a guess from actual geometry.
  | Total number of empty states used during s.c.f. cycle:       29
  If you use a very high smearing, use empty_states (per atom!) in control.in to increase this value.

  Structure-dependent array size parameters: 
  | Maximum number of distinct radial functions  :       21
  | Maximum number of basis functions            :      119
  | Number of Kohn-Sham states (occupied + empty):       53
------------------------------------------------------------

------------------------------------------------------------
          Preparing all fixed parts of the calculation.
------------------------------------------------------------
  Determining machine precision:
    2.225073858507201E-308
  Setting up grids for atomic and cluster calculations.

  Creating wave function, potential, and density for free atoms.

  Species: H

  List of occupied orbitals and eigenvalues:
    n    l              occ      energy [Ha]    energy [eV]
    1    0           1.0000        -0.237589        -6.4651


  Species: C

  List of occupied orbitals and eigenvalues:
    n    l              occ      energy [Ha]    energy [eV]
    1    0           2.0000       -10.038835      -273.1706
    2    0           2.0000        -0.502696       -13.6791
    2    1           2.0000        -0.191971        -5.2238


  Species: N

  List of occupied orbitals and eigenvalues:
    n    l              occ      energy [Ha]    energy [eV]
    1    0           2.0000       -14.128000      -384.4424
    2    0           2.0000        -0.681077       -18.5330
    2    1           3.0000        -0.259788        -7.0692


  Species: O

  List of occupied orbitals and eigenvalues:
    n    l              occ      energy [Ha]    energy [eV]
    1    0           2.0000       -18.898188      -514.2459
    2    0           2.0000        -0.878505       -23.9053
    2    1           4.0000        -0.331779        -9.0282

  Creating fixed part of basis set: Ionic, confined, hydrogenic.
 
  H                    hydrogenic:
 
  List of hydrogenic basis orbitals: 
    n    l      effective z      eigenvalue [eV]  inner max. [A]     outer max. [A]     outer radius [A]   
    2    0         2.100000       -14.9728           0.193243           1.317208           4.583499
    2    1         3.500000       -41.6669           0.602369           0.602369           3.723403
 
 
  C                    hydrogenic:
 
  List of hydrogenic basis orbitals: 
    n    l      effective z      eigenvalue [eV]  inner max. [A]     outer max. [A]     outer radius [A]   
    2    1         1.700000        -9.7616           1.230570           1.230570           4.607917
    3    2         6.000000       -54.4224           0.792453           0.792453           3.883070
    2    0         4.900000       -81.6679           0.082559           0.562749           3.078220
 
 
  N                    hydrogenic:
 
  List of hydrogenic basis orbitals: 
    n    l      effective z      eigenvalue [eV]  inner max. [A]     outer max. [A]     outer radius [A]   
    2    1         1.800000       -10.9749           1.177451           1.177451           4.573712
    3    2         6.800000       -69.9026           0.704619           0.704619           3.538137
    3    0         5.800000       -50.8545           0.067388           1.191934           4.250239
 
 
  O                    hydrogenic:
 
  List of hydrogenic basis orbitals: 
    n    l      effective z      eigenvalue [eV]  inner max. [A]     outer max. [A]     outer radius [A]   
    2    1         1.800000       -10.9749           1.164242           1.164242           4.578029
    3    2         7.600000       -87.3180           0.624125           0.624125           3.251020
    3    0         6.400000       -61.9207           0.061167           1.081902           4.001998
 

  Adding cutoff potential to free-atom effective potential.
  Creating atomic-like basis functions for current effective potential.

  Species H                   :

  List of atomic basis orbitals and eigenvalues:
    n    l      energy [Ha]    energy [eV]    outer radius [A]
    1    0        -0.237589        -6.4651       4.527807


  Species C                   :

  List of atomic basis orbitals and eigenvalues:
    n    l      energy [Ha]    energy [eV]    outer radius [A]
    1    0       -10.038835      -273.1706       1.934409
    2    0        -0.502696       -13.6791       4.496620
    2    1        -0.191971        -5.2238       4.551928


  Species N                   :

  List of atomic basis orbitals and eigenvalues:
    n    l      energy [Ha]    energy [eV]    outer radius [A]
    1    0       -14.128000      -384.4424       1.637919
    2    0        -0.681077       -18.5330       4.463241
    2    1        -0.259788        -7.0692       4.518138


  Species O                   :

  List of atomic basis orbitals and eigenvalues:
    n    l      energy [Ha]    energy [eV]    outer radius [A]
    1    0       -18.898188      -514.2459       1.415765
    2    0        -0.878505       -23.9053       4.413171
    2    1        -0.331779        -9.0282       4.522403

  Assembling full basis from fixed parts.
  | Species H :   atomic orbital   1 s accepted.
  | Species H :    hydro orbital   2 s accepted.
  | Species H :    hydro orbital   2 p accepted.
  | Species C :   atomic orbital   1 s accepted.
  | Species C :    hydro orbital   2 s accepted.
  | Species C :   atomic orbital   2 s accepted.
  | Species C :   atomic orbital   2 p accepted.
  | Species C :    hydro orbital   2 p accepted.
  | Species C :    hydro orbital   3 d accepted.
  | Species N :   atomic orbital   1 s accepted.
  | Species N :    hydro orbital   3 s accepted.
  | Species N :   atomic orbital   2 s accepted.
  | Species N :   atomic orbital   2 p accepted.
  | Species N :    hydro orbital   2 p accepted.
  | Species N :    hydro orbital   3 d accepted.
  | Species O :   atomic orbital   1 s accepted.
  | Species O :    hydro orbital   3 s accepted.
  | Species O :   atomic orbital   2 s accepted.
  | Species O :   atomic orbital   2 p accepted.
  | Species O :    hydro orbital   2 p accepted.
  | Species O :    hydro orbital   3 d accepted.
 
  Basis size parameters after reduction:
  | Total number of radial functions:       21
  | Total number of basis functions :      119
 
  Per-task memory consumption for arrays in subroutine allocate_ext:
  |           5.250512MB.
  Testing on-site integration grid accuracy.
  |  Species  Function  <phi|h_atom|phi> (log., in eV)  <phi|h_atom|phi> (rad., in eV)
           1        1                 -6.4663192853                 -6.4651273558
           1        2                 13.7111246313                 13.7170609718
           1        3                 25.2673269279                 25.2674696378
           2        4               -273.1705927641               -273.1705631568
           2        5                -10.7109323383                -10.7107120029
           2        6                 17.4381822266                 17.4352413244
           2        7                 -5.2255326521                 -5.2270484734
           2        8                  8.6835629259                  8.6603288385
           2        9                 27.4952418996                 27.4953360207
           3       10               -384.4424306495               -384.4423701208
           3       11                 12.5842251816                 12.5842222903
           3       12                -15.7264628251                -15.7264433455
           3       13                 -7.0696854293                 -7.0701769954
           3       14                  8.8090390882                  8.7901077751
           3       15                 35.9586762123                 35.9588528632
           4       16               -514.2458688638               -514.2457643834
           4       17                 15.1795651126                 15.1795290741
           4       18                -21.5359799773                -21.5360846186
           4       19                 -9.0283069236                 -9.0284644067
           4       20                  8.3027758564                  8.2834874195
           4       21                 45.8339351984                 45.8338762259

  Preparing densities etc. for the partition functions (integrals / Hartree potential).

  Preparations completed.
  max(cpu_time)          :      0.145 s.
  Wall clock time (cpu1) :      0.146 s.
------------------------------------------------------------

------------------------------------------------------------
          Begin self-consistency loop: Initialization.

          Date     :  20200815, Time     :  003832.571
------------------------------------------------------------

  Initializing index lists of integration centers etc. from given atomic structure:
  | Number of centers in hartree potential         :        13
  | Number of centers in hartree multipole         :        13
  | Number of centers in electron density summation:        13
  | Number of centers in basis integrals           :        13
  | Number of centers in integrals                 :        13
  | Number of centers in hamiltonian               :        13
  Partitioning the integration grid into batches with parallel hashing+maxmin method.
  | Number of batches:      955
  | Maximal batch size:     139
  | Minimal batch size:      66
  | Average batch size:      72.928
  | Standard deviation of batch sizes:      17.692

  Integration load balanced across     1 MPI tasks.
  Work distribution over tasks is as follows:
  Task     0 has      69646 integration points.
  Initializing partition tables, free-atom densities, potentials, etc. across the integration grid (initialize_grid_storage).
  | initialize_grid_storage: Actual outermost partition radius vs. multipole_radius_free
  | (-- VB: in principle, multipole_radius_free should be larger, hence this output)
  | Species        1: Confinement radius =              4.999999999999999 AA, multipole_radius_free =              5.054417573612229 AA.
  | Species        1: outer_partition_radius set to              5.054417573612229 AA .
  | Species        2: Confinement radius =              4.999999999999999 AA, multipole_radius_free =              5.019602836301480 AA.
  | Species        2: outer_partition_radius set to              5.019602836301480 AA .
  | Species        3: Confinement radius =              4.999999999999999 AA, multipole_radius_free =              5.043624274424571 AA.
  | Species        3: outer_partition_radius set to              5.043624274424571 AA .
  | Species        4: Confinement radius =              4.999999999999999 AA, multipole_radius_free =              5.048384829883283 AA.
  | Species        4: outer_partition_radius set to              5.048384829883283 AA .
  | Original list of interatomic distances with          13 x         13 entries is created.
  | Net number of integration points:    69646
  | of which are non-zero points    :    59322
  Renormalizing the initial density to the exact electron count on the 3D integration grid.
  | Initial density: Formal number of electrons (from input files) :      48.0000000000
  | Integrated number of electrons on 3D grid     :      47.9997240661
  | Charge integration error                      :      -0.0002759339
  | Normalization factor for density and gradient :       1.0000057487
  Obtaining max. number of non-zero basis functions in each batch (get_n_compute_maxes).
  | Maximal number of non-zero basis functions:      119 in task     0
  Selecting the method for density update.
  Loop over occupied states selected for charge density update.
  Allocating        0.050 MB for KS_eigenvector
  Integrating Hamiltonian matrix: batch-based integration.
  Time summed over all CPUs for integration: real work        0.495 s, elapsed        0.495 s
  Integrating overlap matrix.
  Time summed over all CPUs for integration: real work        0.212 s, elapsed        0.212 s

  Updating Kohn-Sham eigenvalues and eigenvectors using ELSI and the ELPA eigensolver.
  Overlap matrix is nonsingular
  | Lowest eigenvalue of overlap  :  0.47E-02
  | Highest eigenvalue of overlap :  0.65E+01
  Finished singularity check of overlap matrix
  | Time :     0.002 s
  Finished Cholesky decomposition
  | Time :     0.000 s
  Finished transformation to standard eigenproblem
  | Time :     0.000 s
  Starting LAPACK eigensolver
  Finished solving standard eigenproblem
  | Time :     0.002 s
  Finished back-transformation of eigenvectors
  | Time :     0.000 s

  Obtaining occupation numbers and chemical potential using ELSI.
  | Chemical potential (Fermi level):    -9.92822252eV
  Writing Kohn-Sham eigenvalues.

  State    Occupation    Eigenvalue [Ha]    Eigenvalue [eV]
      1       2.00000         -19.008470         -517.24679
      2       2.00000         -18.977134         -516.39409
      3       2.00000         -14.246854         -387.67661
      4       2.00000         -10.166904         -276.65552
      5       2.00000         -10.141832         -275.97328
      6       2.00000         -10.132160         -275.71009
      7       2.00000          -1.183638          -32.20842
      8       2.00000          -1.102466          -29.99963
      9       2.00000          -0.994239          -27.05463
     10       2.00000          -0.860457          -23.41424
     11       2.00000          -0.755849          -20.56770
     12       2.00000          -0.683726          -18.60514
     13       2.00000          -0.646666          -17.59667
     14       2.00000          -0.603880          -16.43240
     15       2.00000          -0.587070          -15.97499
     16       2.00000          -0.557672          -15.17503
     17       2.00000          -0.541864          -14.74487
     18       2.00000          -0.540937          -14.71965
     19       2.00000          -0.520244          -14.15655
     20       2.00000          -0.493734          -13.43519
     21       2.00000          -0.475233          -12.93175
     22       2.00000          -0.431178          -11.73296
     23       2.00000          -0.414668          -11.28369
     24       2.00000          -0.382072          -10.39670
     25       0.00000          -0.151644           -4.12645
     26       0.00000          -0.073144           -1.99036
     27       0.00000          -0.028847           -0.78496
     28       0.00000          -0.026333           -0.71656
     29       0.00000           0.000382            0.01040
     30       0.00000           0.010022            0.27272
     31       0.00000           0.019728            0.53681
     32       0.00000           0.030997            0.84347
     33       0.00000           0.055251            1.50346
     34       0.00000           0.068946            1.87612
     35       0.00000           0.104216            2.83585
     36       0.00000           0.134257            3.65333
     37       0.00000           0.152928            4.16137
     38       0.00000           0.202947            5.52246
     39       0.00000           0.221076            6.01579
     40       0.00000           0.229438            6.24333
     41       0.00000           0.255091            6.94138
     42       0.00000           0.274980            7.48259
     43       0.00000           0.295506            8.04112
     44       0.00000           0.301080            8.19281
     45       0.00000           0.312888            8.51412
     46       0.00000           0.354111            9.63584
     47       0.00000           0.363813            9.89985
     48       0.00000           0.383831           10.44457
     49       0.00000           0.424843           11.56057
     50       0.00000           0.484846           13.19334
     51       0.00000           0.523718           14.25108
     52       0.00000           0.531296           14.45729
     53       0.00000           0.552044           15.02187

  Highest occupied state (VBM) at    -10.39670046 eV
  | Occupation number:      2.00000000

  Lowest unoccupied state (CBM) at    -4.12645277 eV
  | Occupation number:      0.00000000

  Overall HOMO-LUMO gap:      6.27024769 eV.
  Calculating total energy contributions from superposition of free atom densities.

  Total energy components:
  | Sum of eigenvalues            :        -188.89789214 Ha       -5140.17317433 eV
  | XC energy correction          :         -41.81709176 Ha       -1137.90096255 eV
  | XC potential correction       :          53.75901996 Ha        1462.85736258 eV
  | Free-atom electrostatic energy:        -146.79190424 Ha       -3994.41094764 eV
  | Hartree energy correction     :           0.00000000 Ha           0.00000000 eV
  | vdW energy correction         :           0.00000000 Ha           0.00000000 eV
  | Entropy correction            :           0.00000000 Ha           0.00000000 eV
  | ---------------------------
  | Total energy                  :        -323.74786817 Ha       -8809.62772194 eV
  | Total energy, T -> 0          :        -323.74786817 Ha       -8809.62772194 eV  <-- do not rely on this value for anything but (periodic) metals
  | Electronic free energy        :        -323.74786817 Ha       -8809.62772194 eV

  Derived energy quantities:
  | Kinetic energy                :         320.56478632 Ha        8723.01165765 eV
  | Electrostatic energy          :        -602.49556273 Ha      -16394.73841704 eV
  | Energy correction for multipole
  | error in Hartree potential    :           0.00000000 Ha           0.00000000 eV
  | Sum of eigenvalues per atom                           :        -395.39793649 eV
  | Total energy (T->0) per atom                          :        -677.66367092 eV  <-- do not rely on this value for anything but (periodic) metals
  | Electronic free energy per atom                       :        -677.66367092 eV
  Initialize hartree_potential_storage
  Max. number of atoms included in rho_multipole:           13

  End scf initialization - timings             :  max(cpu_time)    wall_clock(cpu1)
  | Time for scf. initialization               :        1.152 s           1.156 s
  | Boundary condition initialization          :        0.000 s           0.000 s
  | Integration                                :        0.708 s           0.708 s
  | Solution of K.-S. eqns.                    :        0.004 s           0.005 s
  | Grid partitioning                          :        0.111 s           0.112 s
  | Preloading free-atom quantities on grid    :        0.002 s           0.003 s
  | Free-atom superposition energy             :        0.084 s           0.084 s
  | Total energy evaluation                    :        0.000 s           0.000 s

  Partial memory accounting:
  | Current value for overall tracked memory usage on task 0  :           0.165 MB
  | Peak value for overall tracked memory usage on task 0     :           0.678 MB after allocating wave
  | Largest tracked array allocation on task 0 so far         :           0.132 MB  when allocating H_times_psi
  Note:  These values currently only include a subset of arrays which are explicitly tracked.
  The "true" memory usage will be greater.
------------------------------------------------------------

------------------------------------------------------------
          Begin self-consistency iteration #    1

  Date     :  20200815, Time     :  003833.727
------------------------------------------------------------
  Evaluating new KS density.
  Integration grid: deviation in total charge (<rho> - N_e) =  -2.131628E-14
  Pulay mixing of updated and previous charge densities.

  Evaluating partitioned Hartree potential by multipole expansion.
  | Analytical far-field extrapolation by fixed multipoles:
  | Hartree multipole sum: apparent total charge =  -0.378672E-03
  Summing up the Hartree potential.
  Time summed over all CPUs for potential: real work        0.282 s, elapsed        0.282 s
  | RMS charge density error from multipole expansion :   0.592433E-02

  Integrating Hamiltonian matrix: batch-based integration.
  Time summed over all CPUs for integration: real work        0.494 s, elapsed        0.494 s

  Updating Kohn-Sham eigenvalues and eigenvectors using ELSI and the ELPA eigensolver.
  Finished Cholesky decomposition
  | Time :     0.000 s
  Finished transformation to standard eigenproblem
  | Time :     0.000 s
  Starting LAPACK eigensolver
  Finished solving standard eigenproblem
  | Time :     0.002 s
  Finished back-transformation of eigenvectors
  | Time :     0.000 s

  Obtaining occupation numbers and chemical potential using ELSI.
  | Chemical potential (Fermi level):    -4.89379731eV
  Writing Kohn-Sham eigenvalues.

  State    Occupation    Eigenvalue [Ha]    Eigenvalue [eV]
      1       2.00000         -18.911981         -514.62119
      2       2.00000         -18.831875         -512.44140
      3       2.00000         -14.108996         -383.92530
      4       2.00000         -10.116307         -275.27872
      5       2.00000         -10.067940         -273.96260
      6       2.00000         -10.036259         -273.10051
      7       2.00000          -1.138194          -30.97182
      8       2.00000          -1.038263          -28.25257
      9       2.00000          -0.932830          -25.38359
     10       2.00000          -0.799327          -21.75079
     11       2.00000          -0.706598          -19.22750
     12       2.00000          -0.643826          -17.51940
     13       2.00000          -0.596278          -16.22555
     14       2.00000          -0.552480          -15.03376
     15       2.00000          -0.529507          -14.40863
     16       2.00000          -0.494038          -13.44345
     17       2.00000          -0.491239          -13.36730
     18       2.00000          -0.484444          -13.18240
     19       2.00000          -0.459131          -12.49359
     20       2.00000          -0.440759          -11.99365
     21       2.00000          -0.420992          -11.45578
     22       2.00000          -0.371003          -10.09550
     23       2.00000          -0.344326           -9.36959
     24       2.00000          -0.313804           -8.53903
     25       0.00000          -0.114911           -3.12689
     26       0.00000          -0.053401           -1.45312
     27       0.00000           0.003062            0.08333
     28       0.00000           0.012081            0.32874
     29       0.00000           0.027075            0.73674
     30       0.00000           0.046614            1.26843
     31       0.00000           0.051266            1.39501
     32       0.00000           0.067702            1.84226
     33       0.00000           0.092721            2.52307
     34       0.00000           0.098109            2.66969
     35       0.00000           0.140840            3.83246
     36       0.00000           0.161954            4.40699
     37       0.00000           0.174171            4.73944
     38       0.00000           0.231369            6.29587
     39       0.00000           0.247539            6.73588
     40       0.00000           0.259240            7.05429
     41       0.00000           0.286979            7.80909
     42       0.00000           0.308796            8.40275
     43       0.00000           0.331216            9.01285
     44       0.00000           0.334425            9.10017
     45       0.00000           0.349130            9.50030
     46       0.00000           0.392323           10.67564
     47       0.00000           0.398987           10.85700
     48       0.00000           0.422154           11.48738
     49       0.00000           0.456804           12.43026
     50       0.00000           0.519025           14.12339
     51       0.00000           0.556160           15.13388
     52       0.00000           0.561795           15.28721
     53       0.00000           0.581625           15.82683

  Highest occupied state (VBM) at     -8.53903080 eV
  | Occupation number:      2.00000000

  Lowest unoccupied state (CBM) at    -3.12688585 eV
  | Occupation number:      0.00000000

  Overall HOMO-LUMO gap:      5.41214495 eV.

  Total energy components:
  | Sum of eigenvalues            :        -185.66079294 Ha       -5052.08722337 eV
  | XC energy correction          :         -42.13730645 Ha       -1146.61444766 eV
  | XC potential correction       :          54.17531362 Ha        1474.18528924 eV
  | Free-atom electrostatic energy:        -146.79190424 Ha       -3994.41094764 eV
  | Hartree energy correction     :          -3.15758283 Ha         -85.92220036 eV
  | vdW energy correction         :           0.00000000 Ha           0.00000000 eV
  | Entropy correction            :           0.00000000 Ha           0.00000000 eV
  | ---------------------------
  | Total energy                  :        -323.57227284 Ha       -8804.84952979 eV
  | Total energy, T -> 0          :        -323.57227284 Ha       -8804.84952979 eV  <-- do not rely on this value for anything but (periodic) metals
  | Electronic free energy        :        -323.57227284 Ha       -8804.84952979 eV

  Derived energy quantities:
  | Kinetic energy                :         322.31738199 Ha        8770.70221249 eV
  | Electrostatic energy          :        -603.75234838 Ha      -16428.93729462 eV
  | Energy correction for multipole
  | error in Hartree potential    :           0.01198017 Ha           0.32599698 eV
  | Sum of eigenvalues per atom                           :        -388.62209411 eV
  | Total energy (T->0) per atom                          :        -677.29611768 eV  <-- do not rely on this value for anything but (periodic) metals
  | Electronic free energy per atom                       :        -677.29611768 eV

  Self-consistency convergence accuracy:
  | Change of charge density      :  0.5770E+00
  | Change of sum of eigenvalues  :  0.8809E+02 eV
  | Change of total energy        :  0.4778E+01 eV

  End self-consistency iteration #     1       :  max(cpu_time)    wall_clock(cpu1)
  | Time for this iteration                    :        1.188 s           1.189 s
  | Charge density update                      :        0.394 s           0.395 s
  | Density mixing                             :        0.005 s           0.006 s
  | Hartree multipole update                   :        0.009 s           0.009 s
  | Hartree multipole summation                :        0.283 s           0.282 s
  | Integration                                :        0.494 s           0.495 s
  | Solution of K.-S. eqns.                    :        0.002 s           0.002 s
  | Total energy evaluation                    :        0.000 s           0.000 s

  Partial memory accounting:
  | Current value for overall tracked memory usage on task 0  :           0.165 MB
  | Peak value for overall tracked memory usage on task 0     :           0.695 MB after allocating gradient_basis_wave
  | Largest tracked array allocation on task 0 so far         :           0.397 MB  when allocating gradient_basis_wave
  Note:  These values currently only include a subset of arrays which are explicitly tracked.
  The "true" memory usage will be greater.
------------------------------------------------------------

------------------------------------------------------------
          Begin self-consistency iteration #    2

  Date     :  20200815, Time     :  003834.917
------------------------------------------------------------
  Evaluating new KS density.
  Integration grid: deviation in total charge (<rho> - N_e) =   6.394885E-14
  Pulay mixing of updated and previous charge densities.

  Evaluating partitioned Hartree potential by multipole expansion.
  | Analytical far-field extrapolation by fixed multipoles:
  | Hartree multipole sum: apparent total charge =  -0.507459E-03
  Summing up the Hartree potential.
  Time summed over all CPUs for potential: real work        0.282 s, elapsed        0.282 s
  | RMS charge density error from multipole expansion :   0.140465E-01

  Integrating Hamiltonian matrix: batch-based integration.
  Time summed over all CPUs for integration: real work        0.497 s, elapsed        0.497 s

  Updating Kohn-Sham eigenvalues and eigenvectors using ELSI and the ELPA eigensolver.
  Finished Cholesky decomposition
  | Time :     0.000 s
  Finished transformation to standard eigenproblem
  | Time :     0.000 s
  Starting LAPACK eigensolver
  Finished solving standard eigenproblem
  | Time :     0.001 s
  Finished back-transformation of eigenvectors
  | Time :     0.000 s

  Obtaining occupation numbers and chemical potential using ELSI.
  | Chemical potential (Fermi level):    -3.86242036eV
  Highest occupied state (VBM) at     -6.71683558 eV
  | Occupation number:      2.00000000

  Lowest unoccupied state (CBM) at    -1.85134924 eV
  | Occupation number:      0.00000000

  Overall HOMO-LUMO gap:      4.86548634 eV.

  Checking to see if s.c.f. parameters should be adjusted.

  Total energy components:
  | Sum of eigenvalues            :        -182.26556321 Ha       -4959.69832168 eV
  | XC energy correction          :         -42.48623206 Ha       -1156.10919643 eV
  | XC potential correction       :          54.62729543 Ha        1486.48434020 eV
  | Free-atom electrostatic energy:        -146.79190424 Ha       -3994.41094764 eV
  | Hartree energy correction     :          -6.58085231 Ha        -179.07410262 eV
  | vdW energy correction         :           0.00000000 Ha           0.00000000 eV
  | Entropy correction            :           0.00000000 Ha           0.00000000 eV
  | ---------------------------
  | Total energy                  :        -323.49725638 Ha       -8802.80822817 eV
  | Total energy, T -> 0          :        -323.49725638 Ha       -8802.80822817 eV  <-- do not rely on this value for anything but (periodic) metals
  | Electronic free energy        :        -323.49725638 Ha       -8802.80822817 eV

  Derived energy quantities:
  | Kinetic energy                :         323.60707470 Ha        8805.79653648 eV
  | Electrostatic energy          :        -604.61809902 Ha      -16452.49556822 eV
  | Energy correction for multipole
  | error in Hartree potential    :           0.02625883 Ha           0.71453922 eV
  | Sum of eigenvalues per atom                           :        -381.51525551 eV
  | Total energy (T->0) per atom                          :        -677.13909447 eV  <-- do not rely on this value for anything but (periodic) metals
  | Electronic free energy per atom                       :        -677.13909447 eV

  Self-consistency convergence accuracy:
  | Change of charge density      :  0.3611E+00
  | Change of sum of eigenvalues  :  0.9239E+02 eV
  | Change of total energy        :  0.2041E+01 eV

  End self-consistency iteration #     2       :  max(cpu_time)    wall_clock(cpu1)
  | Time for this iteration                    :        1.185 s           1.186 s
  | Charge density update                      :        0.388 s           0.388 s
  | Density mixing                             :        0.007 s           0.007 s
  | Hartree multipole update                   :        0.009 s           0.009 s
  | Hartree multipole summation                :        0.283 s           0.283 s
  | Integration                                :        0.497 s           0.496 s
  | Solution of K.-S. eqns.                    :        0.002 s           0.002 s
  | Total energy evaluation                    :        0.000 s           0.000 s

  Partial memory accounting:
  | Current value for overall tracked memory usage on task 0  :           0.166 MB
  | Peak value for overall tracked memory usage on task 0     :           0.695 MB after allocating gradient_basis_wave
  | Largest tracked array allocation on task 0 so far         :           0.397 MB  when allocating gradient_basis_wave
  Note:  These values currently only include a subset of arrays which are explicitly tracked.
  The "true" memory usage will be greater.
------------------------------------------------------------

------------------------------------------------------------
          Begin self-consistency iteration #    3

  Date     :  20200815, Time     :  003836.103
------------------------------------------------------------
  Evaluating new KS density.
  Integration grid: deviation in total charge (<rho> - N_e) =   0.000000E+00
  Pulay mixing of updated and previous charge densities.

  Evaluating partitioned Hartree potential by multipole expansion.
  | Analytical far-field extrapolation by fixed multipoles:
  | Hartree multipole sum: apparent total charge =  -0.595943E-03
  Summing up the Hartree potential.
  Time summed over all CPUs for potential: real work        0.282 s, elapsed        0.282 s
  | RMS charge density error from multipole expansion :   0.221882E-01

  Integrating Hamiltonian matrix: batch-based integration.
  Time summed over all CPUs for integration: real work        0.497 s, elapsed        0.497 s

  Updating Kohn-Sham eigenvalues and eigenvectors using ELSI and the ELPA eigensolver.
  Finished Cholesky decomposition
  | Time :     0.000 s
  Finished transformation to standard eigenproblem
  | Time :     0.000 s
  Starting LAPACK eigensolver
  Finished solving standard eigenproblem
  | Time :     0.001 s
  Finished back-transformation of eigenvectors
  | Time :     0.000 s

  Obtaining occupation numbers and chemical potential using ELSI.
  | Chemical potential (Fermi level):    -3.29624066eV
  Highest occupied state (VBM) at     -6.10143126 eV
  | Occupation number:      2.00000000

  Lowest unoccupied state (CBM) at    -1.12377678 eV
  | Occupation number:      0.00000000

  Overall HOMO-LUMO gap:      4.97765448 eV.

  Total energy components:
  | Sum of eigenvalues            :        -180.93673514 Ha       -4923.53906999 eV
  | XC energy correction          :         -42.64196636 Ha       -1160.34694235 eV
  | XC potential correction       :          54.82574957 Ha        1491.88455192 eV
  | Free-atom electrostatic energy:        -146.79190424 Ha       -3994.41094764 eV
  | Hartree energy correction     :          -7.94025162 Ha        -216.06523986 eV
  | vdW energy correction         :           0.00000000 Ha           0.00000000 eV
  | Entropy correction            :           0.00000000 Ha           0.00000000 eV
  | ---------------------------
  | Total energy                  :        -323.48510778 Ha       -8802.47764791 eV
  | Total energy, T -> 0          :        -323.48510778 Ha       -8802.47764791 eV  <-- do not rely on this value for anything but (periodic) metals
  | Electronic free energy        :        -323.48510778 Ha       -8802.47764791 eV

  Derived energy quantities:
  | Kinetic energy                :         323.26489449 Ha        8796.48533924 eV
  | Electrostatic energy          :        -604.10803591 Ha      -16438.61604480 eV
  | Energy correction for multipole
  | error in Hartree potential    :           0.03712749 Ha           1.01029030 eV
  | Sum of eigenvalues per atom                           :        -378.73377461 eV
  | Total energy (T->0) per atom                          :        -677.11366522 eV  <-- do not rely on this value for anything but (periodic) metals
  | Electronic free energy per atom                       :        -677.11366522 eV

  Self-consistency convergence accuracy:
  | Change of charge density      :  0.2025E+00
  | Change of sum of eigenvalues  :  0.3616E+02 eV
  | Change of total energy        :  0.3306E+00 eV

  End self-consistency iteration #     3       :  max(cpu_time)    wall_clock(cpu1)
  | Time for this iteration                    :        1.186 s           1.187 s
  | Charge density update                      :        0.387 s           0.387 s
  | Density mixing                             :        0.008 s           0.009 s
  | Hartree multipole update                   :        0.009 s           0.009 s
  | Hartree multipole summation                :        0.283 s           0.282 s
  | Integration                                :        0.497 s           0.497 s
  | Solution of K.-S. eqns.                    :        0.002 s           0.002 s
  | Total energy evaluation                    :        0.000 s           0.000 s

  Partial memory accounting:
  | Current value for overall tracked memory usage on task 0  :           0.166 MB
  | Peak value for overall tracked memory usage on task 0     :           0.695 MB after allocating gradient_basis_wave
  | Largest tracked array allocation on task 0 so far         :           0.397 MB  when allocating gradient_basis_wave
  Note:  These values currently only include a subset of arrays which are explicitly tracked.
  The "true" memory usage will be greater.
------------------------------------------------------------

------------------------------------------------------------
          Begin self-consistency iteration #    4

  Date     :  20200815, Time     :  003837.291
------------------------------------------------------------
  Evaluating new KS density.
  Integration grid: deviation in total charge (<rho> - N_e) =   7.105427E-15
  Pulay mixing of updated and previous charge densities.

  Evaluating partitioned Hartree potential by multipole expansion.
  | Analytical far-field extrapolation by fixed multipoles:
  | Hartree multipole sum: apparent total charge =  -0.623635E-03
  Summing up the Hartree potential.
  Time summed over all CPUs for potential: real work        0.282 s, elapsed        0.282 s
  | RMS charge density error from multipole expansion :   0.257327E-01

  Integrating Hamiltonian matrix: batch-based integration.
  Time summed over all CPUs for integration: real work        0.497 s, elapsed        0.497 s

  Updating Kohn-Sham eigenvalues and eigenvectors using ELSI and the ELPA eigensolver.
  Finished Cholesky decomposition
  | Time :     0.000 s
  Finished transformation to standard eigenproblem
  | Time :     0.000 s
  Starting LAPACK eigensolver
  Finished solving standard eigenproblem
  | Time :     0.002 s
  Finished back-transformation of eigenvectors
  | Time :     0.000 s

  Obtaining occupation numbers and chemical potential using ELSI.
  | Chemical potential (Fermi level):    -3.21656772eV
  Highest occupied state (VBM) at     -5.86874158 eV
  | Occupation number:      2.00000000

  Lowest unoccupied state (CBM) at    -1.05250195 eV
  | Occupation number:      0.00000000

  Overall HOMO-LUMO gap:      4.81623963 eV.

  Total energy components:
  | Sum of eigenvalues            :        -180.85633939 Ha       -4921.35139051 eV
  | XC energy correction          :         -42.67665164 Ha       -1161.29077698 eV
  | XC potential correction       :          54.86901510 Ha        1493.06186709 eV
  | Free-atom electrostatic energy:        -146.79190424 Ha       -3994.41094764 eV
  | Hartree energy correction     :          -8.02820663 Ha        -218.45861750 eV
  | vdW energy correction         :           0.00000000 Ha           0.00000000 eV
  | Entropy correction            :           0.00000000 Ha           0.00000000 eV
  | ---------------------------
  | Total energy                  :        -323.48408680 Ha       -8802.44986553 eV
  | Total energy, T -> 0          :        -323.48408680 Ha       -8802.44986553 eV  <-- do not rely on this value for anything but (periodic) metals
  | Electronic free energy        :        -323.48408680 Ha       -8802.44986553 eV

  Derived energy quantities:
  | Kinetic energy                :         322.85867473 Ha        8785.43153722 eV
  | Electrostatic energy          :        -603.66610989 Ha      -16426.59062577 eV
  | Energy correction for multipole
  | error in Hartree potential    :           0.04125239 Ha           1.12253476 eV
  | Sum of eigenvalues per atom                           :        -378.56549158 eV
  | Total energy (T->0) per atom                          :        -677.11152812 eV  <-- do not rely on this value for anything but (periodic) metals
  | Electronic free energy per atom                       :        -677.11152812 eV

  Self-consistency convergence accuracy:
  | Change of charge density      :  0.6723E-01
  | Change of sum of eigenvalues  :  0.2188E+01 eV
  | Change of total energy        :  0.2778E-01 eV

  End self-consistency iteration #     4       :  max(cpu_time)    wall_clock(cpu1)
  | Time for this iteration                    :        1.187 s           1.190 s
  | Charge density update                      :        0.388 s           0.389 s
  | Density mixing                             :        0.009 s           0.010 s
  | Hartree multipole update                   :        0.009 s           0.009 s
  | Hartree multipole summation                :        0.282 s           0.283 s
  | Integration                                :        0.497 s           0.496 s
  | Solution of K.-S. eqns.                    :        0.002 s           0.003 s
  | Total energy evaluation                    :        0.000 s           0.000 s

  Partial memory accounting:
  | Current value for overall tracked memory usage on task 0  :           0.166 MB
  | Peak value for overall tracked memory usage on task 0     :           0.696 MB after allocating gradient_basis_wave
  | Largest tracked array allocation on task 0 so far         :           0.397 MB  when allocating gradient_basis_wave
  Note:  These values currently only include a subset of arrays which are explicitly tracked.
  The "true" memory usage will be greater.
------------------------------------------------------------

------------------------------------------------------------
          Begin self-consistency iteration #    5

  Date     :  20200815, Time     :  003838.482
------------------------------------------------------------
  Evaluating new KS density.
  Integration grid: deviation in total charge (<rho> - N_e) =   6.394885E-14
  Pulay mixing of updated and previous charge densities.

  Evaluating partitioned Hartree potential by multipole expansion.
  | Analytical far-field extrapolation by fixed multipoles:
  | Hartree multipole sum: apparent total charge =  -0.618715E-03
  Summing up the Hartree potential.
  Time summed over all CPUs for potential: real work        0.282 s, elapsed        0.282 s
  | RMS charge density error from multipole expansion :   0.254896E-01

  Integrating Hamiltonian matrix: batch-based integration.
  Time summed over all CPUs for integration: real work        0.497 s, elapsed        0.497 s

  Updating Kohn-Sham eigenvalues and eigenvectors using ELSI and the ELPA eigensolver.
  Finished Cholesky decomposition
  | Time :     0.000 s
  Finished transformation to standard eigenproblem
  | Time :     0.000 s
  Starting LAPACK eigensolver
  Finished solving standard eigenproblem
  | Time :     0.002 s
  Finished back-transformation of eigenvectors
  | Time :     0.000 s

  Obtaining occupation numbers and chemical potential using ELSI.
  | Chemical potential (Fermi level):    -3.25394733eV
  Highest occupied state (VBM) at     -5.97919360 eV
  | Occupation number:      2.00000000

  Lowest unoccupied state (CBM) at    -1.12050099 eV
  | Occupation number:      0.00000000

  Overall HOMO-LUMO gap:      4.85869261 eV.

  Total energy components:
  | Sum of eigenvalues            :        -180.99722763 Ha       -4925.18515450 eV
  | XC energy correction          :         -42.65789830 Ha       -1160.78047273 eV
  | XC potential correction       :          54.84471483 Ha        1492.40062295 eV
  | Free-atom electrostatic energy:        -146.79190424 Ha       -3994.41094764 eV
  | Hartree energy correction     :          -7.88146887 Ha        -214.46567980 eV
  | vdW energy correction         :           0.00000000 Ha           0.00000000 eV
  | Entropy correction            :           0.00000000 Ha           0.00000000 eV
  | ---------------------------
  | Total energy                  :        -323.48378421 Ha       -8802.44163172 eV
  | Total energy, T -> 0          :        -323.48378421 Ha       -8802.44163172 eV  <-- do not rely on this value for anything but (periodic) metals
  | Electronic free energy        :        -323.48378421 Ha       -8802.44163172 eV

  Derived energy quantities:
  | Kinetic energy                :         322.77947321 Ha        8783.27635432 eV
  | Electrostatic energy          :        -603.60535912 Ha      -16424.93751331 eV
  | Energy correction for multipole
  | error in Hartree potential    :           0.04067621 Ha           1.10685602 eV
  | Sum of eigenvalues per atom                           :        -378.86039650 eV
  | Total energy (T->0) per atom                          :        -677.11089475 eV  <-- do not rely on this value for anything but (periodic) metals
  | Electronic free energy per atom                       :        -677.11089475 eV

  Self-consistency convergence accuracy:
  | Change of charge density      :  0.2274E-01
  | Change of sum of eigenvalues  : -0.3834E+01 eV
  | Change of total energy        :  0.8234E-02 eV

  End self-consistency iteration #     5       :  max(cpu_time)    wall_clock(cpu1)
  | Time for this iteration                    :        1.188 s           1.197 s
  | Charge density update                      :        0.387 s           0.395 s
  | Density mixing                             :        0.011 s           0.011 s
  | Hartree multipole update                   :        0.009 s           0.009 s
  | Hartree multipole summation                :        0.282 s           0.282 s
  | Integration                                :        0.497 s           0.497 s
  | Solution of K.-S. eqns.                    :        0.002 s           0.002 s
  | Total energy evaluation                    :        0.000 s           0.001 s

  Partial memory accounting:
  | Current value for overall tracked memory usage on task 0  :           0.166 MB
  | Peak value for overall tracked memory usage on task 0     :           0.696 MB after allocating gradient_basis_wave
  | Largest tracked array allocation on task 0 so far         :           0.397 MB  when allocating gradient_basis_wave
  Note:  These values currently only include a subset of arrays which are explicitly tracked.
  The "true" memory usage will be greater.
------------------------------------------------------------

------------------------------------------------------------
          Begin self-consistency iteration #    6

  Date     :  20200815, Time     :  003839.679
------------------------------------------------------------
  Evaluating new KS density.
  Integration grid: deviation in total charge (<rho> - N_e) =   8.526513E-14
  Pulay mixing of updated and previous charge densities.

  Evaluating partitioned Hartree potential by multipole expansion.
  | Analytical far-field extrapolation by fixed multipoles:
  | Hartree multipole sum: apparent total charge =  -0.619939E-03
  Summing up the Hartree potential.
  Time summed over all CPUs for potential: real work        0.282 s, elapsed        0.282 s
  | RMS charge density error from multipole expansion :   0.258332E-01

  Integrating Hamiltonian matrix: batch-based integration.
  Time summed over all CPUs for integration: real work        0.497 s, elapsed        0.497 s

  Updating Kohn-Sham eigenvalues and eigenvectors using ELSI and the ELPA eigensolver.
  Finished Cholesky decomposition
  | Time :     0.000 s
  Finished transformation to standard eigenproblem
  | Time :     0.000 s
  Starting LAPACK eigensolver
  Finished solving standard eigenproblem
  | Time :     0.002 s
  Finished back-transformation of eigenvectors
  | Time :     0.000 s

  Obtaining occupation numbers and chemical potential using ELSI.
  | Chemical potential (Fermi level):    -3.26517919eV
  Highest occupied state (VBM) at     -5.98848265 eV
  | Occupation number:      2.00000000

  Lowest unoccupied state (CBM) at    -1.15834961 eV
  | Occupation number:      0.00000000

  Overall HOMO-LUMO gap:      4.83013304 eV.

  Total energy components:
  | Sum of eigenvalues            :        -181.04677530 Ha       -4926.53341515 eV
  | XC energy correction          :         -42.65189065 Ha       -1160.61699626 eV
  | XC potential correction       :          54.83688109 Ha        1492.18745623 eV
  | Free-atom electrostatic energy:        -146.79190424 Ha       -3994.41094764 eV
  | Hartree energy correction     :          -7.83003024 Ha        -213.06596340 eV
  | vdW energy correction         :           0.00000000 Ha           0.00000000 eV
  | Entropy correction            :           0.00000000 Ha           0.00000000 eV
  | ---------------------------
  | Total energy                  :        -323.48371933 Ha       -8802.43986623 eV
  | Total energy, T -> 0          :        -323.48371933 Ha       -8802.43986623 eV  <-- do not rely on this value for anything but (periodic) metals
  | Electronic free energy        :        -323.48371933 Ha       -8802.43986623 eV

  Derived energy quantities:
  | Kinetic energy                :         322.68516650 Ha        8780.71013816 eV
  | Electrostatic energy          :        -603.51699518 Ha      -16422.53300813 eV
  | Energy correction for multipole
  | error in Hartree potential    :           0.04083290 Ha           1.11111971 eV
  | Sum of eigenvalues per atom                           :        -378.96410886 eV
  | Total energy (T->0) per atom                          :        -677.11075894 eV  <-- do not rely on this value for anything but (periodic) metals
  | Electronic free energy per atom                       :        -677.11075894 eV

  Self-consistency convergence accuracy:
  | Change of charge density      :  0.1074E-01
  | Change of sum of eigenvalues  : -0.1348E+01 eV
  | Change of total energy        :  0.1765E-02 eV

  End self-consistency iteration #     6       :  max(cpu_time)    wall_clock(cpu1)
  | Time for this iteration                    :        1.189 s           1.192 s
  | Charge density update                      :        0.388 s           0.389 s
  | Density mixing                             :        0.012 s           0.012 s
  | Hartree multipole update                   :        0.009 s           0.009 s
  | Hartree multipole summation                :        0.282 s           0.282 s
  | Integration                                :        0.497 s           0.497 s
  | Solution of K.-S. eqns.                    :        0.002 s           0.002 s
  | Total energy evaluation                    :        0.000 s           0.001 s

  Partial memory accounting:
  | Current value for overall tracked memory usage on task 0  :           0.166 MB
  | Peak value for overall tracked memory usage on task 0     :           0.696 MB after allocating gradient_basis_wave
  | Largest tracked array allocation on task 0 so far         :           0.397 MB  when allocating gradient_basis_wave
  Note:  These values currently only include a subset of arrays which are explicitly tracked.
  The "true" memory usage will be greater.
------------------------------------------------------------

------------------------------------------------------------
          Begin self-consistency iteration #    7

  Date     :  20200815, Time     :  003840.872
------------------------------------------------------------
  Evaluating new KS density.
  Integration grid: deviation in total charge (<rho> - N_e) =   7.105427E-15
  Pulay mixing of updated and previous charge densities.

  Evaluating partitioned Hartree potential by multipole expansion.
  | Analytical far-field extrapolation by fixed multipoles:
  | Hartree multipole sum: apparent total charge =  -0.620747E-03
  Summing up the Hartree potential.
  Time summed over all CPUs for potential: real work        0.281 s, elapsed        0.281 s
  | RMS charge density error from multipole expansion :   0.259836E-01

  Integrating Hamiltonian matrix: batch-based integration.
  Time summed over all CPUs for integration: real work        0.497 s, elapsed        0.497 s

  Updating Kohn-Sham eigenvalues and eigenvectors using ELSI and the ELPA eigensolver.
  Finished Cholesky decomposition
  | Time :     0.000 s
  Finished transformation to standard eigenproblem
  | Time :     0.000 s
  Starting LAPACK eigensolver
  Finished solving standard eigenproblem
  | Time :     0.001 s
  Finished back-transformation of eigenvectors
  | Time :     0.000 s

[...]
  |   Hirshfeld dipole moment :      0.05989160
  |   Hirshfeld second moments:      0.00106700      -0.02740367      -0.01773902
  |                                 -0.02740367      -0.02254577       0.00923471
  |                                 -0.01773902       0.00923471      -0.01653622
  ----------------------------------------------------------------------
  | Atom    12: O
  |   Hirshfeld charge        :     -0.13925202
  |   Free atom volume        :     23.61338643
  |   Hirshfeld volume        :     20.97332769
  |   Hirshfeld dipole vector :      0.01357099       0.03926210      -0.00709588
  |   Hirshfeld dipole moment :      0.04214304
  |   Hirshfeld second moments:      0.07939603      -0.01709020       0.01926746
  |                                 -0.01709020       0.03190479       0.00423471
  |                                  0.01926746       0.00423471       0.06274294
  ----------------------------------------------------------------------
  | Atom    13: H
  |   Hirshfeld charge        :      0.14129899
  |   Free atom volume        :      9.95071624
  |   Hirshfeld volume        :      6.68209565
  |   Hirshfeld dipole vector :     -0.07255854       0.03408974      -0.04649067
  |   Hirshfeld dipole moment :      0.09267272
  |   Hirshfeld second moments:      0.11301563      -0.00873615       0.00526841
  |                                 -0.00873615       0.07818482       0.02595920
  |                                  0.00526841       0.02595920       0.09867377
  ----------------------------------------------------------------------


  Total energy components:
  | Sum of eigenvalues            :        -181.04113912 Ha       -4926.38004687 eV
  | XC energy correction          :         -42.64955490 Ha       -1160.55343702 eV
  | XC potential correction       :          54.83392391 Ha        1492.10698705 eV
  | Free-atom electrostatic energy:        -146.79190424 Ha       -3994.41094764 eV
  | Hartree energy correction     :          -7.83502444 Ha        -213.20186263 eV
  | vdW energy correction         :          -0.00330221 Ha          -0.08985764 eV
  | Entropy correction            :           0.00000000 Ha           0.00000000 eV
  | ---------------------------
  | Total energy                  :        -323.48700099 Ha       -8802.52916476 eV
  | Total energy, T -> 0          :        -323.48700099 Ha       -8802.52916476 eV  <-- do not rely on this value for anything but (periodic) metals
  | Electronic free energy        :        -323.48700099 Ha       -8802.52916476 eV

  Derived energy quantities:
  | Kinetic energy                :         322.64660841 Ha        8779.66091905 eV
  | Electrostatic energy          :        -603.48075230 Ha      -16421.54678915 eV
  | Energy correction for multipole
  | error in Hartree potential    :           0.04089127 Ha           1.11270798 eV
  | Sum of eigenvalues per atom                           :        -378.95231130 eV
  | Total energy (T->0) per atom                          :        -677.11762806 eV  <-- do not rely on this value for anything but (periodic) metals
  | Electronic free energy per atom                       :        -677.11762806 eV

  atomic forces [eV/Ang]:
  -----------------------
  atom #    1
   Hellmann-Feynman              :  0.404138E+00 -0.611736E-01  0.156901E+01
   Ionic forces                  :  0.000000E+00  0.000000E+00  0.000000E+00
   Multipole                     : -0.107031E+00  0.314837E+00 -0.232561E+00
   Pulay + GGA                   : -0.762210E+00  0.937626E-01 -0.159958E+01
   Van der Waals                 :  0.262990E-02  0.116762E-02 -0.129940E-02
   ----------------------------------------------------------------
   Total forces(   1)            : -0.462472E+00  0.348594E+00 -0.264432E+00
  atom #    2
   Hellmann-Feynman              :  0.331335E+00 -0.577188E-01  0.750579E-01
   Ionic forces                  :  0.000000E+00  0.000000E+00  0.000000E+00
   Multipole                     :  0.176472E+00  0.272565E-01 -0.343269E-01
   Pulay + GGA                   : -0.164355E+00  0.230647E-01 -0.138700E-01
   Van der Waals                 :  0.395507E-02 -0.407527E-02 -0.704852E-02
   ----------------------------------------------------------------
   Total forces(   2)            :  0.347407E+00 -0.114729E-01  0.198124E-01
  atom #    3
   Hellmann-Feynman              :  0.898541E+01  0.138558E+01 -0.542108E+01
   Ionic forces                  :  0.000000E+00  0.000000E+00  0.000000E+00
   Multipole                     : -0.289216E+00  0.176735E+00 -0.103222E+01
   Pulay + GGA                   : -0.840028E+01 -0.149895E+01  0.704563E+01
   Van der Waals                 :  0.382107E-02 -0.509766E-02 -0.859871E-02
   ----------------------------------------------------------------
   Total forces(   3)            :  0.299731E+00  0.582618E-01  0.583736E+00
  atom #    4
   Hellmann-Feynman              :  0.391382E-01  0.181552E+00 -0.717706E+00
   Ionic forces                  :  0.000000E+00  0.000000E+00  0.000000E+00
   Multipole                     : -0.200445E-01 -0.702498E-01 -0.940478E-01
   Pulay + GGA                   :  0.257898E+00  0.207244E+00 -0.896055E-01
   Van der Waals                 : -0.153593E-02  0.350785E-02  0.238272E-02
   ----------------------------------------------------------------
   Total forces(   4)            :  0.275456E+00  0.322054E+00 -0.898977E+00
  atom #    5
   Hellmann-Feynman              : -0.339004E+00  0.300825E-01 -0.112061E+00
   Ionic forces                  :  0.000000E+00  0.000000E+00  0.000000E+00
   Multipole                     : -0.855622E-01  0.337901E-01 -0.526306E-01
   Pulay + GGA                   :  0.206112E+00 -0.101317E+00 -0.305711E-01
   Van der Waals                 : -0.261189E-03 -0.291571E-02 -0.809173E-02
   ----------------------------------------------------------------
   Total forces(   5)            : -0.218715E+00 -0.403605E-01 -0.203354E+00
  atom #    6
   Hellmann-Feynman              :  0.104347E+00 -0.462129E+00  0.152172E+00
   Ionic forces                  :  0.000000E+00  0.000000E+00  0.000000E+00
   Multipole                     : -0.138121E+00  0.570567E+00  0.282230E+00
   Pulay + GGA                   :  0.295763E+00 -0.517677E+00 -0.378273E+00
   Van der Waals                 : -0.342838E-02  0.436044E-02 -0.324475E-02
   ----------------------------------------------------------------
   Total forces(   6)            :  0.258561E+00 -0.404878E+00  0.528837E-01
  atom #    7
   Hellmann-Feynman              : -0.250817E+00 -0.610353E-01 -0.250494E-01
   Ionic forces                  :  0.000000E+00  0.000000E+00  0.000000E+00
   Multipole                     : -0.117050E+00  0.501018E-01  0.270007E-01
   Pulay + GGA                   :  0.102803E+00  0.164270E-01  0.378944E-01
   Van der Waals                 : -0.283530E-02  0.302229E-03  0.666586E-02
   ----------------------------------------------------------------
   Total forces(   7)            : -0.267900E+00  0.579575E-02  0.465115E-01
  atom #    8
   Hellmann-Feynman              :  0.848898E-01 -0.241629E-01  0.142867E+00
   Ionic forces                  :  0.000000E+00  0.000000E+00  0.000000E+00
   Multipole                     :  0.108735E-01  0.652988E-01  0.123280E+00
   Pulay + GGA                   : -0.495061E-01 -0.471542E-01 -0.119587E+00
   Van der Waals                 : -0.327446E-02  0.111039E-01  0.505411E-03
   ----------------------------------------------------------------
   Total forces(   8)            :  0.429828E-01  0.508571E-02  0.147066E+00
  atom #    9
   Hellmann-Feynman              :  0.110216E+00  0.704154E-01 -0.172725E+00
   Ionic forces                  :  0.000000E+00  0.000000E+00  0.000000E+00
   Multipole                     :  0.183272E-01  0.132248E+00 -0.107817E-01
   Pulay + GGA                   : -0.268715E-01 -0.837823E-01  0.599919E-01
   Van der Waals                 : -0.193950E-03  0.692777E-02  0.844243E-02
   ----------------------------------------------------------------
   Total forces(   9)            :  0.101478E+00  0.125808E+00 -0.115073E+00
  atom #   10
   Hellmann-Feynman              :  0.248653E+01  0.433205E+01  0.231951E+01
   Ionic forces                  :  0.000000E+00  0.000000E+00  0.000000E+00
   Multipole                     :  0.394892E-01 -0.317931E-01  0.208293E+00
   Pulay + GGA                   : -0.107501E+01 -0.305605E+01 -0.382151E+00
   Van der Waals                 :  0.321771E-02 -0.130876E-01  0.126299E-02
   ----------------------------------------------------------------
   Total forces(  10)            :  0.145422E+01  0.123112E+01  0.214691E+01
  atom #   11
   Hellmann-Feynman              :  0.405219E+01 -0.242975E+01  0.142026E+02
   Ionic forces                  :  0.000000E+00  0.000000E+00  0.000000E+00
   Multipole                     : -0.242262E-01 -0.455066E+00  0.904678E+00
   Pulay + GGA                   : -0.302668E+01  0.336320E+01 -0.142405E+02
   Van der Waals                 : -0.700956E-03 -0.121487E-01  0.579381E-02
   ----------------------------------------------------------------
   Total forces(  11)            :  0.100058E+01  0.466237E+00  0.872547E+00
  atom #   12
   Hellmann-Feynman              : -0.290074E+01 -0.145868E+02 -0.455491E+00
   Ionic forces                  :  0.000000E+00  0.000000E+00  0.000000E+00
   Multipole                     : -0.101276E+01 -0.153007E+01  0.839253E-01
   Pulay + GGA                   :  0.195786E+01  0.144881E+02 -0.111400E+01
   Van der Waals                 :  0.355679E-05  0.812096E-02  0.331299E-02
   ----------------------------------------------------------------
   Total forces(  12)            : -0.195563E+01 -0.162067E+01 -0.148225E+01
  atom #   13
   Hellmann-Feynman              : -0.956762E+00 -0.293020E+00 -0.120624E+01
   Ionic forces                  :  0.000000E+00  0.000000E+00  0.000000E+00
   Multipole                     : -0.913402E-01  0.869929E-01 -0.206899E-01
   Pulay + GGA                   :  0.170548E+00 -0.279113E+00  0.314764E+00
   Van der Waals                 : -0.139715E-02  0.183417E-02 -0.830979E-04
   ----------------------------------------------------------------
   Total forces(  13)            : -0.878952E+00 -0.483306E+00 -0.912253E+00

  Timings for VdW correction (Tkatchenko-Scheffler 2009 or later):
  | CPU time:        0.090 s, Wall clock time:        0.090 s.
  Removing unitary transformations (pure translations, rotations) from forces on atoms.
  Atomic forces before filtering:
  | Net force on center of mass :  -0.325051E-02  0.227366E-02 -0.687139E-02 eV/A
  | Net torque on center of mass:   0.340530E-02 -0.859187E-05 -0.449170E-02 eV
  Atomic forces after filtering:
  | Net force on center of mass :   0.178406E-15  0.356812E-15 -0.178406E-15 eV/A
  | Net torque on center of mass:   0.613655E-15  0.944085E-15 -0.755268E-15 eV

  Energy and forces in a compact form:
  | Total energy uncorrected      :         -0.880252916476179E+04 eV
  | Total energy corrected        :         -0.880252916476179E+04 eV  <-- do not rely on this value for anything but (periodic) metals
  | Electronic free energy        :         -0.880252916476179E+04 eV
  Total atomic forces (unitary forces cleaned) [eV/Ang]:
  |   1         -0.462230367618559E+00          0.348493347918176E+00         -0.263910481178410E+00
  |   2          0.347649319257544E+00         -0.114090947655406E-01          0.203285729840352E-01
  |   3          0.299965813724820E+00          0.579768057405058E-01          0.584260539070991E+00
  |   4          0.275825270307987E+00          0.321687851550436E+00         -0.898378532633786E+00
  |   5         -0.218593890319160E+00         -0.407568358603209E-01         -0.202886093626703E+00
  |   6          0.258616168207480E+00         -0.404995347634685E+00          0.533078460190969E-01
  |   7         -0.267848010329545E+00          0.551500037277757E-02          0.469391269680838E-01
  |   8          0.430418880059406E-01          0.510437368108468E-02          0.147487032986243E+00
  |   9          0.101395761141486E+00          0.125705265692982E+00         -0.114721651019078E+00
  |  10          0.145466367849642E+01          0.123101984321072E+01          0.214754025424519E+01
  |  11          0.100106884625011E+01          0.466270612780833E+00          0.873193839155721E+00
  |  12         -0.195506907023290E+01         -0.162092817423584E+01         -0.148155726195645E+01
  |  13         -0.878485406891623E+00         -0.483683648451129E+00         -0.911603191014938E+00

  ------------------------------------ 
  Start decomposition of the XC Energy 
  ------------------------------------ 
  X and C from original XC functional choice 
  Hartree-Fock Energy :          0.000000000 Ha              0.000000000 eV
  X Energy            :        -41.045689544 Ha          -1116.910040242 eV
  C Energy            :         -1.603865352 Ha            -43.643396779 eV
  Total XC Energy     :        -42.649554896 Ha          -1160.553437021 eV
  ------------------------------------ 
  LDA X and C from self-consistent density 
  X Energy LDA        :        -37.268683305 Ha          -1014.132471226 eV
  C Energy LDA        :         -3.139665221 Ha            -85.434637519 eV
  ------------------------------------ 
  End decomposition of the XC Energy 
  ------------------------------------ 

------------------------------------------------------------

------------------------------------------------------------------------------
  Final output of selected total energy values:

  The following output summarizes some interesting total energy values
  at the end of a run (AFTER all relaxation, molecular dynamics, etc.).

  | Total energy of the DFT / Hartree-Fock s.c.f. calculation      :          -8802.529164762 eV
  | Final zero-broadening corrected energy (caution - metals only) :          -8802.529164762 eV
  | For reference only, the value of 1 Hartree used in FHI-aims is :             27.211384500 eV

  Before relying on these values, please be sure to understand exactly which
  total energy value is referred to by a given number. Different objects may
  all carry the same name 'total energy'. Definitions:

  Total energy of the DFT / Hartree-Fock s.c.f. calculation:
  | Note that this energy does not include ANY quantities calculated after the
  | s.c.f. cycle, in particular not ANY RPA, MP2, etc. many-body perturbation terms.

  Final zero-broadening corrected energy:
  | For metallic systems only, a broadening of the occupation numbers at the Fermi
  | level can be extrapolated back to zero broadening by an electron-gas inspired
  | formula. For all systems that are not real metals, this value can be
  | meaningless and should be avoided.

------------------------------------------------------------------------------
  Methods described in the following list of references were used in this FHI-aims run.
  If you publish the results, please make sure to cite these reference if they apply.
  FHI-aims is an academic code, and for our developers (often, Ph.D. students
  and postdocs), scientific credit in the community is essential.
  Thank you for helping us!

  For any use of FHI-aims, please cite:

    Volker Blum, Ralf Gehrke, Felix Hanke, Paula Havu, Ville Havu,
    Xinguo Ren, Karsten Reuter, and Matthias Scheffler
    'Ab initio molecular simulations with numeric atom-centered orbitals'
    Computer Physics Communications 180, 2175-2196 (2009)
    http://dx.doi.org/10.1016/j.cpc.2009.06.022


  The scalable eigensolver library ELPA was used in your run.
  ELPA is essential especially for large systems on hundreds or thousands of CPUs.
  For ELPA, please cite:

    Andreas Marek, Volker Blum, Rainer Johanni, Ville Havu, Bruno Lang,
    Thomas Auckenthaler, Alexander Heinecke, Hans-Joachim Bungartz, and Hermann Lederer,
    'The ELPA Library - Scalable Parallel Eigenvalue Solutions
    for Electronic Structure Theory and Computational Science'
    The Journal of Physics: Condensed Matter 26, 213201 (2014).
    http://dx.doi.org/10.1088/0953-8984/26/21/213201


  The ELSI infrastructure was used in your run to solve the Kohn-Sham electronic structure.
  Please check out http://elsi-interchange.org to learn more.
  If scalability is important for your project, please acknowledge ELSI by citing:

    V. W-z. Yu, F. Corsetti, A. Garcia, W. P. Huhn, M. Jacquelin, W. Jia,
    B. Lange, L. Lin, J. Lu, W. Mi, A. Seifitokaldani, A. Vazquez-Mayagoitia,
    C. Yang, H. Yang, and V. Blum
    'ELSI: A unified software interface for Kohn-Sham electronic structure solvers'
    Computer Physics Communications 222, 267-285 (2018).
    http://dx.doi.org/10.1016/j.cpc.2017.09.007


  For the real-space grid partitioning and parallelization used in this calculation, please cite:

    Ville Havu, Volker Blum, Paula Havu, and Matthias Scheffler,
    'Efficient O(N) integration for all-electron electronic structure calculation'
    'using numerically tabulated basis functions'
    Journal of Computational Physics 228, 8367-8379 (2009).
    http://dx.doi.org/10.1016/j.jcp.2009.08.008

  Of course, there are many other important community references, e.g., those cited in the
  above references. Our list is limited to references that describe implementations in the
  FHI-aims code. The reason is purely practical (length of this list) - please credit others as well.

------------------------------------------------------------
          Leaving FHI-aims.
          Date     :  20200815, Time     :  003855.165

          Computational steps:
          | Number of self-consistency cycles          :           16
          | Number of SCF (re)initializations          :            1

          Detailed time accounting                     :  max(cpu_time)    wall_clock(cpu1)
          | Total time                                 :       22.687 s          22.754 s
          | Preparation time                           :        0.145 s           0.146 s
          | Boundary condition initalization           :        0.000 s           0.000 s
          | Grid partitioning                          :        0.111 s           0.112 s
          | Preloading free-atom quantities on grid    :        0.002 s           0.003 s
          | Free-atom superposition energy             :        0.084 s           0.084 s
          | Total time for integrations                :        8.656 s           8.660 s
          | Total time for solution of K.-S. equations :        0.036 s           0.038 s
          | Total time for density & force components  :        7.144 s           7.159 s
          | Total time for mixing                      :        0.214 s           0.219 s
          | Total time for Hartree multipole update    :        0.142 s           0.144 s
          | Total time for Hartree multipole sum       :        5.750 s           5.758 s
          | Total time for total energy evaluation     :        0.003 s           0.005 s
          | Total time for vdW correction              :        0.090 s           0.090 s

          Partial memory accounting:
          | Residual value for overall tracked memory usage across tasks :           0.000 MB (should be 0.000 MB)
          | Peak values for overall tracked memory usage (after allocating hessian_basis_wave):
          |   Minimum:        1.622 MB (on task 1)
          |   Maximum:        1.622 MB (on task 1)
          |   Average:        1.622 MB
          | Largest tracked array allocation (hessian_basis_wave):
          |   Minimum:        0.794 MB (on task 1)
          |   Maximum:        0.794 MB (on task 1)
          |   Average:        0.794 MB
          Note:  These values currently only include a subset of arrays which are explicitly tracked.
          The "true" memory usage will be greater.

          Have a nice day.
------------------------------------------------------------
