  MPI-parallelism will be employed.
------------------------------------------------------------
          Invoking FHI-aims ...
          Version 171221_1
          Compiled on 2019/09/09 at 14:39:39 on host puhti-login2.bullx.

          When using FHI-aims, please cite the following reference:

          Volker Blum, Ralf Gehrke, Felix Hanke, Paula Havu,
          Ville Havu, Xinguo Ren, Karsten Reuter, and Matthias Scheffler,
          'Ab Initio Molecular Simulations with Numeric Atom-Centered Orbitals',
          Computer Physics Communications 180, 2175-2196 (2009)

          For any questions about FHI-aims, please visit the aimsclub website
          with its forums and wiki. Contributions to both the forums and the
          wiki are warmly encouraged - they are for you, and everyone is welcome there.

------------------------------------------------------------



  Date     :  20200710, Time     :  152312.162
  Time zero on CPU 1             :   0.114070000000000E-01  s.
  Internal wall clock time zero  :           363626592.162  s.

  FHI-aims created a unique identifier for this run for later identification
  aims_uuid : 953C4B6C-A69E-49E8-A2CC-3976FC9EE9D9

  Using        1 parallel tasks.
  Task        0 on host r18c43.bullx reporting.

  Performing system and environment tests:
  | Environment variable OMP_NUM_THREADS correctly set to 1.
  | Stacksize not measured: no C compiler
  | Checking for scalapack...
  | Testing pdtran()...
  | All pdtran() tests passed.

  Obtaining array dimensions for all initial allocations:
  
  -----------------------------------------------------------------------
  Parsing control.in (first pass over file, find array dimensions only).
  The contents of control.in will be repeated verbatim below
  unless switched off by setting 'verbatim_writeout .false.' .
  in the first line of control.in .
  -----------------------------------------------------------------------
  
  #########################################################################################
  #
  #  Volker Blum, FHI 2009 : Test run input file control.in for simple H2O
  #
  #########################################################################################
  #
  #  Physical model
  #
    xc                 pbe
    vdw_correction_hirshfeld
    spin               none
    relativistic       none
    charge             0.
  #
  #  SCF convergence
  #
    occupation_type    gaussian 0.01
    mixer              pulay
      n_max_pulay        10
      charge_mix_param   0.2
    sc_accuracy_rho    1E-5
    sc_accuracy_eev    1E-3
    sc_accuracy_etot   1E-6
    sc_accuracy_forces 1E-4
    sc_iter_limit      100
  #
  #  Relaxation
  #
  #  relax_geometry   bfgs 1.e-3
  #
  ################################################################################
  #
  #  FHI-aims code project
  #  VB, Fritz-Haber Institut, 2009
  #
  #  Suggested "light" defaults for H atom (to be pasted into control.in file)
  #  Be sure to double-check any results obtained with these settings for post-processing,
  #  e.g., with the "tight" defaults and larger basis sets.
  #
  ################################################################################
    species        H
  #     global species definitions
      nucleus             1
      mass                1.00794
  #
      l_hartree           4
  #
      cut_pot             3.5  1.5  1.0
      basis_dep_cutoff    1e-4
  #
      radial_base         24 5.0
      radial_multiplier   1
      angular_grids       specified
        division   0.2421   50
        division   0.3822  110
        division   0.4799  194
        division   0.5341  302
  #      division   0.5626  434
  #      division   0.5922  590
  #      division   0.6542  770
  #      division   0.6868 1202
  #      outer_grid  770
        outer_grid  302
  ################################################################################
  #
  #  Definition of "minimal" basis
  #
  ################################################################################
  #     valence basis states
      valence      1  s   1.
  #     ion occupancy
      ion_occ      1  s   0.5
  ################################################################################
  #
  #  Suggested additional basis functions. For production calculations,
  #  uncomment them one after another (the most important basis functions are
  #  listed first).
  #
  #  Basis constructed for dimers: 0.5 A, 0.7 A, 1.0 A, 1.5 A, 2.5 A
  #
  ################################################################################
  #  "First tier" - improvements: -1014.90 meV to -62.69 meV
       hydro 2 s 2.1
       hydro 2 p 3.5
  #  "Second tier" - improvements: -12.89 meV to -1.83 meV
  #     hydro 1 s 0.85
  #     hydro 2 p 3.7
  #     hydro 2 s 1.2
  #     hydro 3 d 7
  #  "Third tier" - improvements: -0.25 meV to -0.12 meV
  #     hydro 4 f 11.2
  #     hydro 3 p 4.8
  #     hydro 4 d 9
  #     hydro 3 s 3.2
  ################################################################################
  #
  #  FHI-aims code project
  #  VB, Fritz-Haber Institut, 2009
  #
  #  Suggested "light" defaults for C atom (to be pasted into control.in file)
  #  Be sure to double-check any results obtained with these settings for post-processing,
  #  e.g., with the "tight" defaults and larger basis sets.
  #
  ################################################################################
    species        C
  #     global species definitions
      nucleus             6
      mass                12.0107
  #
      l_hartree           4
  #
      cut_pot             3.5  1.5  1.0
      basis_dep_cutoff    1e-4
  #
      radial_base         34 5.0
      radial_multiplier   1
      angular_grids specified
        division   0.3326   50
        division   0.5710  110
        division   0.7727  194
        division   0.8772  302
  #      division   0.9334  434
  #      division   0.9625  590
  #      division   0.9924  770
  #      division   1.0230  974
  #      division   1.4589 1202
  #     outer_grid  974
       outer_grid 302
  ################################################################################
  #
  #  Definition of "minimal" basis
  #
  ################################################################################
  #     valence basis states
      valence      2  s   2.
      valence      2  p   2.
  #     ion occupancy
      ion_occ      2  s   1.
      ion_occ      2  p   1.
  ################################################################################
  #
  #  Suggested additional basis functions. For production calculations,
  #  uncomment them one after another (the most important basis functions are
  #  listed first).
  #
  #  Constructed for dimers: 1.0 A, 1.25 A, 1.5 A, 2.0 A, 3.0 A
  #
  ################################################################################
  #  "First tier" - improvements: -1214.57 meV to -155.61 meV
       hydro 2 p 1.7
       hydro 3 d 6
       hydro 2 s 4.9
  #  "Second tier" - improvements: -67.75 meV to -5.23 meV
  #     hydro 4 f 9.8
  #     hydro 3 p 5.2
  #     hydro 3 s 4.3
  #     hydro 5 g 14.4
  #     hydro 3 d 6.2
  #  "Third tier" - improvements: -2.43 meV to -0.60 meV
  #     hydro 2 p 5.6
  #     hydro 2 s 1.4
  #     hydro 3 d 4.9
  #     hydro 4 f 11.2
  #  "Fourth tier" - improvements: -0.39 meV to -0.18 meV
  #     hydro 2 p 2.1
  #     hydro 5 g 16.4
  #     hydro 4 d 13.2
  #     hydro 3 s 13.6
  #     hydro 4 f 17.6
  #  Further basis functions - improvements: -0.08 meV and below
  #     hydro 3 s 2
  #     hydro 3 p 6
  #     hydro 4 d 20
  ################################################################################
  #
  #  FHI-aims code project
  #  VB, Fritz-Haber Institut, 2009
  #
  #  Suggested "light" defaults for N atom (to be pasted into control.in file)
  #  Be sure to double-check any results obtained with these settings for post-processing,
  #  e.g., with the "tight" defaults and larger basis sets.
  #
  ################################################################################
    species        N
  #     global species definitions
      nucleus             7
      mass                14.0067
  #
      l_hartree           4
  #
      cut_pot             3.5  1.5  1.0
      basis_dep_cutoff    1e-4
  #
      radial_base         35 5.0
      radial_multiplier   1
      angular_grids       specified
        division   0.2599   50
        division   0.4601  110
        division   0.5885  194
        division   0.6503  302
  #      division   0.6939  434
  #      division   0.7396  590
  #      division   0.7632  770
  #      division   0.8122  974
  #      division   1.1604 1202
  #      outer_grid  974
        outer_grid  302
  ################################################################################
  #
  #  Definition of "minimal" basis
  #
  ################################################################################
  #     valence basis states
      valence      2  s   2.
      valence      2  p   3.
  #     ion occupancy
      ion_occ      2  s   1.
      ion_occ      2  p   2.
  ################################################################################
  #
  #  Suggested additional basis functions. For production calculations,
  #  uncomment them one after another (the most important basis functions are
  #  listed first).
  #
  #  Constructed for dimers: 1.0 A, 1.1 A, 1.5 A, 2.0 A, 3.0 A
  #
  ################################################################################
  #  "First tier" - improvements: -1193.42 meV to -220.60 meV
       hydro 2 p 1.8
       hydro 3 d 6.8
       hydro 3 s 5.8
  #  "Second tier" - improvements: -80.21 meV to -6.86 meV
  #     hydro 4 f 10.8
  #     hydro 3 p 5.8
  #     hydro 1 s 0.8
  #     hydro 5 g 16
  #     hydro 3 d 4.9
  #  "Third tier" - improvements: -4.29 meV to -0.53 meV
  #     hydro 3 s 16
  #     ionic 2 p auto
  #     hydro 3 d 6.6
  #     hydro 4 f 11.6
  #  "Fourth tier" - improvements: -0.75 meV to -0.25 meV
  #     hydro 2 p 4.5
  #     hydro 2 s 2.4
  #     hydro 5 g 14.4
  #     hydro 4 d 14.4
  #     hydro 4 f 16.8
  # Further basis functions - -0.21 meV and below
  #     hydro 3 p 14.8
  #     hydro 3 s 4.4
  #     hydro 3 d 19.6
  #     hydro 5 g 12.8
  ################################################################################
  #
  #  FHI-aims code project
  #  VB, Fritz-Haber Institut, 2009
  #
  #  Suggested "light" defaults for O atom (to be pasted into control.in file)
  #  Be sure to double-check any results obtained with these settings for post-processing,
  #  e.g., with the "tight" defaults and larger basis sets.
  #
  ################################################################################
    species        O
  #     global species definitions
      nucleus             8
      mass                15.9994
  #
      l_hartree           4
  #
      cut_pot             3.5  1.5  1.0
      basis_dep_cutoff    1e-4
  #
      radial_base         36 5.0
      radial_multiplier   1
       angular_grids specified
        division   0.2659   50
        division   0.4451  110
        division   0.6052  194
        division   0.7543  302
  #      division   0.8014  434
  #      division   0.8507  590
  #      division   0.8762  770
  #      division   0.9023  974
  #      division   1.2339 1202
  #      outer_grid 974
        outer_grid 302
  ################################################################################
  #
  #  Definition of "minimal" basis
  #
  ################################################################################
  #     valence basis states
      valence      2  s   2.
      valence      2  p   4.
  #     ion occupancy
      ion_occ      2  s   1.
      ion_occ      2  p   3.
  ################################################################################
  #
  #  Suggested additional basis functions. For production calculations,
  #  uncomment them one after another (the most important basis functions are
  #  listed first).
  #
  #  Constructed for dimers: 1.0 A, 1.208 A, 1.5 A, 2.0 A, 3.0 A
  #
  ################################################################################
  #  "First tier" - improvements: -699.05 meV to -159.38 meV
       hydro 2 p 1.8
       hydro 3 d 7.6
       hydro 3 s 6.4
  #  "Second tier" - improvements: -49.91 meV to -5.39 meV
  #     hydro 4 f 11.6
  #     hydro 3 p 6.2
  #     hydro 3 d 5.6
  #     hydro 5 g 17.6
  #     hydro 1 s 0.75
  #  "Third tier" - improvements: -2.83 meV to -0.50 meV
  #     ionic 2 p auto
  #     hydro 4 f 10.8
  #     hydro 4 d 4.7
  #     hydro 2 s 6.8
  #  "Fourth tier" - improvements: -0.40 meV to -0.12 meV
  #     hydro 3 p 5
  #     hydro 3 s 3.3
  #     hydro 5 g 15.6
  #     hydro 4 f 17.6
  #     hydro 4 d 14
  # Further basis functions - -0.08 meV and below
  #     hydro 3 s 2.1
  #     hydro 4 d 11.6
  #     hydro 3 p 16
  #     hydro 2 s 17.2
  
  -----------------------------------------------------------------------
  Completed first pass over input file control.in .
  -----------------------------------------------------------------------
  
  
  -----------------------------------------------------------------------
  Parsing geometry.in (first pass over file, find array dimensions only).
  The contents of geometry.in will be repeated verbatim below
  unless switched off by setting 'verbatim_writeout .false.' .
  in the first line of geometry.in .
  -----------------------------------------------------------------------
  
  atom  0.00000 0.00000 0.00000 C
  atom  1.09300 0.00000 0.00000 H
  atom  -0.47961 0.00000 -1.41207 N
  atom  0.29117 -0.28107 -2.01930 H
  atom  -1.25121 -0.65867 -1.49520 H
  atom  -0.49584 1.26211 0.72868 C
  atom  -1.58789 1.28919 0.74431 H
  atom  -0.13407 1.27425 1.75947 H
  atom  -0.13407 2.16087 0.22380 H
  atom  -0.39425 -1.28861 0.74398 C
  atom  -0.10189 -1.56493 1.88303 O
  atom  -1.10210 -2.13717 0.06896 O
  atom  -1.65322 -1.50395 -0.42122 H
  
  -----------------------------------------------------------------------
  Completed first pass over input file geometry.in .
  -----------------------------------------------------------------------
  

  Basic array size parameters:
  | Number of species                 :        4
  | Number of atoms                   :       13
  | Max. basis fn. angular momentum   :        2
  | Max. atomic/ionic basis occupied n:        2
  | Max. number of basis fn. types    :        2
  | Max. radial fns per species/type  :        3
  | Max. logarithmic grid size        :     1301
  | Max. radial integration grid size :       36
  | Max. angular integration grid size:      302
  | Max. angular grid division number :        8
  | Radial grid for Hartree potential :     1301
  | Number of spin channels           :        1

------------------------------------------------------------
          Reading file control.in.
------------------------------------------------------------
  XC: Using PBE gradient-corrected functionals.
  Spin treatment: No spin polarisation.
  Non-relativistic treatment of kinetic energy.
  Charge =   0.000000E+00: Neutral system requested explicitly.
  Occupation type: Gaussian broadening, width =   0.100000E-01 eV.
  Using pulay charge density mixing.
  Pulay mixing - number of memorized iterations:   10
  Charge density mixing - mixing parameter:     0.2000
  Convergence accuracy of self-consistent charge density:  0.1000E-04
  Convergence accuracy of sum of eigenvalues:  0.1000E-02
  Convergence accuracy of total energy:  0.1000E-05
  Convergence accuracy of forces:  0.1000E-03
  Maximum number of s.-c. iterations  :   100
 
  Reading configuration options for species H                   .
  | Found nuclear charge :   1.0000
  | Found atomic mass :    1.00794000000000      amu
  | Found l_max for Hartree potential  :   4
  | Found cutoff potl. onset [A], width [A], scale factor :    3.50000    1.50000    1.00000
  | Threshold for basis-dependent cutoff potential is   0.100000E-03
  | Found data for basic radial integration grid :    24 points, outermost radius =    5.000 A
  | Found multiplier for basic radial grid :   1
  | Found angular grid specification: user-specified.
  | Specified grid contains     5 separate shells.
  | Check grid settings after all constraints further below.
  | Found free-atom valence shell :  1 s   1.000
  | No ionic wave fns used. Skipping ion_occ.
  | Found hydrogenic basis function :  2 s   2.100
  | Found hydrogenic basis function :  2 p   3.500
  Species H                   : Missing cutoff potential type.
  Defaulting to exp(1/x)/(1-x)^2 type cutoff potential.
  Species H : No 'logarithmic' tag. Using default grid for free atom:
  | Default logarithmic grid data [bohr] : 0.1000E-03 0.1000E+03 0.1012E+01
  Species H : On-site basis accuracy parameter (for Gram-Schmidt orthonormalisation) not specified.
  Using default value basis_acc =  0.1000000E-03.
  Species H                   : Using default innermost maximum threshold i_radial=  2 for radial functions.
  Species H                   : Default cutoff onset for free atom density etc. : 0.35000000E+01 AA.
  Species H                   : Basic radial grid will be enhanced according to radial_multiplier =   1, to contain    24 grid points.
 
  Reading configuration options for species C                   .
  | Found nuclear charge :   6.0000
  | Found atomic mass :    12.0107000000000      amu
  | Found l_max for Hartree potential  :   4
  | Found cutoff potl. onset [A], width [A], scale factor :    3.50000    1.50000    1.00000
  | Threshold for basis-dependent cutoff potential is   0.100000E-03
  | Found data for basic radial integration grid :    34 points, outermost radius =    5.000 A
  | Found multiplier for basic radial grid :   1
  | Found angular grid specification: user-specified.
  | Specified grid contains     5 separate shells.
  | Check grid settings after all constraints further below.
  | Found free-atom valence shell :  2 s   2.000
  | Found free-atom valence shell :  2 p   2.000
  | No ionic wave fns used. Skipping ion_occ.
  | No ionic wave fns used. Skipping ion_occ.
  | Found hydrogenic basis function :  2 p   1.700
  | Found hydrogenic basis function :  3 d   6.000
  | Found hydrogenic basis function :  2 s   4.900
  Species C                   : Missing cutoff potential type.
  Defaulting to exp(1/x)/(1-x)^2 type cutoff potential.
  Species C : No 'logarithmic' tag. Using default grid for free atom:
  | Default logarithmic grid data [bohr] : 0.1000E-03 0.1000E+03 0.1012E+01
  Species C : On-site basis accuracy parameter (for Gram-Schmidt orthonormalisation) not specified.
  Using default value basis_acc =  0.1000000E-03.
  Species C                   : Using default innermost maximum threshold i_radial=  2 for radial functions.
  Species C                   : Default cutoff onset for free atom density etc. : 0.35000000E+01 AA.
  Species C                   : Basic radial grid will be enhanced according to radial_multiplier =   1, to contain    34 grid points.
 
  Reading configuration options for species N                   .
  | Found nuclear charge :   7.0000
  | Found atomic mass :    14.0067000000000      amu
  | Found l_max for Hartree potential  :   4
  | Found cutoff potl. onset [A], width [A], scale factor :    3.50000    1.50000    1.00000
  | Threshold for basis-dependent cutoff potential is   0.100000E-03
  | Found data for basic radial integration grid :    35 points, outermost radius =    5.000 A
  | Found multiplier for basic radial grid :   1
  | Found angular grid specification: user-specified.
  | Specified grid contains     5 separate shells.
  | Check grid settings after all constraints further below.
  | Found free-atom valence shell :  2 s   2.000
  | Found free-atom valence shell :  2 p   3.000
  | No ionic wave fns used. Skipping ion_occ.
  | No ionic wave fns used. Skipping ion_occ.
  | Found hydrogenic basis function :  2 p   1.800
  | Found hydrogenic basis function :  3 d   6.800
  | Found hydrogenic basis function :  3 s   5.800
  Species N                   : Missing cutoff potential type.
  Defaulting to exp(1/x)/(1-x)^2 type cutoff potential.
  Species N : No 'logarithmic' tag. Using default grid for free atom:
  | Default logarithmic grid data [bohr] : 0.1000E-03 0.1000E+03 0.1012E+01
  Species N : On-site basis accuracy parameter (for Gram-Schmidt orthonormalisation) not specified.
  Using default value basis_acc =  0.1000000E-03.
  Species N                   : Using default innermost maximum threshold i_radial=  2 for radial functions.
  Species N                   : Default cutoff onset for free atom density etc. : 0.35000000E+01 AA.
  Species N                   : Basic radial grid will be enhanced according to radial_multiplier =   1, to contain    35 grid points.
 
  Reading configuration options for species O                   .
  | Found nuclear charge :   8.0000
  | Found atomic mass :    15.9994000000000      amu
  | Found l_max for Hartree potential  :   4
  | Found cutoff potl. onset [A], width [A], scale factor :    3.50000    1.50000    1.00000
  | Threshold for basis-dependent cutoff potential is   0.100000E-03
  | Found data for basic radial integration grid :    36 points, outermost radius =    5.000 A
  | Found multiplier for basic radial grid :   1
  | Found angular grid specification: user-specified.
  | Specified grid contains     5 separate shells.
  | Check grid settings after all constraints further below.
  | Found free-atom valence shell :  2 s   2.000
  | Found free-atom valence shell :  2 p   4.000
  | No ionic wave fns used. Skipping ion_occ.
  | No ionic wave fns used. Skipping ion_occ.
  | Found hydrogenic basis function :  2 p   1.800
  | Found hydrogenic basis function :  3 d   7.600
  | Found hydrogenic basis function :  3 s   6.400
  Species O                   : Missing cutoff potential type.
  Defaulting to exp(1/x)/(1-x)^2 type cutoff potential.
  Species O : No 'logarithmic' tag. Using default grid for free atom:
  | Default logarithmic grid data [bohr] : 0.1000E-03 0.1000E+03 0.1012E+01
  Species O : On-site basis accuracy parameter (for Gram-Schmidt orthonormalisation) not specified.
  Using default value basis_acc =  0.1000000E-03.
  Species O                   : Using default innermost maximum threshold i_radial=  2 for radial functions.
  Species O                   : Default cutoff onset for free atom density etc. : 0.35000000E+01 AA.
  Species O                   : Basic radial grid will be enhanced according to radial_multiplier =   1, to contain    36 grid points.
 
  Finished reading input file 'control.in'. Consistency checks are next.
 
  MPI_IN_PLACE appears to work with this MPI implementation.
  | Keeping use_mpi_in_place .true. (see manual).
  Target number of points in a grid batch is not set. Defaulting to  100
  Method for grid partitioning is not set. Defaulting to parallel hash+maxmin partitioning.
  Batch size limit is not set. Defaulting to    200
  By default, will store active basis functions for each batch.
  If in need of memory, prune_basis_once .false. can be used to disable this option.
  communication_type for Hartree potential was not specified.
  Defaulting to calc_hartree .
  Pulay mixer: Number of initial linear mixing iterations not set.
  Defaulting to    0 iterations.
  Work space size for distributed Hartree potential not set.
  Defaulting to   0.200000E+03 MB.
  Algorithm-dependent basis array size parameters:
  | n_max_pulay                         :       10
  Presetting      1001 iterations before the initial mixing cycle
  is restarted anyway using the sc_init_iter criterion / keyword.
  Presetting a factor      1.000 between actual scf density residual
  and density convergence criterion sc_accuracy_rho below which sc_init_iter
  takes no effect.
  Geometry relaxation not requested: no relaxation will be performed.
  Handling of forces: Unphysical translation and rotation will be removed from forces.
  No accuracy limit for integral partition fn. given. Defaulting to  0.1000E-14.
  No threshold value for u(r) in integrations given. Defaulting to  0.1000E-05.
  No accuracy for occupation numbers given. Defaulting to  0.1000E-12.
  No threshold value for occupation numbers given. Defaulting to  0.0000E+00.
  No accuracy for fermi level given. Defaulting to  0.1000E-19.
  Maximum # of iterations to find E_F not set. Defaulting to  200.
  Preferred method for the eigenvalue solver ('KS_method') not specified in 'control.in'.
  Defaulting to serial version, 'lapack_fast'.
  Will not use alltoall communication since running on < 1024 CPUs.
  Threshold for basis singularities not set.
  Default threshold for basis singularities:  0.1000E-04
  partition_type (choice of integration weights) for integrals was not specified.
  | Using a version of the partition function of Stratmann and coworkers ('stratmann_smoother').
  | At each grid point, the set of atoms used to build the partition table is smoothly restricted to
  | only those atoms whose free-atom density would be non-zero at that grid point.
  Partitioning for Hartree potential was not defined. Using partition_type for integrals.
  | Adjusted default value of keyword multip_moments_threshold to:       0.10000000E-11
  | This value may affect high angular momentum components of the Hartree potential in periodic systems.
  No q(lm)/r^(l+1) cutoff set for long-range Hartree potential.
  | Using default value of  0.100000E-09 .
  | Verify using the multipole_threshold keyword.
  Defaulting to new monopole extrapolation.
  Density update method: automatic selection selected.
------------------------------------------------------------


------------------------------------------------------------
          Reading geometry description geometry.in.
------------------------------------------------------------
  Input structure read successfully.
  The structure contains       13 atoms,  and a total of         48.000 electrons.

  Input geometry:
  | No unit cell requested.
  | Atomic structure:
  |       Atom                x [A]            y [A]            z [A]
  |    1: Species C             0.00000000        0.00000000        0.00000000
  |    2: Species H             1.09300000        0.00000000        0.00000000
  |    3: Species N            -0.47961000        0.00000000       -1.41207000
  |    4: Species H             0.29117000       -0.28107000       -2.01930000
  |    5: Species H            -1.25121000       -0.65867000       -1.49520000
  |    6: Species C            -0.49584000        1.26211000        0.72868000
  |    7: Species H            -1.58789000        1.28919000        0.74431000
  |    8: Species H            -0.13407000        1.27425000        1.75947000
  |    9: Species H            -0.13407000        2.16087000        0.22380000
  |   10: Species C            -0.39425000       -1.28861000        0.74398000
  |   11: Species O            -0.10189000       -1.56493000        1.88303000
  |   12: Species O            -1.10210000       -2.13717000        0.06896000
  |   13: Species H            -1.65322000       -1.50395000       -0.42122000
  |

  | The smallest distance between any two atoms is         0.97209941 AA.
  |
  | The first atom of this pair is atom number                     12 .
  | The second atom of this pair is atom number                    13 .

  Number of empty states per atom not set in control.in - providing a guess from actual geometry.
  | Total number of empty states used during s.c.f. cycle:       29
  If you use a very high smearing, use empty_states (per atom!) in control.in to increase this value.

  Structure-dependent array size parameters: 
  | Maximum number of distinct radial functions  :       21
  | Maximum number of basis functions            :      119
  | Number of Kohn-Sham states (occupied + empty):       53
------------------------------------------------------------

------------------------------------------------------------
          Preparing all fixed parts of the calculation.
------------------------------------------------------------
  Determining machine precision:
    2.225073858507201E-308
  Setting up grids for atomic and cluster calculations.

  Creating wave function, potential, and density for free atoms.

  Species: H

  List of occupied orbitals and eigenvalues:
    n    l              occ      energy [Ha]    energy [eV]
    1    0           1.0000        -0.237589        -6.4651


  Species: C

  List of occupied orbitals and eigenvalues:
    n    l              occ      energy [Ha]    energy [eV]
    1    0           2.0000       -10.038835      -273.1706
    2    0           2.0000        -0.502696       -13.6791
    2    1           2.0000        -0.191971        -5.2238


  Species: N

  List of occupied orbitals and eigenvalues:
    n    l              occ      energy [Ha]    energy [eV]
    1    0           2.0000       -14.128000      -384.4424
    2    0           2.0000        -0.681077       -18.5330
    2    1           3.0000        -0.259788        -7.0692


  Species: O

  List of occupied orbitals and eigenvalues:
    n    l              occ      energy [Ha]    energy [eV]
    1    0           2.0000       -18.898188      -514.2459
    2    0           2.0000        -0.878505       -23.9053
    2    1           4.0000        -0.331779        -9.0282

  Creating fixed part of basis set: Ionic, confined, hydrogenic.
 
  H                    hydrogenic:
 
  List of hydrogenic basis orbitals: 
    n    l      effective z      eigenvalue [eV]  inner max. [A]     outer max. [A]     outer radius [A]   
    2    0         2.100000       -14.9728           0.193243           1.317208           4.583499
    2    1         3.500000       -41.6669           0.602369           0.602369           3.723403
 
 
  C                    hydrogenic:
 
  List of hydrogenic basis orbitals: 
    n    l      effective z      eigenvalue [eV]  inner max. [A]     outer max. [A]     outer radius [A]   
    2    1         1.700000        -9.7616           1.230570           1.230570           4.607917
    3    2         6.000000       -54.4224           0.792453           0.792453           3.883070
    2    0         4.900000       -81.6679           0.082559           0.562749           3.078220
 
 
  N                    hydrogenic:
 
  List of hydrogenic basis orbitals: 
    n    l      effective z      eigenvalue [eV]  inner max. [A]     outer max. [A]     outer radius [A]   
    2    1         1.800000       -10.9749           1.177451           1.177451           4.573712
    3    2         6.800000       -69.9026           0.704619           0.704619           3.538137
    3    0         5.800000       -50.8545           0.067388           1.191934           4.250239
 
 
  O                    hydrogenic:
 
  List of hydrogenic basis orbitals: 
    n    l      effective z      eigenvalue [eV]  inner max. [A]     outer max. [A]     outer radius [A]   
    2    1         1.800000       -10.9749           1.164242           1.164242           4.578029
    3    2         7.600000       -87.3180           0.624125           0.624125           3.251020
    3    0         6.400000       -61.9207           0.061167           1.081902           4.001998
 

  Adding cutoff potential to free-atom effective potential.
  Creating atomic-like basis functions for current effective potential.

  Species H                   :

  List of atomic basis orbitals and eigenvalues:
    n    l      energy [Ha]    energy [eV]    outer radius [A]
    1    0        -0.237589        -6.4651       4.527807


  Species C                   :

  List of atomic basis orbitals and eigenvalues:
    n    l      energy [Ha]    energy [eV]    outer radius [A]
    1    0       -10.038835      -273.1706       1.934409
    2    0        -0.502696       -13.6791       4.496620
    2    1        -0.191971        -5.2238       4.551928


  Species N                   :

  List of atomic basis orbitals and eigenvalues:
    n    l      energy [Ha]    energy [eV]    outer radius [A]
    1    0       -14.128000      -384.4424       1.637919
    2    0        -0.681077       -18.5330       4.463241
    2    1        -0.259788        -7.0692       4.518138


  Species O                   :

  List of atomic basis orbitals and eigenvalues:
    n    l      energy [Ha]    energy [eV]    outer radius [A]
    1    0       -18.898188      -514.2459       1.415765
    2    0        -0.878505       -23.9053       4.413171
    2    1        -0.331779        -9.0282       4.522403

  Assembling full basis from fixed parts.
  | Species H :   atomic orbital   1 s accepted.
  | Species H :    hydro orbital   2 s accepted.
  | Species H :    hydro orbital   2 p accepted.
  | Species C :   atomic orbital   1 s accepted.
  | Species C :    hydro orbital   2 s accepted.
  | Species C :   atomic orbital   2 s accepted.
  | Species C :   atomic orbital   2 p accepted.
  | Species C :    hydro orbital   2 p accepted.
  | Species C :    hydro orbital   3 d accepted.
  | Species N :   atomic orbital   1 s accepted.
  | Species N :    hydro orbital   3 s accepted.
  | Species N :   atomic orbital   2 s accepted.
  | Species N :   atomic orbital   2 p accepted.
  | Species N :    hydro orbital   2 p accepted.
  | Species N :    hydro orbital   3 d accepted.
  | Species O :   atomic orbital   1 s accepted.
  | Species O :    hydro orbital   3 s accepted.
  | Species O :   atomic orbital   2 s accepted.
  | Species O :   atomic orbital   2 p accepted.
  | Species O :    hydro orbital   2 p accepted.
  | Species O :    hydro orbital   3 d accepted.
 
  Basis size parameters after reduction:
  | Total number of radial functions:       21
  | Total number of basis functions :      119
 
  Per-task memory consumption for arrays in subroutine allocate_ext:
  |           5.250512MB.
  Testing on-site integration grid accuracy.
  |  Species  Function  <phi|h_atom|phi> (log., in eV)  <phi|h_atom|phi> (rad., in eV)
           1        1                 -6.4663192853                 -6.4651273558
           1        2                 13.7111246313                 13.7170609718
           1        3                 25.2673269279                 25.2674696378
           2        4               -273.1705927641               -273.1705631568
           2        5                -10.7109323383                -10.7107120029
           2        6                 17.4381822266                 17.4352413244
           2        7                 -5.2255326521                 -5.2270484734
           2        8                  8.6835629259                  8.6603288385
           2        9                 27.4952418996                 27.4953360207
           3       10               -384.4424306495               -384.4423701208
           3       11                 12.5842251816                 12.5842222903
           3       12                -15.7264628251                -15.7264433455
           3       13                 -7.0696854293                 -7.0701769954
           3       14                  8.8090390882                  8.7901077751
           3       15                 35.9586762123                 35.9588528632
           4       16               -514.2458688638               -514.2457643834
           4       17                 15.1795651126                 15.1795290741
           4       18                -21.5359799773                -21.5360846186
           4       19                 -9.0283069236                 -9.0284644067
           4       20                  8.3027758564                  8.2834874195
           4       21                 45.8339351984                 45.8338762259

  Preparing densities etc. for the partition functions (integrals / Hartree potential).

  Preparations completed.
  max(cpu_time)          :      0.144 s.
  Wall clock time (cpu1) :      0.145 s.
------------------------------------------------------------

------------------------------------------------------------
          Begin self-consistency loop: Initialization.

          Date     :  20200710, Time     :  152312.324
------------------------------------------------------------

  Initializing index lists of integration centers etc. from given atomic structure:
  | Number of centers in hartree potential         :        13
  | Number of centers in hartree multipole         :        13
  | Number of centers in electron density summation:        13
  | Number of centers in basis integrals           :        13
  | Number of centers in integrals                 :        13
  | Number of centers in hamiltonian               :        13
  Partitioning the integration grid into batches with parallel hashing+maxmin method.
  | Number of batches:      949
  | Maximal batch size:     139
  | Minimal batch size:      66
  | Average batch size:      73.389
  | Standard deviation of batch sizes:      18.381

  Integration load balanced across     1 MPI tasks.
  Work distribution over tasks is as follows:
  Task     0 has      69646 integration points.
  Initializing partition tables, free-atom densities, potentials, etc. across the integration grid (initialize_grid_storage).
  | initialize_grid_storage: Actual outermost partition radius vs. multipole_radius_free
  | (-- VB: in principle, multipole_radius_free should be larger, hence this output)
  | Species        1: Confinement radius =              4.999999999999999 AA, multipole_radius_free =              5.054417573612229 AA.
  | Species        1: outer_partition_radius set to              5.054417573612229 AA .
  | Species        2: Confinement radius =              4.999999999999999 AA, multipole_radius_free =              5.019602836301480 AA.
  | Species        2: outer_partition_radius set to              5.019602836301480 AA .
  | Species        3: Confinement radius =              4.999999999999999 AA, multipole_radius_free =              5.043624274424571 AA.
  | Species        3: outer_partition_radius set to              5.043624274424571 AA .
  | Species        4: Confinement radius =              4.999999999999999 AA, multipole_radius_free =              5.048384829883283 AA.
  | Species        4: outer_partition_radius set to              5.048384829883283 AA .
  | Original list of interatomic distances with          13 x         13 entries is created.
  | Net number of integration points:    69646
  | of which are non-zero points    :    59490
  Renormalizing the initial density to the exact electron count on the 3D integration grid.
  | Initial density: Formal number of electrons (from input files) :      48.0000000000
  | Integrated number of electrons on 3D grid     :      47.9999120286
  | Charge integration error                      :      -0.0000879714
  | Normalization factor for density and gradient :       1.0000018327
  Obtaining max. number of non-zero basis functions in each batch (get_n_compute_maxes).
  | Maximal number of non-zero basis functions:      119 in task     0
  Selecting the method for density update.
  Loop over occupied states selected for charge density update.
  Allocating        0.050 MB for KS_eigenvector
  Integrating Hamiltonian matrix: batch-based integration.
  Time summed over all CPUs for integration: real work        0.509 s, elapsed        0.509 s
  Integrating overlap matrix.
  Time summed over all CPUs for integration: real work        0.215 s, elapsed        0.215 s

  Updating Kohn-Sham eigenvalues and eigenvectors using ELSI and the ELPA eigensolver.
  Overlap matrix is nonsingular
  | Lowest eigenvalue of overlap  :  0.38E-02
  | Highest eigenvalue of overlap :  0.64E+01
  Finished singularity check of overlap matrix
  | Time :     0.002 s
  Finished Cholesky decomposition
  | Time :     0.000 s
  Finished transformation to standard eigenproblem
  | Time :     0.000 s
  Starting LAPACK eigensolver
  Finished solving standard eigenproblem
  | Time :     0.002 s
  Finished back-transformation of eigenvectors
  | Time :     0.000 s

  Obtaining occupation numbers and chemical potential using ELSI.
  | Chemical potential (Fermi level):    -9.93439941eV
  Writing Kohn-Sham eigenvalues.

  State    Occupation    Eigenvalue [Ha]    Eigenvalue [eV]
      1       2.00000         -19.008273         -517.24142
      2       2.00000         -18.977137         -516.39418
      3       2.00000         -14.246599         -387.66969
      4       2.00000         -10.166598         -276.64722
      5       2.00000         -10.141751         -275.97108
      6       2.00000         -10.132132         -275.70933
      7       2.00000          -1.183372          -32.20119
      8       2.00000          -1.101913          -29.98457
      9       2.00000          -0.992463          -27.00628
     10       2.00000          -0.862345          -23.46561
     11       2.00000          -0.750999          -20.43572
     12       2.00000          -0.682633          -18.57540
     13       2.00000          -0.649942          -17.68582
     14       2.00000          -0.612233          -16.65971
     15       2.00000          -0.569289          -15.49115
     16       2.00000          -0.565562          -15.38974
     17       2.00000          -0.548048          -14.91314
     18       2.00000          -0.543123          -14.77912
     19       2.00000          -0.515172          -14.01853
     20       2.00000          -0.487895          -13.27629
     21       2.00000          -0.472885          -12.86786
     22       2.00000          -0.428624          -11.66346
     23       2.00000          -0.418170          -11.37897
     24       2.00000          -0.382950          -10.42060
     25       0.00000          -0.152964           -4.16237
     26       0.00000          -0.084521           -2.29994
     27       0.00000          -0.034239           -0.93170
     28       0.00000          -0.025419           -0.69170
     29       0.00000           0.003640            0.09906
     30       0.00000           0.018976            0.51635
     31       0.00000           0.023675            0.64424
     32       0.00000           0.029486            0.80236
     33       0.00000           0.056278            1.53140
     34       0.00000           0.069918            1.90258
     35       0.00000           0.108271            2.94620
     36       0.00000           0.139920            3.80742
     37       0.00000           0.161770            4.40198
     38       0.00000           0.209971            5.71361
     39       0.00000           0.214038            5.82427
     40       0.00000           0.227241            6.18354
     41       0.00000           0.247692            6.74004
     42       0.00000           0.262039            7.13044
     43       0.00000           0.300740            8.18356
     44       0.00000           0.304254            8.27918
     45       0.00000           0.321868            8.75848
     46       0.00000           0.354699            9.65185
     47       0.00000           0.370204           10.07377
     48       0.00000           0.380468           10.35307
     49       0.00000           0.437409           11.90249
     50       0.00000           0.451433           12.28411
     51       0.00000           0.515270           14.02122
     52       0.00000           0.544340           14.81223
     53       0.00000           0.551796           15.01513

  Highest occupied state (VBM) at    -10.42060182 eV
  | Occupation number:      2.00000000

  Lowest unoccupied state (CBM) at    -4.16237482 eV
  | Occupation number:      0.00000000

  Overall HOMO-LUMO gap:      6.25822701 eV.
  Calculating total energy contributions from superposition of free atom densities.

  Total energy components:
  | Sum of eigenvalues            :        -188.88021488 Ha       -5139.69215147 eV
  | XC energy correction          :         -41.80936638 Ha       -1137.69074415 eV
  | XC potential correction       :          53.74830115 Ha        1462.56568870 eV
  | Free-atom electrostatic energy:        -146.80757928 Ha       -3994.83748742 eV
  | Hartree energy correction     :           0.00000000 Ha           0.00000000 eV
  | vdW energy correction         :           0.00000000 Ha           0.00000000 eV
  | Entropy correction            :           0.00000000 Ha           0.00000000 eV
  | ---------------------------
  | Total energy                  :        -323.74885939 Ha       -8809.65469433 eV
  | Total energy, T -> 0          :        -323.74885939 Ha       -8809.65469433 eV  <-- do not rely on this value for anything but (periodic) metals
  | Electronic free energy        :        -323.74885939 Ha       -8809.65469433 eV

  Derived energy quantities:
  | Kinetic energy                :         320.54766022 Ha        8722.54563283 eV
  | Electrostatic energy          :        -602.48715324 Ha      -16394.50958301 eV
  | Energy correction for multipole
  | error in Hartree potential    :           0.00000000 Ha           0.00000000 eV
  | Sum of eigenvalues per atom                           :        -395.36093473 eV
  | Total energy (T->0) per atom                          :        -677.66574572 eV  <-- do not rely on this value for anything but (periodic) metals
  | Electronic free energy per atom                       :        -677.66574572 eV
  Initialize hartree_potential_storage
  Max. number of atoms included in rho_multipole:           13

  End scf initialization - timings             :  max(cpu_time)    wall_clock(cpu1)
  | Time for scf. initialization               :        1.169 s           1.175 s
  | Boundary condition initialization          :        0.000 s           0.001 s
  | Integration                                :        0.723 s           0.724 s
  | Solution of K.-S. eqns.                    :        0.004 s           0.004 s
  | Grid partitioning                          :        0.112 s           0.115 s
  | Preloading free-atom quantities on grid    :        0.002 s           0.002 s
  | Free-atom superposition energy             :        0.085 s           0.085 s
  | Total energy evaluation                    :        0.000 s           0.000 s

  Partial memory accounting:
  | Current value for overall tracked memory usage on task 0  :           0.165 MB
  | Peak value for overall tracked memory usage on task 0     :           0.678 MB after allocating wave
  | Largest tracked array allocation on task 0 so far         :           0.132 MB  when allocating H_times_psi
  Note:  These values currently only include a subset of arrays which are explicitly tracked.
  The "true" memory usage will be greater.
------------------------------------------------------------

------------------------------------------------------------
          Begin self-consistency iteration #    1

  Date     :  20200710, Time     :  152313.499
------------------------------------------------------------
  Evaluating new KS density.
  Integration grid: deviation in total charge (<rho> - N_e) =   4.263256E-14
  Pulay mixing of updated and previous charge densities.

  Evaluating partitioned Hartree potential by multipole expansion.
  | Analytical far-field extrapolation by fixed multipoles:
  | Hartree multipole sum: apparent total charge =  -0.194771E-03
  Summing up the Hartree potential.
  Time summed over all CPUs for potential: real work        0.281 s, elapsed        0.281 s
  | RMS charge density error from multipole expansion :   0.591903E-02

  Integrating Hamiltonian matrix: batch-based integration.
  Time summed over all CPUs for integration: real work        0.497 s, elapsed        0.497 s

  Updating Kohn-Sham eigenvalues and eigenvectors using ELSI and the ELPA eigensolver.
  Finished Cholesky decomposition
  | Time :     0.000 s
  Finished transformation to standard eigenproblem
  | Time :     0.000 s
  Starting LAPACK eigensolver
  Finished solving standard eigenproblem
  | Time :     0.002 s
  Finished back-transformation of eigenvectors
  | Time :     0.000 s

  Obtaining occupation numbers and chemical potential using ELSI.
  | Chemical potential (Fermi level):    -4.86282024eV
  Writing Kohn-Sham eigenvalues.

  State    Occupation    Eigenvalue [Ha]    Eigenvalue [eV]
      1       2.00000         -18.910968         -514.59362
      2       2.00000         -18.832895         -512.46915
      3       2.00000         -14.107340         -383.88025
      4       2.00000         -10.116824         -275.29280
      5       2.00000         -10.067344         -273.94636
      6       2.00000         -10.030152         -272.93433
      7       2.00000          -1.137853          -30.96257
      8       2.00000          -1.038261          -28.25251
      9       2.00000          -0.930175          -25.31134
     10       2.00000          -0.798718          -21.73422
     11       2.00000          -0.700135          -19.05166
     12       2.00000          -0.642589          -17.48573
     13       2.00000          -0.602062          -16.38295
     14       2.00000          -0.553972          -15.07435
     15       2.00000          -0.516175          -14.04584
     16       2.00000          -0.505425          -13.75331
     17       2.00000          -0.492268          -13.39529
     18       2.00000          -0.481922          -13.11376
     19       2.00000          -0.451042          -12.27348
     20       2.00000          -0.435706          -11.85616
     21       2.00000          -0.416743          -11.34015
     22       2.00000          -0.369706          -10.06022
     23       2.00000          -0.348645           -9.48711
     24       2.00000          -0.311347           -8.47219
     25       0.00000          -0.116790           -3.17802
     26       0.00000          -0.066744           -1.81620
     27       0.00000          -0.005901           -0.16058
     28       0.00000           0.011331            0.30832
     29       0.00000           0.041671            1.13392
     30       0.00000           0.055416            1.50794
     31       0.00000           0.060031            1.63352
     32       0.00000           0.068312            1.85885
     33       0.00000           0.092884            2.52751
     34       0.00000           0.107669            2.92983
     35       0.00000           0.135034            3.67447
     36       0.00000           0.166461            4.52964
     37       0.00000           0.182716            4.97197
     38       0.00000           0.240048            6.53203
     39       0.00000           0.243130            6.61590
     40       0.00000           0.261449            7.11438
     41       0.00000           0.276623            7.52728
     42       0.00000           0.296960            8.08069
     43       0.00000           0.337196            9.17556
     44       0.00000           0.341561            9.29436
     45       0.00000           0.353712            9.62498
     46       0.00000           0.394166           10.72581
     47       0.00000           0.402006           10.93914
     48       0.00000           0.420308           11.43717
     49       0.00000           0.472463           12.85637
     50       0.00000           0.485636           13.21481
     51       0.00000           0.547843           14.90756
     52       0.00000           0.577264           15.70816
     53       0.00000           0.582769           15.85794

  Highest occupied state (VBM) at     -8.47218994 eV
  | Occupation number:      2.00000000

  Lowest unoccupied state (CBM) at    -3.17801694 eV
  | Occupation number:      0.00000000

  Overall HOMO-LUMO gap:      5.29417300 eV.

  Total energy components:
  | Sum of eigenvalues            :        -185.59653477 Ha       -5050.33866949 eV
  | XC energy correction          :         -42.13211803 Ha       -1146.47326351 eV
  | XC potential correction       :          54.16795710 Ha        1473.98510810 eV
  | Free-atom electrostatic energy:        -146.80757928 Ha       -3994.83748742 eV
  | Hartree energy correction     :          -3.20058762 Ha         -87.09242045 eV
  | vdW energy correction         :           0.00000000 Ha           0.00000000 eV
  | Entropy correction            :           0.00000000 Ha           0.00000000 eV
  | ---------------------------
  | Total energy                  :        -323.56886261 Ha       -8804.75673277 eV
  | Total energy, T -> 0          :        -323.56886261 Ha       -8804.75673277 eV  <-- do not rely on this value for anything but (periodic) metals
  | Electronic free energy        :        -323.56886261 Ha       -8804.75673277 eV

  Derived energy quantities:
  | Kinetic energy                :         322.31332757 Ha        8770.59188586 eV
  | Electrostatic energy          :        -603.75007215 Ha      -16428.87535512 eV
  | Energy correction for multipole
  | error in Hartree potential    :           0.01229080 Ha           0.33444967 eV
  | Sum of eigenvalues per atom                           :        -388.48758996 eV
  | Total energy (T->0) per atom                          :        -677.28897944 eV  <-- do not rely on this value for anything but (periodic) metals
  | Electronic free energy per atom                       :        -677.28897944 eV

  Self-consistency convergence accuracy:
  | Change of charge density      :  0.5796E+00
  | Change of sum of eigenvalues  :  0.8935E+02 eV
  | Change of total energy        :  0.4898E+01 eV

  End self-consistency iteration #     1       :  max(cpu_time)    wall_clock(cpu1)
  | Time for this iteration                    :        1.193 s           1.196 s
  | Charge density update                      :        0.397 s           0.399 s
  | Density mixing                             :        0.005 s           0.005 s
  | Hartree multipole update                   :        0.009 s           0.009 s
  | Hartree multipole summation                :        0.282 s           0.282 s
  | Integration                                :        0.497 s           0.498 s
  | Solution of K.-S. eqns.                    :        0.002 s           0.002 s
  | Total energy evaluation                    :        0.000 s           0.000 s

  Partial memory accounting:
  | Current value for overall tracked memory usage on task 0  :           0.165 MB
  | Peak value for overall tracked memory usage on task 0     :           0.695 MB after allocating gradient_basis_wave
  | Largest tracked array allocation on task 0 so far         :           0.397 MB  when allocating gradient_basis_wave
  Note:  These values currently only include a subset of arrays which are explicitly tracked.
  The "true" memory usage will be greater.
------------------------------------------------------------

------------------------------------------------------------
          Begin self-consistency iteration #    2

  Date     :  20200710, Time     :  152314.697
------------------------------------------------------------
  Evaluating new KS density.
  Integration grid: deviation in total charge (<rho> - N_e) =   0.000000E+00
  Pulay mixing of updated and previous charge densities.

  Evaluating partitioned Hartree potential by multipole expansion.
  | Analytical far-field extrapolation by fixed multipoles:
  | Hartree multipole sum: apparent total charge =  -0.330327E-03
  Summing up the Hartree potential.
  Time summed over all CPUs for potential: real work        0.286 s, elapsed        0.286 s
  | RMS charge density error from multipole expansion :   0.140079E-01

  Integrating Hamiltonian matrix: batch-based integration.
  Time summed over all CPUs for integration: real work        0.509 s, elapsed        0.509 s

  Updating Kohn-Sham eigenvalues and eigenvectors using ELSI and the ELPA eigensolver.
  Finished Cholesky decomposition
  | Time :     0.000 s
  Finished transformation to standard eigenproblem
  | Time :     0.000 s
  Starting LAPACK eigensolver
  Finished solving standard eigenproblem
  | Time :     0.002 s
  Finished back-transformation of eigenvectors
  | Time :     0.000 s

  Obtaining occupation numbers and chemical potential using ELSI.
  | Chemical potential (Fermi level):    -3.71228649eV
  Highest occupied state (VBM) at     -6.58810332 eV
  | Occupation number:      2.00000000

  Lowest unoccupied state (CBM) at    -1.92121360 eV
  | Occupation number:      0.00000000

  Overall HOMO-LUMO gap:      4.66688971 eV.

  Checking to see if s.c.f. parameters should be adjusted.

  Total energy components:
  | Sum of eigenvalues            :        -182.15656625 Ha       -4956.73236330 eV
  | XC energy correction          :         -42.48307046 Ha       -1156.02316500 eV
  | XC potential correction       :          54.62266574 Ha        1486.35835983 eV
  | Free-atom electrostatic energy:        -146.80757928 Ha       -3994.83748742 eV
  | Hartree energy correction     :          -6.66709171 Ha        -181.42079612 eV
  | vdW energy correction         :           0.00000000 Ha           0.00000000 eV
  | Entropy correction            :           0.00000000 Ha           0.00000000 eV
  | ---------------------------
  | Total energy                  :        -323.49164196 Ha       -8802.65545201 eV
  | Total energy, T -> 0          :        -323.49164196 Ha       -8802.65545201 eV  <-- do not rely on this value for anything but (periodic) metals
  | Electronic free energy        :        -323.49164196 Ha       -8802.65545201 eV

  Derived energy quantities:
  | Kinetic energy                :         323.60950168 Ha        8805.86257814 eV
  | Electrostatic energy          :        -604.61807319 Ha      -16452.49486515 eV
  | Energy correction for multipole
  | error in Hartree potential    :           0.02696187 Ha           0.73366974 eV
  | Sum of eigenvalues per atom                           :        -381.28710487 eV
  | Total energy (T->0) per atom                          :        -677.12734246 eV  <-- do not rely on this value for anything but (periodic) metals
  | Electronic free energy per atom                       :        -677.12734246 eV

  Self-consistency convergence accuracy:
  | Change of charge density      :  0.3632E+00
  | Change of sum of eigenvalues  :  0.9361E+02 eV
  | Change of total energy        :  0.2101E+01 eV

  End self-consistency iteration #     2       :  max(cpu_time)    wall_clock(cpu1)
  | Time for this iteration                    :        1.211 s           1.213 s
  | Charge density update                      :        0.397 s           0.398 s
  | Density mixing                             :        0.007 s           0.007 s
  | Hartree multipole update                   :        0.009 s           0.009 s
  | Hartree multipole summation                :        0.286 s           0.287 s
  | Integration                                :        0.509 s           0.509 s
  | Solution of K.-S. eqns.                    :        0.002 s           0.002 s
  | Total energy evaluation                    :        0.000 s           0.001 s

  Partial memory accounting:
  | Current value for overall tracked memory usage on task 0  :           0.166 MB
  | Peak value for overall tracked memory usage on task 0     :           0.695 MB after allocating gradient_basis_wave
  | Largest tracked array allocation on task 0 so far         :           0.397 MB  when allocating gradient_basis_wave
  Note:  These values currently only include a subset of arrays which are explicitly tracked.
  The "true" memory usage will be greater.
------------------------------------------------------------

------------------------------------------------------------
          Begin self-consistency iteration #    3

  Date     :  20200710, Time     :  152315.912
------------------------------------------------------------
  Evaluating new KS density.
  Integration grid: deviation in total charge (<rho> - N_e) =  -1.421085E-14
  Pulay mixing of updated and previous charge densities.

  Evaluating partitioned Hartree potential by multipole expansion.
  | Analytical far-field extrapolation by fixed multipoles:
  | Hartree multipole sum: apparent total charge =  -0.429132E-03
  Summing up the Hartree potential.
  Time summed over all CPUs for potential: real work        0.284 s, elapsed        0.284 s
  | RMS charge density error from multipole expansion :   0.221370E-01

  Integrating Hamiltonian matrix: batch-based integration.
  Time summed over all CPUs for integration: real work        0.500 s, elapsed        0.500 s

  Updating Kohn-Sham eigenvalues and eigenvectors using ELSI and the ELPA eigensolver.
  Finished Cholesky decomposition
  | Time :     0.000 s
  Finished transformation to standard eigenproblem
  | Time :     0.000 s
  Starting LAPACK eigensolver
  Finished solving standard eigenproblem
  | Time :     0.001 s
  Finished back-transformation of eigenvectors
  | Time :     0.000 s

  Obtaining occupation numbers and chemical potential using ELSI.
  | Chemical potential (Fermi level):    -3.08862956eV
  Highest occupied state (VBM) at     -5.94146240 eV
  | Occupation number:      2.00000000

  Lowest unoccupied state (CBM) at    -1.20452325 eV
  | Occupation number:      0.00000000

  Overall HOMO-LUMO gap:      4.73693915 eV.

  Total energy components:
  | Sum of eigenvalues            :        -180.80430924 Ha       -4919.93557802 eV
  | XC energy correction          :         -42.64051605 Ha       -1160.30747752 eV
  | XC potential correction       :          54.82340914 Ha        1491.82086571 eV
  | Free-atom electrostatic energy:        -146.80757928 Ha       -3994.83748742 eV
  | Hartree energy correction     :          -8.04999879 Ha        -219.05161238 eV
  | vdW energy correction         :           0.00000000 Ha           0.00000000 eV
  | Entropy correction            :           0.00000000 Ha           0.00000000 eV
  | ---------------------------
  | Total energy                  :        -323.47899423 Ha       -8802.31128964 eV
  | Total energy, T -> 0          :        -323.47899423 Ha       -8802.31128964 eV  <-- do not rely on this value for anything but (periodic) metals
  | Electronic free energy        :        -323.47899423 Ha       -8802.31128964 eV

  Derived energy quantities:
  | Kinetic energy                :         323.26467441 Ha        8796.47935070 eV
  | Electrostatic energy          :        -604.10315259 Ha      -16438.48316281 eV
  | Energy correction for multipole
  | error in Hartree potential    :           0.03827084 Ha           1.04140260 eV
  | Sum of eigenvalues per atom                           :        -378.45658292 eV
  | Total energy (T->0) per atom                          :        -677.10086843 eV  <-- do not rely on this value for anything but (periodic) metals
  | Electronic free energy per atom                       :        -677.10086843 eV

  Self-consistency convergence accuracy:
  | Change of charge density      :  0.2049E+00
  | Change of sum of eigenvalues  :  0.3680E+02 eV
  | Change of total energy        :  0.3442E+00 eV

  End self-consistency iteration #     3       :  max(cpu_time)    wall_clock(cpu1)
  | Time for this iteration                    :        1.194 s           1.195 s
  | Charge density update                      :        0.389 s           0.390 s
  | Density mixing                             :        0.009 s           0.008 s
  | Hartree multipole update                   :        0.009 s           0.008 s
  | Hartree multipole summation                :        0.285 s           0.285 s
  | Integration                                :        0.500 s           0.501 s
  | Solution of K.-S. eqns.                    :        0.002 s           0.002 s
  | Total energy evaluation                    :        0.000 s           0.000 s

  Partial memory accounting:
  | Current value for overall tracked memory usage on task 0  :           0.166 MB
  | Peak value for overall tracked memory usage on task 0     :           0.695 MB after allocating gradient_basis_wave
  | Largest tracked array allocation on task 0 so far         :           0.397 MB  when allocating gradient_basis_wave
  Note:  These values currently only include a subset of arrays which are explicitly tracked.
  The "true" memory usage will be greater.
------------------------------------------------------------

------------------------------------------------------------
          Begin self-consistency iteration #    4

  Date     :  20200710, Time     :  152317.108
------------------------------------------------------------
  Evaluating new KS density.
  Integration grid: deviation in total charge (<rho> - N_e) =   1.421085E-14
  Pulay mixing of updated and previous charge densities.

  Evaluating partitioned Hartree potential by multipole expansion.
  | Analytical far-field extrapolation by fixed multipoles:
  | Hartree multipole sum: apparent total charge =  -0.461839E-03
  Summing up the Hartree potential.
  Time summed over all CPUs for potential: real work        0.283 s, elapsed        0.283 s
  | RMS charge density error from multipole expansion :   0.257027E-01

  Integrating Hamiltonian matrix: batch-based integration.
  Time summed over all CPUs for integration: real work        0.511 s, elapsed        0.511 s

  Updating Kohn-Sham eigenvalues and eigenvectors using ELSI and the ELPA eigensolver.
  Finished Cholesky decomposition
  | Time :     0.000 s
  Finished transformation to standard eigenproblem
  | Time :     0.000 s
  Starting LAPACK eigensolver
  Finished solving standard eigenproblem
  | Time :     0.002 s
  Finished back-transformation of eigenvectors
  | Time :     0.000 s

  Obtaining occupation numbers and chemical potential using ELSI.
  | Chemical potential (Fermi level):    -3.01960973eV
  Highest occupied state (VBM) at     -5.72457401 eV
  | Occupation number:      2.00000000

  Lowest unoccupied state (CBM) at    -1.12949156 eV
  | Occupation number:      0.00000000

  Overall HOMO-LUMO gap:      4.59508245 eV.

  Total energy components:
  | Sum of eigenvalues            :        -180.71471295 Ha       -4917.49753879 eV
  | XC energy correction          :         -42.67588246 Ha       -1161.26984651 eV
  | XC potential correction       :          54.86757805 Ha        1493.02276279 eV
  | Free-atom electrostatic energy:        -146.80757928 Ha       -3994.83748742 eV
  | Hartree energy correction     :          -8.14736191 Ha        -221.70099760 eV
  | vdW energy correction         :           0.00000000 Ha           0.00000000 eV
  | Entropy correction            :           0.00000000 Ha           0.00000000 eV
  | ---------------------------
  | Total energy                  :        -323.47795856 Ha       -8802.28310753 eV
  | Total energy, T -> 0          :        -323.47795856 Ha       -8802.28310753 eV  <-- do not rely on this value for anything but (periodic) metals
  | Electronic free energy        :        -323.47795856 Ha       -8802.28310753 eV

  Derived energy quantities:
  | Kinetic energy                :         322.85079833 Ha        8785.21720960 eV
  | Electrostatic energy          :        -603.65287443 Ha      -16426.23047063 eV
  | Energy correction for multipole
  | error in Hartree potential    :           0.04263784 Ha           1.16023468 eV
  | Sum of eigenvalues per atom                           :        -378.26904145 eV
  | Total energy (T->0) per atom                          :        -677.09870058 eV  <-- do not rely on this value for anything but (periodic) metals
  | Electronic free energy per atom                       :        -677.09870058 eV

  Self-consistency convergence accuracy:
  | Change of charge density      :  0.6828E-01
  | Change of sum of eigenvalues  :  0.2438E+01 eV
  | Change of total energy        :  0.2818E-01 eV

  End self-consistency iteration #     4       :  max(cpu_time)    wall_clock(cpu1)
  | Time for this iteration                    :        1.201 s           1.202 s
  | Charge density update                      :        0.386 s           0.386 s
  | Density mixing                             :        0.009 s           0.010 s
  | Hartree multipole update                   :        0.009 s           0.009 s
  | Hartree multipole summation                :        0.283 s           0.283 s
  | Integration                                :        0.511 s           0.511 s
  | Solution of K.-S. eqns.                    :        0.002 s           0.003 s
  | Total energy evaluation                    :        0.000 s           0.000 s

  Partial memory accounting:
  | Current value for overall tracked memory usage on task 0  :           0.166 MB
  | Peak value for overall tracked memory usage on task 0     :           0.696 MB after allocating gradient_basis_wave
  | Largest tracked array allocation on task 0 so far         :           0.397 MB  when allocating gradient_basis_wave
  Note:  These values currently only include a subset of arrays which are explicitly tracked.
  The "true" memory usage will be greater.
------------------------------------------------------------

------------------------------------------------------------
          Begin self-consistency iteration #    5

  Date     :  20200710, Time     :  152318.313
------------------------------------------------------------
  Evaluating new KS density.
  Integration grid: deviation in total charge (<rho> - N_e) =   0.000000E+00
  Pulay mixing of updated and previous charge densities.

  Evaluating partitioned Hartree potential by multipole expansion.
  | Analytical far-field extrapolation by fixed multipoles:
  | Hartree multipole sum: apparent total charge =  -0.456759E-03
  Summing up the Hartree potential.
  Time summed over all CPUs for potential: real work        0.281 s, elapsed        0.281 s
  | RMS charge density error from multipole expansion :   0.254437E-01

  Integrating Hamiltonian matrix: batch-based integration.
  Time summed over all CPUs for integration: real work        0.501 s, elapsed        0.501 s

  Updating Kohn-Sham eigenvalues and eigenvectors using ELSI and the ELPA eigensolver.
  Finished Cholesky decomposition
  | Time :     0.000 s
  Finished transformation to standard eigenproblem
  | Time :     0.000 s
  Starting LAPACK eigensolver
  Finished solving standard eigenproblem
  | Time :     0.002 s
  Finished back-transformation of eigenvectors
  | Time :     0.000 s

  Obtaining occupation numbers and chemical potential using ELSI.
  | Chemical potential (Fermi level):    -3.05969080eV
  Highest occupied state (VBM) at     -5.82645642 eV
  | Occupation number:      2.00000000

  Lowest unoccupied state (CBM) at    -1.19593154 eV
  | Occupation number:      0.00000000

  Overall HOMO-LUMO gap:      4.63052488 eV.

  Total energy components:
  | Sum of eigenvalues            :        -180.85523062 Ha       -4921.32121927 eV
  | XC energy correction          :         -42.65705432 Ha       -1160.75750669 eV
  | XC potential correction       :          54.84318676 Ha        1492.35904210 eV
  | Free-atom electrostatic energy:        -146.80757928 Ha       -3994.83748742 eV
  | Hartree energy correction     :          -8.00097687 Ha        -217.71765790 eV
  | vdW energy correction         :           0.00000000 Ha           0.00000000 eV
  | Entropy correction            :           0.00000000 Ha           0.00000000 eV
  | ---------------------------
  | Total energy                  :        -323.47765433 Ha       -8802.27482918 eV
  | Total energy, T -> 0          :        -323.47765433 Ha       -8802.27482918 eV  <-- do not rely on this value for anything but (periodic) metals
  | Electronic free energy        :        -323.47765433 Ha       -8802.27482918 eV

  Derived energy quantities:
  | Kinetic energy                :         322.77433966 Ha        8783.13666322 eV
  | Electrostatic energy          :        -603.59493967 Ha      -16424.65398571 eV
  | Energy correction for multipole
  | error in Hartree potential    :           0.04203627 Ha           1.14386509 eV
  | Sum of eigenvalues per atom                           :        -378.56317071 eV
  | Total energy (T->0) per atom                          :        -677.09806378 eV  <-- do not rely on this value for anything but (periodic) metals
  | Electronic free energy per atom                       :        -677.09806378 eV

  Self-consistency convergence accuracy:
  | Change of charge density      :  0.2266E-01
  | Change of sum of eigenvalues  : -0.3824E+01 eV
  | Change of total energy        :  0.8278E-02 eV

  End self-consistency iteration #     5       :  max(cpu_time)    wall_clock(cpu1)
  | Time for this iteration                    :        1.200 s           1.201 s
  | Charge density update                      :        0.396 s           0.396 s
  | Density mixing                             :        0.011 s           0.011 s
  | Hartree multipole update                   :        0.009 s           0.008 s
  | Hartree multipole summation                :        0.282 s           0.282 s
  | Integration                                :        0.501 s           0.501 s
  | Solution of K.-S. eqns.                    :        0.002 s           0.003 s
  | Total energy evaluation                    :        0.000 s           0.000 s

  Partial memory accounting:
  | Current value for overall tracked memory usage on task 0  :           0.166 MB
  | Peak value for overall tracked memory usage on task 0     :           0.696 MB after allocating gradient_basis_wave
  | Largest tracked array allocation on task 0 so far         :           0.397 MB  when allocating gradient_basis_wave
  Note:  These values currently only include a subset of arrays which are explicitly tracked.
  The "true" memory usage will be greater.
------------------------------------------------------------

------------------------------------------------------------
          Begin self-consistency iteration #    6

  Date     :  20200710, Time     :  152319.516
------------------------------------------------------------
  Evaluating new KS density.
  Integration grid: deviation in total charge (<rho> - N_e) =  -7.105427E-15
  Pulay mixing of updated and previous charge densities.

  Evaluating partitioned Hartree potential by multipole expansion.
  | Analytical far-field extrapolation by fixed multipoles:
  | Hartree multipole sum: apparent total charge =  -0.458621E-03
  Summing up the Hartree potential.
  Time summed over all CPUs for potential: real work        0.280 s, elapsed        0.280 s
  | RMS charge density error from multipole expansion :   0.257778E-01

  Integrating Hamiltonian matrix: batch-based integration.
  Time summed over all CPUs for integration: real work        0.505 s, elapsed        0.505 s

  Updating Kohn-Sham eigenvalues and eigenvectors using ELSI and the ELPA eigensolver.
  Finished Cholesky decomposition
  | Time :     0.000 s
  Finished transformation to standard eigenproblem
  | Time :     0.000 s
  Starting LAPACK eigensolver
  Finished solving standard eigenproblem
  | Time :     0.002 s
  Finished back-transformation of eigenvectors
  | Time :     0.000 s

  Obtaining occupation numbers and chemical potential using ELSI.
  | Chemical potential (Fermi level):    -3.07499055eV
  Highest occupied state (VBM) at     -5.83233542 eV
  | Occupation number:      2.00000000

  Lowest unoccupied state (CBM) at    -1.23293232 eV
  | Occupation number:      0.00000000

  Overall HOMO-LUMO gap:      4.59940309 eV.

  Total energy components:
  | Sum of eigenvalues            :        -180.90400595 Ha       -4922.64846347 eV
  | XC energy correction          :         -42.65070065 Ha       -1160.58461449 eV
  | XC potential correction       :          54.83491242 Ha        1492.13388588 eV
  | Free-atom electrostatic energy:        -146.80757928 Ha       -3994.83748742 eV
  | Hartree energy correction     :          -7.95020899 Ha        -216.33619357 eV
  | vdW energy correction         :           0.00000000 Ha           0.00000000 eV
  | Entropy correction            :           0.00000000 Ha           0.00000000 eV
  | ---------------------------
  | Total energy                  :        -323.47758245 Ha       -8802.27287307 eV
  | Total energy, T -> 0          :        -323.47758245 Ha       -8802.27287307 eV  <-- do not rely on this value for anything but (periodic) metals
  | Electronic free energy        :        -323.47758245 Ha       -8802.27287307 eV

  Derived energy quantities:
  | Kinetic energy                :         322.67802260 Ha        8780.51574254 eV
  | Electrostatic energy          :        -603.50490439 Ha      -16422.20400113 eV
  | Energy correction for multipole
  | error in Hartree potential    :           0.04220646 Ha           1.14849624 eV
  | Sum of eigenvalues per atom                           :        -378.66526642 eV
  | Total energy (T->0) per atom                          :        -677.09791331 eV  <-- do not rely on this value for anything but (periodic) metals
  | Electronic free energy per atom                       :        -677.09791331 eV

  Self-consistency convergence accuracy:
  | Change of charge density      :  0.1103E-01
  | Change of sum of eigenvalues  : -0.1327E+01 eV
  | Change of total energy        :  0.1956E-02 eV

  End self-consistency iteration #     6       :  max(cpu_time)    wall_clock(cpu1)
  | Time for this iteration                    :        1.199 s           1.201 s
  | Charge density update                      :        0.390 s           0.391 s
  | Density mixing                             :        0.012 s           0.012 s
  | Hartree multipole update                   :        0.009 s           0.009 s
  | Hartree multipole summation                :        0.281 s           0.281 s
  | Integration                                :        0.505 s           0.505 s
  | Solution of K.-S. eqns.                    :        0.002 s           0.003 s
  | Total energy evaluation                    :        0.000 s           0.000 s

  Partial memory accounting:
  | Current value for overall tracked memory usage on task 0  :           0.166 MB
  | Peak value for overall tracked memory usage on task 0     :           0.696 MB after allocating gradient_basis_wave
  | Largest tracked array allocation on task 0 so far         :           0.397 MB  when allocating gradient_basis_wave
  Note:  These values currently only include a subset of arrays which are explicitly tracked.
  The "true" memory usage will be greater.
------------------------------------------------------------

------------------------------------------------------------
          Begin self-consistency iteration #    7

  Date     :  20200710, Time     :  152320.718
------------------------------------------------------------
  Evaluating new KS density.
  Integration grid: deviation in total charge (<rho> - N_e) =   4.263256E-14
  Pulay mixing of updated and previous charge densities.

  Evaluating partitioned Hartree potential by multipole expansion.
  | Analytical far-field extrapolation by fixed multipoles:
  | Hartree multipole sum: apparent total charge =  -0.459902E-03
  Summing up the Hartree potential.
  Time summed over all CPUs for potential: real work        0.285 s, elapsed        0.285 s
  | RMS charge density error from multipole expansion :   0.259173E-01

  Integrating Hamiltonian matrix: batch-based integration.
  Time summed over all CPUs for integration: real work        0.502 s, elapsed        0.502 s

  Updating Kohn-Sham eigenvalues and eigenvectors using ELSI and the ELPA eigensolver.
  Finished Cholesky decomposition
  | Time :     0.000 s
  Finished transformation to standard eigenproblem
  | Time :     0.000 s
  Starting LAPACK eigensolver
  Finished solving standard eigenproblem
  | Time :     0.002 s
  Finished back-transformation of eigenvectors
  | Time :     0.000 s

[...]
  |   Hirshfeld dipole moment :      0.05924072
  |   Hirshfeld second moments:      0.00193525      -0.02849978      -0.01794855
  |                                 -0.02849978      -0.02223549       0.01008137
  |                                 -0.01794855       0.01008137      -0.01595345
  ----------------------------------------------------------------------
  | Atom    12: O
  |   Hirshfeld charge        :     -0.14179375
  |   Free atom volume        :     23.61338643
  |   Hirshfeld volume        :     21.01879033
  |   Hirshfeld dipole vector :      0.01061711       0.04015128      -0.00289889
  |   Hirshfeld dipole moment :      0.04163234
  |   Hirshfeld second moments:      0.08330408      -0.01952898       0.02289983
  |                                 -0.01952898       0.03318917       0.00426402
  |                                  0.02289983       0.00426402       0.05267502
  ----------------------------------------------------------------------
  | Atom    13: H
  |   Hirshfeld charge        :      0.15331153
  |   Free atom volume        :      9.95071624
  |   Hirshfeld volume        :      6.54938830
  |   Hirshfeld dipole vector :     -0.08590795       0.04587153      -0.03977561
  |   Hirshfeld dipole moment :      0.10519730
  |   Hirshfeld second moments:      0.11655238      -0.00829763       0.00644898
  |                                 -0.00829763       0.08749991       0.02318283
  |                                  0.00644898       0.02318283       0.10173200
  ----------------------------------------------------------------------


  Total energy components:
  | Sum of eigenvalues            :        -180.89425919 Ha       -4922.38324067 eV
  | XC energy correction          :         -42.64881281 Ha       -1160.53324387 eV
  | XC potential correction       :          54.83253771 Ha        1492.06926662 eV
  | Free-atom electrostatic energy:        -146.80757928 Ha       -3994.83748742 eV
  | Hartree energy correction     :          -7.95944846 Ha        -216.58761246 eV
  | vdW energy correction         :          -0.00338360 Ha          -0.09207240 eV
  | Entropy correction            :           0.00000000 Ha           0.00000000 eV
  | ---------------------------
  | Total energy                  :        -323.48094564 Ha       -8802.36439019 eV
  | Total energy, T -> 0          :        -323.48094564 Ha       -8802.36439019 eV  <-- do not rely on this value for anything but (periodic) metals
  | Electronic free energy        :        -323.48094564 Ha       -8802.36439019 eV

  Derived energy quantities:
  | Kinetic energy                :         322.64325349 Ha        8779.56962706 eV
  | Electrostatic energy          :        -603.47200272 Ha      -16421.30870099 eV
  | Energy correction for multipole
  | error in Hartree potential    :           0.04228997 Ha           1.15076875 eV
  | Sum of eigenvalues per atom                           :        -378.64486467 eV
  | Total energy (T->0) per atom                          :        -677.10495309 eV  <-- do not rely on this value for anything but (periodic) metals
  | Electronic free energy per atom                       :        -677.10495309 eV

  atomic forces [eV/Ang]:
  -----------------------
  atom #    1
   Hellmann-Feynman              :  0.110678E+00  0.136283E+00  0.127742E+01
   Ionic forces                  :  0.000000E+00  0.000000E+00  0.000000E+00
   Multipole                     :  0.641916E-01  0.994666E-01 -0.167072E+00
   Pulay + GGA                   : -0.662818E+00  0.742204E-01 -0.147106E+01
   Van der Waals                 :  0.252178E-02  0.154309E-02 -0.115669E-02
   ----------------------------------------------------------------
   Total forces(   1)            : -0.485427E+00  0.311513E+00 -0.361868E+00
  atom #    2
   Hellmann-Feynman              :  0.207387E+00 -0.215378E-02 -0.702499E-01
   Ionic forces                  :  0.000000E+00  0.000000E+00  0.000000E+00
   Multipole                     :  0.192849E+00  0.907598E-02  0.155692E-01
   Pulay + GGA                   : -0.144959E+00  0.178062E-01  0.542905E-01
   Van der Waals                 :  0.239025E-02 -0.524326E-02 -0.685371E-02
   ----------------------------------------------------------------
   Total forces(   2)            :  0.257667E+00  0.194851E-01 -0.724393E-02
  atom #    3
   Hellmann-Feynman              : -0.278181E+01  0.112725E+02 -0.153146E+01
   Ionic forces                  :  0.000000E+00  0.000000E+00  0.000000E+00
   Multipole                     : -0.276396E+00  0.205255E+00 -0.897004E+00
   Pulay + GGA                   :  0.359801E+01 -0.106970E+02  0.299260E+01
   Van der Waals                 :  0.394025E-02 -0.483647E-02 -0.873130E-02
   ----------------------------------------------------------------
   Total forces(   3)            :  0.543748E+00  0.775898E+00  0.555397E+00
  atom #    4
   Hellmann-Feynman              : -0.193690E+00 -0.429420E+00 -0.174879E+00
   Ionic forces                  :  0.000000E+00  0.000000E+00  0.000000E+00
   Multipole                     :  0.407596E-01 -0.352477E-01 -0.109721E+00
   Pulay + GGA                   : -0.155240E+00  0.148866E+00  0.110700E+00
   Van der Waals                 : -0.343956E-02  0.216617E-02  0.293172E-02
   ----------------------------------------------------------------
   Total forces(   4)            : -0.311610E+00 -0.313635E+00 -0.170968E+00
  atom #    5
   Hellmann-Feynman              :  0.358200E-02  0.123624E-01 -0.702755E+00
   Ionic forces                  :  0.000000E+00  0.000000E+00  0.000000E+00
   Multipole                     : -0.275412E-01 -0.384603E-01 -0.127614E+00
   Pulay + GGA                   :  0.211275E+00  0.258769E+00 -0.105668E+00
   Van der Waals                 :  0.868109E-04  0.206363E-02  0.482324E-03
   ----------------------------------------------------------------
   Total forces(   5)            :  0.187402E+00  0.234735E+00 -0.935556E+00
  atom #    6
   Hellmann-Feynman              :  0.257707E+00 -0.367013E+00  0.451569E+00
   Ionic forces                  :  0.000000E+00  0.000000E+00  0.000000E+00
   Multipole                     : -0.130168E+00  0.637136E+00  0.244760E+00
   Pulay + GGA                   :  0.680140E-01 -0.589422E+00 -0.563125E+00
   Van der Waals                 : -0.197004E-02  0.611642E-02 -0.412690E-02
   ----------------------------------------------------------------
   Total forces(   6)            :  0.193582E+00 -0.313182E+00  0.129077E+00
  atom #    7
   Hellmann-Feynman              : -0.231230E+00 -0.428786E-01 -0.422757E-01
   Ionic forces                  :  0.000000E+00  0.000000E+00  0.000000E+00
   Multipole                     : -0.117356E+00  0.510384E-01  0.237502E-01
   Pulay + GGA                   :  0.117334E+00  0.369846E-01  0.752138E-02
   Van der Waals                 : -0.176617E-02 -0.152355E-02  0.156930E-02
   ----------------------------------------------------------------
   Total forces(   7)            : -0.233017E+00  0.436208E-01 -0.943476E-02
  atom #    8
   Hellmann-Feynman              :  0.460858E-01 -0.692102E-01  0.163130E+00
   Ionic forces                  :  0.000000E+00  0.000000E+00  0.000000E+00
   Multipole                     :  0.173652E-01  0.678038E-01  0.125273E+00
   Pulay + GGA                   : -0.428406E-01 -0.383006E-01 -0.888026E-01
   Van der Waals                 : -0.294465E-02  0.111390E-01  0.137912E-02
   ----------------------------------------------------------------
   Total forces(   8)            :  0.176657E-01 -0.285681E-01  0.200980E+00
  atom #    9
   Hellmann-Feynman              :  0.760146E-01  0.985439E-02 -0.179525E+00
   Ionic forces                  :  0.000000E+00  0.000000E+00  0.000000E+00
   Multipole                     :  0.152216E-01  0.131798E+00 -0.115800E-01
   Pulay + GGA                   : -0.579740E-01 -0.994471E-01  0.275966E-01
   Van der Waals                 : -0.238552E-02  0.209861E-02  0.336981E-02
   ----------------------------------------------------------------
   Total forces(   9)            :  0.308767E-01  0.443036E-01 -0.160139E+00
  atom #   10
   Hellmann-Feynman              :  0.303334E+01  0.459709E+01  0.235183E+01
   Ionic forces                  :  0.000000E+00  0.000000E+00  0.000000E+00
   Multipole                     :  0.544421E-01 -0.510752E-01  0.185427E+00
   Pulay + GGA                   : -0.131927E+01 -0.319697E+01 -0.311174E+00
   Van der Waals                 :  0.257921E-02 -0.143512E-01  0.500801E-02
   ----------------------------------------------------------------
   Total forces(  10)            :  0.177109E+01  0.133470E+01  0.223109E+01
  atom #   11
   Hellmann-Feynman              :  0.398322E+01 -0.237856E+01  0.141667E+02
   Ionic forces                  :  0.000000E+00  0.000000E+00  0.000000E+00
   Multipole                     :  0.693311E-02 -0.458156E+00  0.850233E+00
   Pulay + GGA                   : -0.302083E+01  0.325615E+01 -0.141567E+02
   Van der Waals                 : -0.369113E-03 -0.122693E-01  0.577724E-02
   ----------------------------------------------------------------
   Total forces(  11)            :  0.968951E+00  0.407168E+00  0.865951E+00
  atom #   12
   Hellmann-Feynman              : -0.237543E+01 -0.149425E+02 -0.107642E+01
   Ionic forces                  :  0.000000E+00  0.000000E+00  0.000000E+00
   Multipole                     : -0.919802E+00 -0.150417E+01  0.300232E-01
   Pulay + GGA                   :  0.104043E+01  0.148130E+02 -0.466920E+00
   Van der Waals                 :  0.191470E-02  0.677737E-02  0.300614E-02
   ----------------------------------------------------------------
   Total forces(  12)            : -0.225289E+01 -0.162686E+01 -0.151031E+01
  atom #   13
   Hellmann-Feynman              : -0.869229E+00 -0.615321E+00 -0.111517E+01
   Ionic forces                  :  0.000000E+00  0.000000E+00  0.000000E+00
   Multipole                     : -0.716667E-01  0.457807E-01  0.782388E-02
   Pulay + GGA                   :  0.248891E+00 -0.325362E+00  0.276660E+00
   Van der Waals                 : -0.557933E-03  0.631952E-02 -0.265507E-02
   ----------------------------------------------------------------
   Total forces(  13)            : -0.692563E+00 -0.888582E+00 -0.833340E+00

  Timings for VdW correction (Tkatchenko-Scheffler 2009 or later):
  | CPU time:        0.090 s, Wall clock time:        0.090 s.
  Removing unitary transformations (pure translations, rotations) from forces on atoms.
  Atomic forces before filtering:
  | Net force on center of mass :  -0.452129E-02  0.591780E-03 -0.636861E-02 eV/A
  | Net torque on center of mass:   0.291943E-02  0.222850E-02 -0.119661E-01 eV
  Atomic forces after filtering:
  | Net force on center of mass :  -0.713624E-15 -0.178406E-15 -0.178406E-15 eV/A
  | Net torque on center of mass:   0.188817E-15 -0.188817E-15  0.566451E-15 eV

  Energy and forces in a compact form:
  | Total energy uncorrected      :         -0.880236439019464E+04 eV
  | Total energy corrected        :         -0.880236439019464E+04 eV  <-- do not rely on this value for anything but (periodic) metals
  | Electronic free energy        :         -0.880236439019464E+04 eV
  Total atomic forces (unitary forces cleaned) [eV/Ang]:
  |   1         -0.485123200373622E+00          0.311654708366333E+00         -0.361363331699646E+00
  |   2          0.257971111407366E+00          0.200846408368057E-01         -0.668321627935264E-02
  |   3          0.544124462130726E+00          0.775734959374692E+00          0.555877791231699E+00
  |   4         -0.311084648619395E+00         -0.313520046455475E+00         -0.170427567306961E+00
  |   5          0.188058760116796E+00          0.234242412956440E+00         -0.935066121785780E+00
  |   6          0.193320716785197E+00         -0.313193992924792E+00          0.129464075513899E+00
  |   7         -0.233290735146375E+00          0.431521166876608E-01         -0.910563424975658E-02
  |   8          0.173465921979325E-01         -0.283529934868856E-01          0.201383840524876E+00
  |   9          0.302644565775452E-01          0.444055531331968E-01         -0.159800013664605E+00
  |  10          0.177189444010874E+01          0.133472920843674E+01          0.223166978644004E+01
  |  11          0.969815168089991E+00          0.407405292475016E+00          0.866566409653047E+00
  |  12         -0.225169005715032E+01         -0.162717751182577E+01         -0.150970763624855E+01
  |  13         -0.691607066124587E+00         -0.889164347573961E+00         -0.832808382128912E+00

  ------------------------------------ 
  Start decomposition of the XC Energy 
  ------------------------------------ 
  X and C from original XC functional choice 
  Hartree-Fock Energy :          0.000000000 Ha              0.000000000 eV
  X Energy            :        -41.045973429 Ha          -1116.917765154 eV
  C Energy            :         -1.602839382 Ha            -43.615478713 eV
  Total XC Energy     :        -42.648812811 Ha          -1160.533243867 eV
  ------------------------------------ 
  LDA X and C from self-consistent density 
  X Energy LDA        :        -37.267140900 Ha          -1014.090500246 eV
  C Energy LDA        :         -3.139531940 Ha            -85.431010760 eV
  ------------------------------------ 
  End decomposition of the XC Energy 
  ------------------------------------ 

------------------------------------------------------------

------------------------------------------------------------------------------
  Final output of selected total energy values:

  The following output summarizes some interesting total energy values
  at the end of a run (AFTER all relaxation, molecular dynamics, etc.).

  | Total energy of the DFT / Hartree-Fock s.c.f. calculation      :          -8802.364390195 eV
  | Final zero-broadening corrected energy (caution - metals only) :          -8802.364390195 eV
  | For reference only, the value of 1 Hartree used in FHI-aims is :             27.211384500 eV

  Before relying on these values, please be sure to understand exactly which
  total energy value is referred to by a given number. Different objects may
  all carry the same name 'total energy'. Definitions:

  Total energy of the DFT / Hartree-Fock s.c.f. calculation:
  | Note that this energy does not include ANY quantities calculated after the
  | s.c.f. cycle, in particular not ANY RPA, MP2, etc. many-body perturbation terms.

  Final zero-broadening corrected energy:
  | For metallic systems only, a broadening of the occupation numbers at the Fermi
  | level can be extrapolated back to zero broadening by an electron-gas inspired
  | formula. For all systems that are not real metals, this value can be
  | meaningless and should be avoided.

------------------------------------------------------------------------------
  Methods described in the following list of references were used in this FHI-aims run.
  If you publish the results, please make sure to cite these reference if they apply.
  FHI-aims is an academic code, and for our developers (often, Ph.D. students
  and postdocs), scientific credit in the community is essential.
  Thank you for helping us!

  For any use of FHI-aims, please cite:

    Volker Blum, Ralf Gehrke, Felix Hanke, Paula Havu, Ville Havu,
    Xinguo Ren, Karsten Reuter, and Matthias Scheffler
    'Ab initio molecular simulations with numeric atom-centered orbitals'
    Computer Physics Communications 180, 2175-2196 (2009)
    http://dx.doi.org/10.1016/j.cpc.2009.06.022


  The scalable eigensolver library ELPA was used in your run.
  ELPA is essential especially for large systems on hundreds or thousands of CPUs.
  For ELPA, please cite:

    Andreas Marek, Volker Blum, Rainer Johanni, Ville Havu, Bruno Lang,
    Thomas Auckenthaler, Alexander Heinecke, Hans-Joachim Bungartz, and Hermann Lederer,
    'The ELPA Library - Scalable Parallel Eigenvalue Solutions
    for Electronic Structure Theory and Computational Science'
    The Journal of Physics: Condensed Matter 26, 213201 (2014).
    http://dx.doi.org/10.1088/0953-8984/26/21/213201


  The ELSI infrastructure was used in your run to solve the Kohn-Sham electronic structure.
  Please check out http://elsi-interchange.org to learn more.
  If scalability is important for your project, please acknowledge ELSI by citing:

    V. W-z. Yu, F. Corsetti, A. Garcia, W. P. Huhn, M. Jacquelin, W. Jia,
    B. Lange, L. Lin, J. Lu, W. Mi, A. Seifitokaldani, A. Vazquez-Mayagoitia,
    C. Yang, H. Yang, and V. Blum
    'ELSI: A unified software interface for Kohn-Sham electronic structure solvers'
    Computer Physics Communications 222, 267-285 (2018).
    http://dx.doi.org/10.1016/j.cpc.2017.09.007


  For the real-space grid partitioning and parallelization used in this calculation, please cite:

    Ville Havu, Volker Blum, Paula Havu, and Matthias Scheffler,
    'Efficient O(N) integration for all-electron electronic structure calculation'
    'using numerically tabulated basis functions'
    Journal of Computational Physics 228, 8367-8379 (2009).
    http://dx.doi.org/10.1016/j.jcp.2009.08.008

  Of course, there are many other important community references, e.g., those cited in the
  above references. Our list is limited to references that describe implementations in the
  FHI-aims code. The reason is purely practical (length of this list) - please credit others as well.

------------------------------------------------------------
          Leaving FHI-aims.
          Date     :  20200710, Time     :  152335.215

          Computational steps:
          | Number of self-consistency cycles          :           16
          | Number of SCF (re)initializations          :            1

          Detailed time accounting                     :  max(cpu_time)    wall_clock(cpu1)
          | Total time                                 :       22.970 s          23.053 s
          | Preparation time                           :        0.144 s           0.145 s
          | Boundary condition initalization           :        0.000 s           0.001 s
          | Grid partitioning                          :        0.112 s           0.115 s
          | Preloading free-atom quantities on grid    :        0.002 s           0.002 s
          | Free-atom superposition energy             :        0.085 s           0.085 s
          | Total time for integrations                :        8.749 s           8.766 s
          | Total time for solution of K.-S. equations :        0.037 s           0.042 s
          | Total time for density & force components  :        7.231 s           7.241 s
          | Total time for mixing                      :        0.219 s           0.221 s
          | Total time for Hartree multipole update    :        0.142 s           0.143 s
          | Total time for Hartree multipole sum       :        5.848 s           5.853 s
          | Total time for total energy evaluation     :        0.003 s           0.003 s
          | Total time for vdW correction              :        0.090 s           0.090 s

          Partial memory accounting:
          | Residual value for overall tracked memory usage across tasks :           0.000 MB (should be 0.000 MB)
          | Peak values for overall tracked memory usage (after allocating hessian_basis_wave):
          |   Minimum:        1.622 MB (on task 1)
          |   Maximum:        1.622 MB (on task 1)
          |   Average:        1.622 MB
          | Largest tracked array allocation (hessian_basis_wave):
          |   Minimum:        0.794 MB (on task 1)
          |   Maximum:        0.794 MB (on task 1)
          |   Average:        0.794 MB
          Note:  These values currently only include a subset of arrays which are explicitly tracked.
          The "true" memory usage will be greater.

          Have a nice day.
------------------------------------------------------------
