  MPI-parallelism will be employed.
------------------------------------------------------------
          Invoking FHI-aims ...
          Version 171221_1
          Compiled on 2019/09/09 at 14:39:39 on host puhti-login2.bullx.

          When using FHI-aims, please cite the following reference:

          Volker Blum, Ralf Gehrke, Felix Hanke, Paula Havu,
          Ville Havu, Xinguo Ren, Karsten Reuter, and Matthias Scheffler,
          'Ab Initio Molecular Simulations with Numeric Atom-Centered Orbitals',
          Computer Physics Communications 180, 2175-2196 (2009)

          For any questions about FHI-aims, please visit the aimsclub website
          with its forums and wiki. Contributions to both the forums and the
          wiki are warmly encouraged - they are for you, and everyone is welcome there.

------------------------------------------------------------



  Date     :  20200815, Time     :  002914.573
  Time zero on CPU 1             :   0.116000000000000E-01  s.
  Internal wall clock time zero  :           366683354.573  s.

  FHI-aims created a unique identifier for this run for later identification
  aims_uuid : 62308879-7BC4-43EF-A760-2EC3FFE9E2C4

  Using        1 parallel tasks.
  Task        0 on host r16c11.bullx reporting.

  Performing system and environment tests:
  | Environment variable OMP_NUM_THREADS correctly set to 1.
  | Stacksize not measured: no C compiler
  | Checking for scalapack...
  | Testing pdtran()...
  | All pdtran() tests passed.

  Obtaining array dimensions for all initial allocations:
  
  -----------------------------------------------------------------------
  Parsing control.in (first pass over file, find array dimensions only).
  The contents of control.in will be repeated verbatim below
  unless switched off by setting 'verbatim_writeout .false.' .
  in the first line of control.in .
  -----------------------------------------------------------------------
  
  #########################################################################################
  #
  #  Volker Blum, FHI 2009 : Test run input file control.in for simple H2O
  #
  #########################################################################################
  #
  #  Physical model
  #
    xc                 pbe
    vdw_correction_hirshfeld
    spin               none
    relativistic       none
    charge             0.
  #
  #  SCF convergence
  #
    occupation_type    gaussian 0.01
    mixer              pulay
      n_max_pulay        10
      charge_mix_param   0.2
    sc_accuracy_rho    1E-5
    sc_accuracy_eev    1E-3
    sc_accuracy_etot   1E-6
    sc_accuracy_forces 1E-4
    sc_iter_limit      100
  #
  #  Relaxation
  #
  #  relax_geometry   bfgs 1.e-3
  #
  ################################################################################
  #
  #  FHI-aims code project
  #  VB, Fritz-Haber Institut, 2009
  #
  #  Suggested "light" defaults for H atom (to be pasted into control.in file)
  #  Be sure to double-check any results obtained with these settings for post-processing,
  #  e.g., with the "tight" defaults and larger basis sets.
  #
  ################################################################################
    species        H
  #     global species definitions
      nucleus             1
      mass                1.00794
  #
      l_hartree           4
  #
      cut_pot             3.5  1.5  1.0
      basis_dep_cutoff    1e-4
  #
      radial_base         24 5.0
      radial_multiplier   1
      angular_grids       specified
        division   0.2421   50
        division   0.3822  110
        division   0.4799  194
        division   0.5341  302
  #      division   0.5626  434
  #      division   0.5922  590
  #      division   0.6542  770
  #      division   0.6868 1202
  #      outer_grid  770
        outer_grid  302
  ################################################################################
  #
  #  Definition of "minimal" basis
  #
  ################################################################################
  #     valence basis states
      valence      1  s   1.
  #     ion occupancy
      ion_occ      1  s   0.5
  ################################################################################
  #
  #  Suggested additional basis functions. For production calculations,
  #  uncomment them one after another (the most important basis functions are
  #  listed first).
  #
  #  Basis constructed for dimers: 0.5 A, 0.7 A, 1.0 A, 1.5 A, 2.5 A
  #
  ################################################################################
  #  "First tier" - improvements: -1014.90 meV to -62.69 meV
       hydro 2 s 2.1
       hydro 2 p 3.5
  #  "Second tier" - improvements: -12.89 meV to -1.83 meV
  #     hydro 1 s 0.85
  #     hydro 2 p 3.7
  #     hydro 2 s 1.2
  #     hydro 3 d 7
  #  "Third tier" - improvements: -0.25 meV to -0.12 meV
  #     hydro 4 f 11.2
  #     hydro 3 p 4.8
  #     hydro 4 d 9
  #     hydro 3 s 3.2
  ################################################################################
  #
  #  FHI-aims code project
  #  VB, Fritz-Haber Institut, 2009
  #
  #  Suggested "light" defaults for C atom (to be pasted into control.in file)
  #  Be sure to double-check any results obtained with these settings for post-processing,
  #  e.g., with the "tight" defaults and larger basis sets.
  #
  ################################################################################
    species        C
  #     global species definitions
      nucleus             6
      mass                12.0107
  #
      l_hartree           4
  #
      cut_pot             3.5  1.5  1.0
      basis_dep_cutoff    1e-4
  #
      radial_base         34 5.0
      radial_multiplier   1
      angular_grids specified
        division   0.3326   50
        division   0.5710  110
        division   0.7727  194
        division   0.8772  302
  #      division   0.9334  434
  #      division   0.9625  590
  #      division   0.9924  770
  #      division   1.0230  974
  #      division   1.4589 1202
  #     outer_grid  974
       outer_grid 302
  ################################################################################
  #
  #  Definition of "minimal" basis
  #
  ################################################################################
  #     valence basis states
      valence      2  s   2.
      valence      2  p   2.
  #     ion occupancy
      ion_occ      2  s   1.
      ion_occ      2  p   1.
  ################################################################################
  #
  #  Suggested additional basis functions. For production calculations,
  #  uncomment them one after another (the most important basis functions are
  #  listed first).
  #
  #  Constructed for dimers: 1.0 A, 1.25 A, 1.5 A, 2.0 A, 3.0 A
  #
  ################################################################################
  #  "First tier" - improvements: -1214.57 meV to -155.61 meV
       hydro 2 p 1.7
       hydro 3 d 6
       hydro 2 s 4.9
  #  "Second tier" - improvements: -67.75 meV to -5.23 meV
  #     hydro 4 f 9.8
  #     hydro 3 p 5.2
  #     hydro 3 s 4.3
  #     hydro 5 g 14.4
  #     hydro 3 d 6.2
  #  "Third tier" - improvements: -2.43 meV to -0.60 meV
  #     hydro 2 p 5.6
  #     hydro 2 s 1.4
  #     hydro 3 d 4.9
  #     hydro 4 f 11.2
  #  "Fourth tier" - improvements: -0.39 meV to -0.18 meV
  #     hydro 2 p 2.1
  #     hydro 5 g 16.4
  #     hydro 4 d 13.2
  #     hydro 3 s 13.6
  #     hydro 4 f 17.6
  #  Further basis functions - improvements: -0.08 meV and below
  #     hydro 3 s 2
  #     hydro 3 p 6
  #     hydro 4 d 20
  ################################################################################
  #
  #  FHI-aims code project
  #  VB, Fritz-Haber Institut, 2009
  #
  #  Suggested "light" defaults for N atom (to be pasted into control.in file)
  #  Be sure to double-check any results obtained with these settings for post-processing,
  #  e.g., with the "tight" defaults and larger basis sets.
  #
  ################################################################################
    species        N
  #     global species definitions
      nucleus             7
      mass                14.0067
  #
      l_hartree           4
  #
      cut_pot             3.5  1.5  1.0
      basis_dep_cutoff    1e-4
  #
      radial_base         35 5.0
      radial_multiplier   1
      angular_grids       specified
        division   0.2599   50
        division   0.4601  110
        division   0.5885  194
        division   0.6503  302
  #      division   0.6939  434
  #      division   0.7396  590
  #      division   0.7632  770
  #      division   0.8122  974
  #      division   1.1604 1202
  #      outer_grid  974
        outer_grid  302
  ################################################################################
  #
  #  Definition of "minimal" basis
  #
  ################################################################################
  #     valence basis states
      valence      2  s   2.
      valence      2  p   3.
  #     ion occupancy
      ion_occ      2  s   1.
      ion_occ      2  p   2.
  ################################################################################
  #
  #  Suggested additional basis functions. For production calculations,
  #  uncomment them one after another (the most important basis functions are
  #  listed first).
  #
  #  Constructed for dimers: 1.0 A, 1.1 A, 1.5 A, 2.0 A, 3.0 A
  #
  ################################################################################
  #  "First tier" - improvements: -1193.42 meV to -220.60 meV
       hydro 2 p 1.8
       hydro 3 d 6.8
       hydro 3 s 5.8
  #  "Second tier" - improvements: -80.21 meV to -6.86 meV
  #     hydro 4 f 10.8
  #     hydro 3 p 5.8
  #     hydro 1 s 0.8
  #     hydro 5 g 16
  #     hydro 3 d 4.9
  #  "Third tier" - improvements: -4.29 meV to -0.53 meV
  #     hydro 3 s 16
  #     ionic 2 p auto
  #     hydro 3 d 6.6
  #     hydro 4 f 11.6
  #  "Fourth tier" - improvements: -0.75 meV to -0.25 meV
  #     hydro 2 p 4.5
  #     hydro 2 s 2.4
  #     hydro 5 g 14.4
  #     hydro 4 d 14.4
  #     hydro 4 f 16.8
  # Further basis functions - -0.21 meV and below
  #     hydro 3 p 14.8
  #     hydro 3 s 4.4
  #     hydro 3 d 19.6
  #     hydro 5 g 12.8
  ################################################################################
  #
  #  FHI-aims code project
  #  VB, Fritz-Haber Institut, 2009
  #
  #  Suggested "light" defaults for O atom (to be pasted into control.in file)
  #  Be sure to double-check any results obtained with these settings for post-processing,
  #  e.g., with the "tight" defaults and larger basis sets.
  #
  ################################################################################
    species        O
  #     global species definitions
      nucleus             8
      mass                15.9994
  #
      l_hartree           4
  #
      cut_pot             3.5  1.5  1.0
      basis_dep_cutoff    1e-4
  #
      radial_base         36 5.0
      radial_multiplier   1
       angular_grids specified
        division   0.2659   50
        division   0.4451  110
        division   0.6052  194
        division   0.7543  302
  #      division   0.8014  434
  #      division   0.8507  590
  #      division   0.8762  770
  #      division   0.9023  974
  #      division   1.2339 1202
  #      outer_grid 974
        outer_grid 302
  ################################################################################
  #
  #  Definition of "minimal" basis
  #
  ################################################################################
  #     valence basis states
      valence      2  s   2.
      valence      2  p   4.
  #     ion occupancy
      ion_occ      2  s   1.
      ion_occ      2  p   3.
  ################################################################################
  #
  #  Suggested additional basis functions. For production calculations,
  #  uncomment them one after another (the most important basis functions are
  #  listed first).
  #
  #  Constructed for dimers: 1.0 A, 1.208 A, 1.5 A, 2.0 A, 3.0 A
  #
  ################################################################################
  #  "First tier" - improvements: -699.05 meV to -159.38 meV
       hydro 2 p 1.8
       hydro 3 d 7.6
       hydro 3 s 6.4
  #  "Second tier" - improvements: -49.91 meV to -5.39 meV
  #     hydro 4 f 11.6
  #     hydro 3 p 6.2
  #     hydro 3 d 5.6
  #     hydro 5 g 17.6
  #     hydro 1 s 0.75
  #  "Third tier" - improvements: -2.83 meV to -0.50 meV
  #     ionic 2 p auto
  #     hydro 4 f 10.8
  #     hydro 4 d 4.7
  #     hydro 2 s 6.8
  #  "Fourth tier" - improvements: -0.40 meV to -0.12 meV
  #     hydro 3 p 5
  #     hydro 3 s 3.3
  #     hydro 5 g 15.6
  #     hydro 4 f 17.6
  #     hydro 4 d 14
  # Further basis functions - -0.08 meV and below
  #     hydro 3 s 2.1
  #     hydro 4 d 11.6
  #     hydro 3 p 16
  #     hydro 2 s 17.2
  
  -----------------------------------------------------------------------
  Completed first pass over input file control.in .
  -----------------------------------------------------------------------
  
  
  -----------------------------------------------------------------------
  Parsing geometry.in (first pass over file, find array dimensions only).
  The contents of geometry.in will be repeated verbatim below
  unless switched off by setting 'verbatim_writeout .false.' .
  in the first line of geometry.in .
  -----------------------------------------------------------------------
  
  atom  0.00000 0.00000 0.00000 C
  atom  1.09300 0.00000 0.00000 H
  atom  -0.47961 0.00000 -1.41207 N
  atom  0.15949 0.56300 -1.97458 H
  atom  -0.49548 -0.95937 -1.75188 H
  atom  -0.49584 1.26211 0.72868 C
  atom  -1.58789 1.28919 0.74431 H
  atom  -0.13407 1.27425 1.75947 H
  atom  -0.13407 2.16087 0.22380 H
  atom  -0.39425 -1.28861 0.74398 C
  atom  -0.10189 -1.56493 1.88303 O
  atom  -1.10210 -2.13717 0.06896 O
  atom  -0.57121 -2.93317 0.24079 H
  
  -----------------------------------------------------------------------
  Completed first pass over input file geometry.in .
  -----------------------------------------------------------------------
  

  Basic array size parameters:
  | Number of species                 :        4
  | Number of atoms                   :       13
  | Max. basis fn. angular momentum   :        2
  | Max. atomic/ionic basis occupied n:        2
  | Max. number of basis fn. types    :        2
  | Max. radial fns per species/type  :        3
  | Max. logarithmic grid size        :     1301
  | Max. radial integration grid size :       36
  | Max. angular integration grid size:      302
  | Max. angular grid division number :        8
  | Radial grid for Hartree potential :     1301
  | Number of spin channels           :        1

------------------------------------------------------------
          Reading file control.in.
------------------------------------------------------------
  XC: Using PBE gradient-corrected functionals.
  Spin treatment: No spin polarisation.
  Non-relativistic treatment of kinetic energy.
  Charge =   0.000000E+00: Neutral system requested explicitly.
  Occupation type: Gaussian broadening, width =   0.100000E-01 eV.
  Using pulay charge density mixing.
  Pulay mixing - number of memorized iterations:   10
  Charge density mixing - mixing parameter:     0.2000
  Convergence accuracy of self-consistent charge density:  0.1000E-04
  Convergence accuracy of sum of eigenvalues:  0.1000E-02
  Convergence accuracy of total energy:  0.1000E-05
  Convergence accuracy of forces:  0.1000E-03
  Maximum number of s.-c. iterations  :   100
 
  Reading configuration options for species H                   .
  | Found nuclear charge :   1.0000
  | Found atomic mass :    1.00794000000000      amu
  | Found l_max for Hartree potential  :   4
  | Found cutoff potl. onset [A], width [A], scale factor :    3.50000    1.50000    1.00000
  | Threshold for basis-dependent cutoff potential is   0.100000E-03
  | Found data for basic radial integration grid :    24 points, outermost radius =    5.000 A
  | Found multiplier for basic radial grid :   1
  | Found angular grid specification: user-specified.
  | Specified grid contains     5 separate shells.
  | Check grid settings after all constraints further below.
  | Found free-atom valence shell :  1 s   1.000
  | No ionic wave fns used. Skipping ion_occ.
  | Found hydrogenic basis function :  2 s   2.100
  | Found hydrogenic basis function :  2 p   3.500
  Species H                   : Missing cutoff potential type.
  Defaulting to exp(1/x)/(1-x)^2 type cutoff potential.
  Species H : No 'logarithmic' tag. Using default grid for free atom:
  | Default logarithmic grid data [bohr] : 0.1000E-03 0.1000E+03 0.1012E+01
  Species H : On-site basis accuracy parameter (for Gram-Schmidt orthonormalisation) not specified.
  Using default value basis_acc =  0.1000000E-03.
  Species H                   : Using default innermost maximum threshold i_radial=  2 for radial functions.
  Species H                   : Default cutoff onset for free atom density etc. : 0.35000000E+01 AA.
  Species H                   : Basic radial grid will be enhanced according to radial_multiplier =   1, to contain    24 grid points.
 
  Reading configuration options for species C                   .
  | Found nuclear charge :   6.0000
  | Found atomic mass :    12.0107000000000      amu
  | Found l_max for Hartree potential  :   4
  | Found cutoff potl. onset [A], width [A], scale factor :    3.50000    1.50000    1.00000
  | Threshold for basis-dependent cutoff potential is   0.100000E-03
  | Found data for basic radial integration grid :    34 points, outermost radius =    5.000 A
  | Found multiplier for basic radial grid :   1
  | Found angular grid specification: user-specified.
  | Specified grid contains     5 separate shells.
  | Check grid settings after all constraints further below.
  | Found free-atom valence shell :  2 s   2.000
  | Found free-atom valence shell :  2 p   2.000
  | No ionic wave fns used. Skipping ion_occ.
  | No ionic wave fns used. Skipping ion_occ.
  | Found hydrogenic basis function :  2 p   1.700
  | Found hydrogenic basis function :  3 d   6.000
  | Found hydrogenic basis function :  2 s   4.900
  Species C                   : Missing cutoff potential type.
  Defaulting to exp(1/x)/(1-x)^2 type cutoff potential.
  Species C : No 'logarithmic' tag. Using default grid for free atom:
  | Default logarithmic grid data [bohr] : 0.1000E-03 0.1000E+03 0.1012E+01
  Species C : On-site basis accuracy parameter (for Gram-Schmidt orthonormalisation) not specified.
  Using default value basis_acc =  0.1000000E-03.
  Species C                   : Using default innermost maximum threshold i_radial=  2 for radial functions.
  Species C                   : Default cutoff onset for free atom density etc. : 0.35000000E+01 AA.
  Species C                   : Basic radial grid will be enhanced according to radial_multiplier =   1, to contain    34 grid points.
 
  Reading configuration options for species N                   .
  | Found nuclear charge :   7.0000
  | Found atomic mass :    14.0067000000000      amu
  | Found l_max for Hartree potential  :   4
  | Found cutoff potl. onset [A], width [A], scale factor :    3.50000    1.50000    1.00000
  | Threshold for basis-dependent cutoff potential is   0.100000E-03
  | Found data for basic radial integration grid :    35 points, outermost radius =    5.000 A
  | Found multiplier for basic radial grid :   1
  | Found angular grid specification: user-specified.
  | Specified grid contains     5 separate shells.
  | Check grid settings after all constraints further below.
  | Found free-atom valence shell :  2 s   2.000
  | Found free-atom valence shell :  2 p   3.000
  | No ionic wave fns used. Skipping ion_occ.
  | No ionic wave fns used. Skipping ion_occ.
  | Found hydrogenic basis function :  2 p   1.800
  | Found hydrogenic basis function :  3 d   6.800
  | Found hydrogenic basis function :  3 s   5.800
  Species N                   : Missing cutoff potential type.
  Defaulting to exp(1/x)/(1-x)^2 type cutoff potential.
  Species N : No 'logarithmic' tag. Using default grid for free atom:
  | Default logarithmic grid data [bohr] : 0.1000E-03 0.1000E+03 0.1012E+01
  Species N : On-site basis accuracy parameter (for Gram-Schmidt orthonormalisation) not specified.
  Using default value basis_acc =  0.1000000E-03.
  Species N                   : Using default innermost maximum threshold i_radial=  2 for radial functions.
  Species N                   : Default cutoff onset for free atom density etc. : 0.35000000E+01 AA.
  Species N                   : Basic radial grid will be enhanced according to radial_multiplier =   1, to contain    35 grid points.
 
  Reading configuration options for species O                   .
  | Found nuclear charge :   8.0000
  | Found atomic mass :    15.9994000000000      amu
  | Found l_max for Hartree potential  :   4
  | Found cutoff potl. onset [A], width [A], scale factor :    3.50000    1.50000    1.00000
  | Threshold for basis-dependent cutoff potential is   0.100000E-03
  | Found data for basic radial integration grid :    36 points, outermost radius =    5.000 A
  | Found multiplier for basic radial grid :   1
  | Found angular grid specification: user-specified.
  | Specified grid contains     5 separate shells.
  | Check grid settings after all constraints further below.
  | Found free-atom valence shell :  2 s   2.000
  | Found free-atom valence shell :  2 p   4.000
  | No ionic wave fns used. Skipping ion_occ.
  | No ionic wave fns used. Skipping ion_occ.
  | Found hydrogenic basis function :  2 p   1.800
  | Found hydrogenic basis function :  3 d   7.600
  | Found hydrogenic basis function :  3 s   6.400
  Species O                   : Missing cutoff potential type.
  Defaulting to exp(1/x)/(1-x)^2 type cutoff potential.
  Species O : No 'logarithmic' tag. Using default grid for free atom:
  | Default logarithmic grid data [bohr] : 0.1000E-03 0.1000E+03 0.1012E+01
  Species O : On-site basis accuracy parameter (for Gram-Schmidt orthonormalisation) not specified.
  Using default value basis_acc =  0.1000000E-03.
  Species O                   : Using default innermost maximum threshold i_radial=  2 for radial functions.
  Species O                   : Default cutoff onset for free atom density etc. : 0.35000000E+01 AA.
  Species O                   : Basic radial grid will be enhanced according to radial_multiplier =   1, to contain    36 grid points.
 
  Finished reading input file 'control.in'. Consistency checks are next.
 
  MPI_IN_PLACE appears to work with this MPI implementation.
  | Keeping use_mpi_in_place .true. (see manual).
  Target number of points in a grid batch is not set. Defaulting to  100
  Method for grid partitioning is not set. Defaulting to parallel hash+maxmin partitioning.
  Batch size limit is not set. Defaulting to    200
  By default, will store active basis functions for each batch.
  If in need of memory, prune_basis_once .false. can be used to disable this option.
  communication_type for Hartree potential was not specified.
  Defaulting to calc_hartree .
  Pulay mixer: Number of initial linear mixing iterations not set.
  Defaulting to    0 iterations.
  Work space size for distributed Hartree potential not set.
  Defaulting to   0.200000E+03 MB.
  Algorithm-dependent basis array size parameters:
  | n_max_pulay                         :       10
  Presetting      1001 iterations before the initial mixing cycle
  is restarted anyway using the sc_init_iter criterion / keyword.
  Presetting a factor      1.000 between actual scf density residual
  and density convergence criterion sc_accuracy_rho below which sc_init_iter
  takes no effect.
  Geometry relaxation not requested: no relaxation will be performed.
  Handling of forces: Unphysical translation and rotation will be removed from forces.
  No accuracy limit for integral partition fn. given. Defaulting to  0.1000E-14.
  No threshold value for u(r) in integrations given. Defaulting to  0.1000E-05.
  No accuracy for occupation numbers given. Defaulting to  0.1000E-12.
  No threshold value for occupation numbers given. Defaulting to  0.0000E+00.
  No accuracy for fermi level given. Defaulting to  0.1000E-19.
  Maximum # of iterations to find E_F not set. Defaulting to  200.
  Preferred method for the eigenvalue solver ('KS_method') not specified in 'control.in'.
  Defaulting to serial version, 'lapack_fast'.
  Will not use alltoall communication since running on < 1024 CPUs.
  Threshold for basis singularities not set.
  Default threshold for basis singularities:  0.1000E-04
  partition_type (choice of integration weights) for integrals was not specified.
  | Using a version of the partition function of Stratmann and coworkers ('stratmann_smoother').
  | At each grid point, the set of atoms used to build the partition table is smoothly restricted to
  | only those atoms whose free-atom density would be non-zero at that grid point.
  Partitioning for Hartree potential was not defined. Using partition_type for integrals.
  | Adjusted default value of keyword multip_moments_threshold to:       0.10000000E-11
  | This value may affect high angular momentum components of the Hartree potential in periodic systems.
  No q(lm)/r^(l+1) cutoff set for long-range Hartree potential.
  | Using default value of  0.100000E-09 .
  | Verify using the multipole_threshold keyword.
  Defaulting to new monopole extrapolation.
  Density update method: automatic selection selected.
------------------------------------------------------------


------------------------------------------------------------
          Reading geometry description geometry.in.
------------------------------------------------------------
  Input structure read successfully.
  The structure contains       13 atoms,  and a total of         48.000 electrons.

  Input geometry:
  | No unit cell requested.
  | Atomic structure:
  |       Atom                x [A]            y [A]            z [A]
  |    1: Species C             0.00000000        0.00000000        0.00000000
  |    2: Species H             1.09300000        0.00000000        0.00000000
  |    3: Species N            -0.47961000        0.00000000       -1.41207000
  |    4: Species H             0.15949000        0.56300000       -1.97458000
  |    5: Species H            -0.49548000       -0.95937000       -1.75188000
  |    6: Species C            -0.49584000        1.26211000        0.72868000
  |    7: Species H            -1.58789000        1.28919000        0.74431000
  |    8: Species H            -0.13407000        1.27425000        1.75947000
  |    9: Species H            -0.13407000        2.16087000        0.22380000
  |   10: Species C            -0.39425000       -1.28861000        0.74398000
  |   11: Species O            -0.10189000       -1.56493000        1.88303000
  |   12: Species O            -1.10210000       -2.13717000        0.06896000
  |   13: Species H            -0.57121000       -2.93317000        0.24079000
  |

  | The smallest distance between any two atoms is         0.97210377 AA.
  |
  | The first atom of this pair is atom number                     12 .
  | The second atom of this pair is atom number                    13 .

  Number of empty states per atom not set in control.in - providing a guess from actual geometry.
  | Total number of empty states used during s.c.f. cycle:       29
  If you use a very high smearing, use empty_states (per atom!) in control.in to increase this value.

  Structure-dependent array size parameters: 
  | Maximum number of distinct radial functions  :       21
  | Maximum number of basis functions            :      119
  | Number of Kohn-Sham states (occupied + empty):       53
------------------------------------------------------------

------------------------------------------------------------
          Preparing all fixed parts of the calculation.
------------------------------------------------------------
  Determining machine precision:
    2.225073858507201E-308
  Setting up grids for atomic and cluster calculations.

  Creating wave function, potential, and density for free atoms.

  Species: H

  List of occupied orbitals and eigenvalues:
    n    l              occ      energy [Ha]    energy [eV]
    1    0           1.0000        -0.237589        -6.4651


  Species: C

  List of occupied orbitals and eigenvalues:
    n    l              occ      energy [Ha]    energy [eV]
    1    0           2.0000       -10.038835      -273.1706
    2    0           2.0000        -0.502696       -13.6791
    2    1           2.0000        -0.191971        -5.2238


  Species: N

  List of occupied orbitals and eigenvalues:
    n    l              occ      energy [Ha]    energy [eV]
    1    0           2.0000       -14.128000      -384.4424
    2    0           2.0000        -0.681077       -18.5330
    2    1           3.0000        -0.259788        -7.0692


  Species: O

  List of occupied orbitals and eigenvalues:
    n    l              occ      energy [Ha]    energy [eV]
    1    0           2.0000       -18.898188      -514.2459
    2    0           2.0000        -0.878505       -23.9053
    2    1           4.0000        -0.331779        -9.0282

  Creating fixed part of basis set: Ionic, confined, hydrogenic.
 
  H                    hydrogenic:
 
  List of hydrogenic basis orbitals: 
    n    l      effective z      eigenvalue [eV]  inner max. [A]     outer max. [A]     outer radius [A]   
    2    0         2.100000       -14.9728           0.193243           1.317208           4.583499
    2    1         3.500000       -41.6669           0.602369           0.602369           3.723403
 
 
  C                    hydrogenic:
 
  List of hydrogenic basis orbitals: 
    n    l      effective z      eigenvalue [eV]  inner max. [A]     outer max. [A]     outer radius [A]   
    2    1         1.700000        -9.7616           1.230570           1.230570           4.607917
    3    2         6.000000       -54.4224           0.792453           0.792453           3.883070
    2    0         4.900000       -81.6679           0.082559           0.562749           3.078220
 
 
  N                    hydrogenic:
 
  List of hydrogenic basis orbitals: 
    n    l      effective z      eigenvalue [eV]  inner max. [A]     outer max. [A]     outer radius [A]   
    2    1         1.800000       -10.9749           1.177451           1.177451           4.573712
    3    2         6.800000       -69.9026           0.704619           0.704619           3.538137
    3    0         5.800000       -50.8545           0.067388           1.191934           4.250239
 
 
  O                    hydrogenic:
 
  List of hydrogenic basis orbitals: 
    n    l      effective z      eigenvalue [eV]  inner max. [A]     outer max. [A]     outer radius [A]   
    2    1         1.800000       -10.9749           1.164242           1.164242           4.578029
    3    2         7.600000       -87.3180           0.624125           0.624125           3.251020
    3    0         6.400000       -61.9207           0.061167           1.081902           4.001998
 

  Adding cutoff potential to free-atom effective potential.
  Creating atomic-like basis functions for current effective potential.

  Species H                   :

  List of atomic basis orbitals and eigenvalues:
    n    l      energy [Ha]    energy [eV]    outer radius [A]
    1    0        -0.237589        -6.4651       4.527807


  Species C                   :

  List of atomic basis orbitals and eigenvalues:
    n    l      energy [Ha]    energy [eV]    outer radius [A]
    1    0       -10.038835      -273.1706       1.934409
    2    0        -0.502696       -13.6791       4.496620
    2    1        -0.191971        -5.2238       4.551928


  Species N                   :

  List of atomic basis orbitals and eigenvalues:
    n    l      energy [Ha]    energy [eV]    outer radius [A]
    1    0       -14.128000      -384.4424       1.637919
    2    0        -0.681077       -18.5330       4.463241
    2    1        -0.259788        -7.0692       4.518138


  Species O                   :

  List of atomic basis orbitals and eigenvalues:
    n    l      energy [Ha]    energy [eV]    outer radius [A]
    1    0       -18.898188      -514.2459       1.415765
    2    0        -0.878505       -23.9053       4.413171
    2    1        -0.331779        -9.0282       4.522403

  Assembling full basis from fixed parts.
  | Species H :   atomic orbital   1 s accepted.
  | Species H :    hydro orbital   2 s accepted.
  | Species H :    hydro orbital   2 p accepted.
  | Species C :   atomic orbital   1 s accepted.
  | Species C :    hydro orbital   2 s accepted.
  | Species C :   atomic orbital   2 s accepted.
  | Species C :   atomic orbital   2 p accepted.
  | Species C :    hydro orbital   2 p accepted.
  | Species C :    hydro orbital   3 d accepted.
  | Species N :   atomic orbital   1 s accepted.
  | Species N :    hydro orbital   3 s accepted.
  | Species N :   atomic orbital   2 s accepted.
  | Species N :   atomic orbital   2 p accepted.
  | Species N :    hydro orbital   2 p accepted.
  | Species N :    hydro orbital   3 d accepted.
  | Species O :   atomic orbital   1 s accepted.
  | Species O :    hydro orbital   3 s accepted.
  | Species O :   atomic orbital   2 s accepted.
  | Species O :   atomic orbital   2 p accepted.
  | Species O :    hydro orbital   2 p accepted.
  | Species O :    hydro orbital   3 d accepted.
 
  Basis size parameters after reduction:
  | Total number of radial functions:       21
  | Total number of basis functions :      119
 
  Per-task memory consumption for arrays in subroutine allocate_ext:
  |           5.250512MB.
  Testing on-site integration grid accuracy.
  |  Species  Function  <phi|h_atom|phi> (log., in eV)  <phi|h_atom|phi> (rad., in eV)
           1        1                 -6.4663192853                 -6.4651273558
           1        2                 13.7111246313                 13.7170609718
           1        3                 25.2673269279                 25.2674696378
           2        4               -273.1705927641               -273.1705631568
           2        5                -10.7109323383                -10.7107120029
           2        6                 17.4381822266                 17.4352413244
           2        7                 -5.2255326521                 -5.2270484734
           2        8                  8.6835629259                  8.6603288385
           2        9                 27.4952418996                 27.4953360207
           3       10               -384.4424306495               -384.4423701208
           3       11                 12.5842251816                 12.5842222903
           3       12                -15.7264628251                -15.7264433455
           3       13                 -7.0696854293                 -7.0701769954
           3       14                  8.8090390882                  8.7901077751
           3       15                 35.9586762123                 35.9588528632
           4       16               -514.2458688638               -514.2457643834
           4       17                 15.1795651126                 15.1795290741
           4       18                -21.5359799773                -21.5360846186
           4       19                 -9.0283069236                 -9.0284644067
           4       20                  8.3027758564                  8.2834874195
           4       21                 45.8339351984                 45.8338762259

  Preparing densities etc. for the partition functions (integrals / Hartree potential).

  Preparations completed.
  max(cpu_time)          :      0.145 s.
  Wall clock time (cpu1) :      0.147 s.
------------------------------------------------------------

------------------------------------------------------------
          Begin self-consistency loop: Initialization.

          Date     :  20200815, Time     :  002914.738
------------------------------------------------------------

  Initializing index lists of integration centers etc. from given atomic structure:
  | Number of centers in hartree potential         :        13
  | Number of centers in hartree multipole         :        13
  | Number of centers in electron density summation:        13
  | Number of centers in basis integrals           :        13
  | Number of centers in integrals                 :        13
  | Number of centers in hamiltonian               :        13
  Partitioning the integration grid into batches with parallel hashing+maxmin method.
  | Number of batches:      957
  | Maximal batch size:     139
  | Minimal batch size:      66
  | Average batch size:      72.775
  | Standard deviation of batch sizes:      17.394

  Integration load balanced across     1 MPI tasks.
  Work distribution over tasks is as follows:
  Task     0 has      69646 integration points.
  Initializing partition tables, free-atom densities, potentials, etc. across the integration grid (initialize_grid_storage).
  | initialize_grid_storage: Actual outermost partition radius vs. multipole_radius_free
  | (-- VB: in principle, multipole_radius_free should be larger, hence this output)
  | Species        1: Confinement radius =              4.999999999999999 AA, multipole_radius_free =              5.054417573612229 AA.
  | Species        1: outer_partition_radius set to              5.054417573612229 AA .
  | Species        2: Confinement radius =              4.999999999999999 AA, multipole_radius_free =              5.019602836301480 AA.
  | Species        2: outer_partition_radius set to              5.019602836301480 AA .
  | Species        3: Confinement radius =              4.999999999999999 AA, multipole_radius_free =              5.043624274424571 AA.
  | Species        3: outer_partition_radius set to              5.043624274424571 AA .
  | Species        4: Confinement radius =              4.999999999999999 AA, multipole_radius_free =              5.048384829883283 AA.
  | Species        4: outer_partition_radius set to              5.048384829883283 AA .
  | Original list of interatomic distances with          13 x         13 entries is created.
  | Net number of integration points:    69646
  | of which are non-zero points    :    59588
  Renormalizing the initial density to the exact electron count on the 3D integration grid.
  | Initial density: Formal number of electrons (from input files) :      48.0000000000
  | Integrated number of electrons on 3D grid     :      47.9999674356
  | Charge integration error                      :      -0.0000325644
  | Normalization factor for density and gradient :       1.0000006784
  Obtaining max. number of non-zero basis functions in each batch (get_n_compute_maxes).
  | Maximal number of non-zero basis functions:      119 in task     0
  Selecting the method for density update.
  Loop over occupied states selected for charge density update.
  Allocating        0.050 MB for KS_eigenvector
  Integrating Hamiltonian matrix: batch-based integration.
  Time summed over all CPUs for integration: real work        0.489 s, elapsed        0.489 s
  Integrating overlap matrix.
  Time summed over all CPUs for integration: real work        0.210 s, elapsed        0.210 s

  Updating Kohn-Sham eigenvalues and eigenvectors using ELSI and the ELPA eigensolver.
  Overlap matrix is nonsingular
  | Lowest eigenvalue of overlap  :  0.51E-02
  | Highest eigenvalue of overlap :  0.60E+01
  Finished singularity check of overlap matrix
  | Time :     0.002 s
  Finished Cholesky decomposition
  | Time :     0.000 s
  Finished transformation to standard eigenproblem
  | Time :     0.000 s
  Starting LAPACK eigensolver
  Finished solving standard eigenproblem
  | Time :     0.002 s
  Finished back-transformation of eigenvectors
  | Time :     0.000 s

  Obtaining occupation numbers and chemical potential using ELSI.
  | Chemical potential (Fermi level):    -9.35973692eV
  Writing Kohn-Sham eigenvalues.

  State    Occupation    Eigenvalue [Ha]    Eigenvalue [eV]
      1       2.00000         -19.008031         -517.23484
      2       2.00000         -18.977761         -516.41115
      3       2.00000         -14.245791         -387.64770
      4       2.00000         -10.166611         -276.64757
      5       2.00000         -10.141251         -275.95747
      6       2.00000         -10.132075         -275.70779
      7       2.00000          -1.186437          -32.28459
      8       2.00000          -1.094758          -29.78989
      9       2.00000          -0.990960          -26.96539
     10       2.00000          -0.861543          -23.44378
     11       2.00000          -0.757323          -20.60782
     12       2.00000          -0.681893          -18.55524
     13       2.00000          -0.623997          -16.97982
     14       2.00000          -0.607130          -16.52085
     15       2.00000          -0.582079          -15.83917
     16       2.00000          -0.574805          -15.64123
     17       2.00000          -0.547483          -14.89777
     18       2.00000          -0.534554          -14.54595
     19       2.00000          -0.516269          -14.04839
     20       2.00000          -0.501105          -13.63576
     21       2.00000          -0.468029          -12.73573
     22       2.00000          -0.429953          -11.69962
     23       2.00000          -0.399407          -10.86843
     24       2.00000          -0.389688          -10.60396
     25       0.00000          -0.158151           -4.30350
     26       0.00000          -0.059337           -1.61464
     27       0.00000          -0.028524           -0.77618
     28       0.00000          -0.023064           -0.62760
     29       0.00000           0.003604            0.09807
     30       0.00000           0.011155            0.30355
     31       0.00000           0.018825            0.51224
     32       0.00000           0.034744            0.94543
     33       0.00000           0.038934            1.05944
     34       0.00000           0.063119            1.71756
     35       0.00000           0.080162            2.18132
     36       0.00000           0.132216            3.59779
     37       0.00000           0.156580            4.26075
     38       0.00000           0.201190            5.47467
     39       0.00000           0.211390            5.75222
     40       0.00000           0.221178            6.01857
     41       0.00000           0.254731            6.93159
     42       0.00000           0.277748            7.55790
     43       0.00000           0.290638            7.90866
     44       0.00000           0.304008            8.27249
     45       0.00000           0.335221            9.12183
     46       0.00000           0.367095            9.98916
     47       0.00000           0.390055           10.61393
     48       0.00000           0.420782           11.45005
     49       0.00000           0.429749           11.69407
     50       0.00000           0.456681           12.42694
     51       0.00000           0.486216           13.23061
     52       0.00000           0.551313           15.00200
     53       0.00000           0.573941           15.61773

  Highest occupied state (VBM) at    -10.60396102 eV
  | Occupation number:      2.00000000

  Lowest unoccupied state (CBM) at    -4.30349627 eV
  | Occupation number:      0.00000000

  Overall HOMO-LUMO gap:      6.30046476 eV.
  Calculating total energy contributions from superposition of free atom densities.

  Total energy components:
  | Sum of eigenvalues            :        -188.83786796 Ha       -5138.53983327 eV
  | XC energy correction          :         -41.78578547 Ha       -1137.04907493 eV
  | XC potential correction       :          53.71593085 Ha        1461.68484811 eV
  | Free-atom electrostatic energy:        -146.85732300 Ha       -3996.19108293 eV
  | Hartree energy correction     :           0.00000000 Ha           0.00000000 eV
  | vdW energy correction         :           0.00000000 Ha           0.00000000 eV
  | Entropy correction            :           0.00000000 Ha           0.00000000 eV
  | ---------------------------
  | Total energy                  :        -323.76504558 Ha       -8810.09514303 eV
  | Total energy, T -> 0          :        -323.76504558 Ha       -8810.09514303 eV  <-- do not rely on this value for anything but (periodic) metals
  | Electronic free energy        :        -323.76504558 Ha       -8810.09514303 eV

  Derived energy quantities:
  | Kinetic energy                :         320.48589117 Ha        8720.86481143 eV
  | Electrostatic energy          :        -602.46515129 Ha      -16393.91087952 eV
  | Energy correction for multipole
  | error in Hartree potential    :           0.00000000 Ha           0.00000000 eV
  | Sum of eigenvalues per atom                           :        -395.27229487 eV
  | Total energy (T->0) per atom                          :        -677.69962639 eV  <-- do not rely on this value for anything but (periodic) metals
  | Electronic free energy per atom                       :        -677.69962639 eV
  Initialize hartree_potential_storage
  Max. number of atoms included in rho_multipole:           13

  End scf initialization - timings             :  max(cpu_time)    wall_clock(cpu1)
  | Time for scf. initialization               :        1.142 s           1.143 s
  | Boundary condition initialization          :        0.000 s           0.000 s
  | Integration                                :        0.699 s           0.700 s
  | Solution of K.-S. eqns.                    :        0.004 s           0.004 s
  | Grid partitioning                          :        0.110 s           0.111 s
  | Preloading free-atom quantities on grid    :        0.002 s           0.003 s
  | Free-atom superposition energy             :        0.084 s           0.084 s
  | Total energy evaluation                    :        0.000 s           0.000 s

  Partial memory accounting:
  | Current value for overall tracked memory usage on task 0  :           0.165 MB
  | Peak value for overall tracked memory usage on task 0     :           0.678 MB after allocating wave
  | Largest tracked array allocation on task 0 so far         :           0.132 MB  when allocating H_times_psi
  Note:  These values currently only include a subset of arrays which are explicitly tracked.
  The "true" memory usage will be greater.
------------------------------------------------------------

------------------------------------------------------------
          Begin self-consistency iteration #    1

  Date     :  20200815, Time     :  002915.881
------------------------------------------------------------
  Evaluating new KS density.
  Integration grid: deviation in total charge (<rho> - N_e) =  -3.552714E-14
  Pulay mixing of updated and previous charge densities.

  Evaluating partitioned Hartree potential by multipole expansion.
  | Analytical far-field extrapolation by fixed multipoles:
  | Hartree multipole sum: apparent total charge =  -0.143419E-03
  Summing up the Hartree potential.
  Time summed over all CPUs for potential: real work        0.281 s, elapsed        0.281 s
  | RMS charge density error from multipole expansion :   0.584313E-02

  Integrating Hamiltonian matrix: batch-based integration.
  Time summed over all CPUs for integration: real work        0.490 s, elapsed        0.490 s

  Updating Kohn-Sham eigenvalues and eigenvectors using ELSI and the ELPA eigensolver.
  Finished Cholesky decomposition
  | Time :     0.000 s
  Finished transformation to standard eigenproblem
  | Time :     0.000 s
  Starting LAPACK eigensolver
  Finished solving standard eigenproblem
  | Time :     0.001 s
  Finished back-transformation of eigenvectors
  | Time :     0.000 s

  Obtaining occupation numbers and chemical potential using ELSI.
  | Chemical potential (Fermi level):    -8.29249023eV
  Writing Kohn-Sham eigenvalues.

  State    Occupation    Eigenvalue [Ha]    Eigenvalue [eV]
      1       2.00000         -18.903717         -514.39630
      2       2.00000         -18.840009         -512.66273
      3       2.00000         -14.094016         -383.51770
      4       2.00000         -10.118055         -275.32628
      5       2.00000         -10.061852         -273.79692
      6       2.00000         -10.027541         -272.86327
      7       2.00000          -1.138354          -30.97618
      8       2.00000          -1.033438          -28.12127
      9       2.00000          -0.920068          -25.03632
     10       2.00000          -0.793586          -21.59456
     11       2.00000          -0.705891          -19.20826
     12       2.00000          -0.635993          -17.30625
     13       2.00000          -0.566904          -15.42625
     14       2.00000          -0.545612          -14.84686
     15       2.00000          -0.524259          -14.26583
     16       2.00000          -0.517315          -14.07685
     17       2.00000          -0.488803          -13.30100
     18       2.00000          -0.471742          -12.83676
     19       2.00000          -0.449822          -12.24028
     20       2.00000          -0.439978          -11.97242
     21       2.00000          -0.411069          -11.18575
     22       2.00000          -0.372483          -10.13577
     23       2.00000          -0.330139           -8.98355
     24       2.00000          -0.313963           -8.54338
     25       0.00000          -0.123731           -3.36690
     26       0.00000          -0.035934           -0.97782
     27       0.00000          -0.004614           -0.12555
     28       0.00000           0.016479            0.44842
     29       0.00000           0.035898            0.97682
     30       0.00000           0.051713            1.40717
     31       0.00000           0.059324            1.61430
     32       0.00000           0.073318            1.99507
     33       0.00000           0.084287            2.29356
     34       0.00000           0.101342            2.75765
     35       0.00000           0.120167            3.26990
     36       0.00000           0.159694            4.34549
     37       0.00000           0.180891            4.92228
     38       0.00000           0.231371            6.29594
     39       0.00000           0.243571            6.62791
     40       0.00000           0.261460            7.11469
     41       0.00000           0.290097            7.89395
     42       0.00000           0.312069            8.49182
     43       0.00000           0.328246            8.93204
     44       0.00000           0.340345            9.26125
     45       0.00000           0.376494           10.24493
     46       0.00000           0.406096           11.05043
     47       0.00000           0.428399           11.65733
     48       0.00000           0.458526           12.47714
     49       0.00000           0.470496           12.80284
     50       0.00000           0.487434           13.26376
     51       0.00000           0.526661           14.33117
     52       0.00000           0.586220           15.95186
     53       0.00000           0.609960           16.59786

  Highest occupied state (VBM) at     -8.54337945 eV
  | Occupation number:      2.00000000

  Lowest unoccupied state (CBM) at    -3.36690232 eV
  | Occupation number:      0.00000000

  Overall HOMO-LUMO gap:      5.17647712 eV.

  Total energy components:
  | Sum of eigenvalues            :        -185.40921643 Ha       -5045.24147821 eV
  | XC energy correction          :         -42.11521643 Ha       -1146.01334765 eV
  | XC potential correction       :          54.14441854 Ha        1473.34459139 eV
  | Free-atom electrostatic energy:        -146.85732300 Ha       -3996.19108293 eV
  | Hartree energy correction     :          -3.34369820 Ha         -90.98665732 eV
  | vdW energy correction         :           0.00000000 Ha           0.00000000 eV
  | Entropy correction            :          -0.00000000 Ha          -0.00000000 eV
  | ---------------------------
  | Total energy                  :        -323.58103553 Ha       -8805.08797472 eV
  | Total energy, T -> 0          :        -323.58103553 Ha       -8805.08797472 eV  <-- do not rely on this value for anything but (periodic) metals
  | Electronic free energy        :        -323.58103553 Ha       -8805.08797472 eV

  Derived energy quantities:
  | Kinetic energy                :         322.28082579 Ha        8769.70746762 eV
  | Electrostatic energy          :        -603.74664489 Ha      -16428.78209469 eV
  | Energy correction for multipole
  | error in Hartree potential    :           0.01213754 Ha           0.33027940 eV
  | Sum of eigenvalues per atom                           :        -388.09549832 eV
  | Total energy (T->0) per atom                          :        -677.31445959 eV  <-- do not rely on this value for anything but (periodic) metals
  | Electronic free energy per atom                       :        -677.31445959 eV

  Self-consistency convergence accuracy:
  | Change of charge density      :  0.5854E+00
  | Change of sum of eigenvalues  :  0.9330E+02 eV
  | Change of total energy        :  0.5007E+01 eV

  End self-consistency iteration #     1       :  max(cpu_time)    wall_clock(cpu1)
  | Time for this iteration                    :        1.176 s           1.177 s
  | Charge density update                      :        0.388 s           0.389 s
  | Density mixing                             :        0.005 s           0.005 s
  | Hartree multipole update                   :        0.009 s           0.009 s
  | Hartree multipole summation                :        0.281 s           0.281 s
  | Integration                                :        0.490 s           0.490 s
  | Solution of K.-S. eqns.                    :        0.002 s           0.002 s
  | Total energy evaluation                    :        0.000 s           0.000 s

  Partial memory accounting:
  | Current value for overall tracked memory usage on task 0  :           0.165 MB
  | Peak value for overall tracked memory usage on task 0     :           0.695 MB after allocating gradient_basis_wave
  | Largest tracked array allocation on task 0 so far         :           0.397 MB  when allocating gradient_basis_wave
  Note:  These values currently only include a subset of arrays which are explicitly tracked.
  The "true" memory usage will be greater.
------------------------------------------------------------

------------------------------------------------------------
          Begin self-consistency iteration #    2

  Date     :  20200815, Time     :  002917.060
------------------------------------------------------------
  Evaluating new KS density.
  Integration grid: deviation in total charge (<rho> - N_e) =  -2.131628E-14
  Pulay mixing of updated and previous charge densities.

  Evaluating partitioned Hartree potential by multipole expansion.
  | Analytical far-field extrapolation by fixed multipoles:
  | Hartree multipole sum: apparent total charge =  -0.284424E-03
  Summing up the Hartree potential.
  Time summed over all CPUs for potential: real work        0.282 s, elapsed        0.282 s
  | RMS charge density error from multipole expansion :   0.138875E-01

  Integrating Hamiltonian matrix: batch-based integration.
  Time summed over all CPUs for integration: real work        0.488 s, elapsed        0.488 s

  Updating Kohn-Sham eigenvalues and eigenvectors using ELSI and the ELPA eigensolver.
  Finished Cholesky decomposition
  | Time :     0.000 s
  Finished transformation to standard eigenproblem
  | Time :     0.000 s
  Starting LAPACK eigensolver
  Finished solving standard eigenproblem
  | Time :     0.002 s
  Finished back-transformation of eigenvectors
  | Time :     0.000 s

  Obtaining occupation numbers and chemical potential using ELSI.
  | Chemical potential (Fermi level):    -2.94674441eV
  Highest occupied state (VBM) at     -6.46143441 eV
  | Occupation number:      2.00000000

  Lowest unoccupied state (CBM) at    -2.18237107 eV
  | Occupation number:      0.00000000

  Overall HOMO-LUMO gap:      4.27906334 eV.

  Checking to see if s.c.f. parameters should be adjusted.

  Total energy components:
  | Sum of eigenvalues            :        -181.82041847 Ha       -4947.58531687 eV
  | XC energy correction          :         -42.47500352 Ha       -1155.80365249 eV
  | XC potential correction       :          54.61085533 Ha        1486.03698213 eV
  | Free-atom electrostatic energy:        -146.85732300 Ha       -3996.19108293 eV
  | Hartree energy correction     :          -6.96046838 Ha        -189.40398151 eV
  | vdW energy correction         :           0.00000000 Ha           0.00000000 eV
  | Entropy correction            :           0.00000000 Ha           0.00000000 eV
  | ---------------------------
  | Total energy                  :        -323.50235805 Ha       -8802.94705167 eV
  | Total energy, T -> 0          :        -323.50235805 Ha       -8802.94705167 eV  <-- do not rely on this value for anything but (periodic) metals
  | Electronic free energy        :        -323.50235805 Ha       -8802.94705167 eV

  Derived energy quantities:
  | Kinetic energy                :         323.59687139 Ha        8805.51889041 eV
  | Electrostatic energy          :        -604.62422592 Ha      -16452.66228959 eV
  | Energy correction for multipole
  | error in Hartree potential    :           0.02684605 Ha           0.73051813 eV
  | Sum of eigenvalues per atom                           :        -380.58348591 eV
  | Total energy (T->0) per atom                          :        -677.14977321 eV  <-- do not rely on this value for anything but (periodic) metals
  | Electronic free energy per atom                       :        -677.14977321 eV

  Self-consistency convergence accuracy:
  | Change of charge density      :  0.3653E+00
  | Change of sum of eigenvalues  :  0.9766E+02 eV
  | Change of total energy        :  0.2141E+01 eV

  End self-consistency iteration #     2       :  max(cpu_time)    wall_clock(cpu1)
  | Time for this iteration                    :        1.169 s           1.170 s
  | Charge density update                      :        0.381 s           0.381 s
  | Density mixing                             :        0.007 s           0.007 s
  | Hartree multipole update                   :        0.009 s           0.009 s
  | Hartree multipole summation                :        0.281 s           0.282 s
  | Integration                                :        0.489 s           0.489 s
  | Solution of K.-S. eqns.                    :        0.002 s           0.002 s
  | Total energy evaluation                    :        0.000 s           0.000 s

  Partial memory accounting:
  | Current value for overall tracked memory usage on task 0  :           0.166 MB
  | Peak value for overall tracked memory usage on task 0     :           0.695 MB after allocating gradient_basis_wave
  | Largest tracked array allocation on task 0 so far         :           0.397 MB  when allocating gradient_basis_wave
  Note:  These values currently only include a subset of arrays which are explicitly tracked.
  The "true" memory usage will be greater.
------------------------------------------------------------

------------------------------------------------------------
          Begin self-consistency iteration #    3

  Date     :  20200815, Time     :  002918.233
------------------------------------------------------------
  Evaluating new KS density.
  Integration grid: deviation in total charge (<rho> - N_e) =   7.105427E-15
  Pulay mixing of updated and previous charge densities.

  Evaluating partitioned Hartree potential by multipole expansion.
  | Analytical far-field extrapolation by fixed multipoles:
  | Hartree multipole sum: apparent total charge =  -0.384539E-03
  Summing up the Hartree potential.
  Time summed over all CPUs for potential: real work        0.281 s, elapsed        0.281 s
  | RMS charge density error from multipole expansion :   0.220494E-01

  Integrating Hamiltonian matrix: batch-based integration.
  Time summed over all CPUs for integration: real work        0.488 s, elapsed        0.488 s

  Updating Kohn-Sham eigenvalues and eigenvectors using ELSI and the ELPA eigensolver.
  Finished Cholesky decomposition
  | Time :     0.000 s
  Finished transformation to standard eigenproblem
  | Time :     0.000 s
  Starting LAPACK eigensolver
  Finished solving standard eigenproblem
  | Time :     0.001 s
  Finished back-transformation of eigenvectors
  | Time :     0.000 s

  Obtaining occupation numbers and chemical potential using ELSI.
  | Chemical potential (Fermi level):    -2.39145815eV
  Highest occupied state (VBM) at     -5.78137386 eV
  | Occupation number:      2.00000000

  Lowest unoccupied state (CBM) at    -1.51454919 eV
  | Occupation number:      0.00000000

  Overall HOMO-LUMO gap:      4.26682467 eV.

  Total energy components:
  | Sum of eigenvalues            :        -180.52847115 Ha       -4912.42964167 eV
  | XC energy correction          :         -42.62627899 Ha       -1159.92006742 eV
  | XC potential correction       :          54.80372466 Ha        1491.28522385 eV
  | Free-atom electrostatic energy:        -146.85732300 Ha       -3996.19108293 eV
  | Hartree energy correction     :          -8.28108096 Ha        -225.33967818 eV
  | vdW energy correction         :           0.00000000 Ha           0.00000000 eV
  | Entropy correction            :           0.00000000 Ha           0.00000000 eV
  | ---------------------------
  | Total energy                  :        -323.48942945 Ha       -8802.59524635 eV
  | Total energy, T -> 0          :        -323.48942945 Ha       -8802.59524635 eV  <-- do not rely on this value for anything but (periodic) metals
  | Electronic free energy        :        -323.48942945 Ha       -8802.59524635 eV

  Derived energy quantities:
  | Kinetic energy                :         323.16121647 Ha        8793.66411696 eV
  | Electrostatic energy          :        -604.02436693 Ha      -16436.33929589 eV
  | Energy correction for multipole
  | error in Hartree potential    :           0.03837696 Ha           1.04429029 eV
  | Sum of eigenvalues per atom                           :        -377.87920321 eV
  | Total energy (T->0) per atom                          :        -677.12271126 eV  <-- do not rely on this value for anything but (periodic) metals
  | Electronic free energy per atom                       :        -677.12271126 eV

  Self-consistency convergence accuracy:
  | Change of charge density      :  0.2043E+00
  | Change of sum of eigenvalues  :  0.3516E+02 eV
  | Change of total energy        :  0.3518E+00 eV

  End self-consistency iteration #     3       :  max(cpu_time)    wall_clock(cpu1)
  | Time for this iteration                    :        1.171 s           1.177 s
  | Charge density update                      :        0.382 s           0.388 s
  | Density mixing                             :        0.008 s           0.008 s
  | Hartree multipole update                   :        0.009 s           0.009 s
  | Hartree multipole summation                :        0.282 s           0.282 s
  | Integration                                :        0.488 s           0.488 s
  | Solution of K.-S. eqns.                    :        0.002 s           0.002 s
  | Total energy evaluation                    :        0.000 s           0.000 s

  Partial memory accounting:
  | Current value for overall tracked memory usage on task 0  :           0.166 MB
  | Peak value for overall tracked memory usage on task 0     :           0.695 MB after allocating gradient_basis_wave
  | Largest tracked array allocation on task 0 so far         :           0.397 MB  when allocating gradient_basis_wave
  Note:  These values currently only include a subset of arrays which are explicitly tracked.
  The "true" memory usage will be greater.
------------------------------------------------------------

------------------------------------------------------------
          Begin self-consistency iteration #    4

  Date     :  20200815, Time     :  002919.413
------------------------------------------------------------
  Evaluating new KS density.
  Integration grid: deviation in total charge (<rho> - N_e) =   3.552714E-14
  Pulay mixing of updated and previous charge densities.

  Evaluating partitioned Hartree potential by multipole expansion.
  | Analytical far-field extrapolation by fixed multipoles:
  | Hartree multipole sum: apparent total charge =  -0.416507E-03
  Summing up the Hartree potential.
  Time summed over all CPUs for potential: real work        0.281 s, elapsed        0.281 s
  | RMS charge density error from multipole expansion :   0.253182E-01

  Integrating Hamiltonian matrix: batch-based integration.
  Time summed over all CPUs for integration: real work        0.488 s, elapsed        0.488 s

  Updating Kohn-Sham eigenvalues and eigenvectors using ELSI and the ELPA eigensolver.
  Finished Cholesky decomposition
  | Time :     0.000 s
  Finished transformation to standard eigenproblem
  | Time :     0.000 s
  Starting LAPACK eigensolver
  Finished solving standard eigenproblem
  | Time :     0.002 s
  Finished back-transformation of eigenvectors
  | Time :     0.000 s

  Obtaining occupation numbers and chemical potential using ELSI.
  | Chemical potential (Fermi level):    -2.29199340eV
  Highest occupied state (VBM) at     -5.61272495 eV
  | Occupation number:      2.00000000

  Lowest unoccupied state (CBM) at    -1.43007368 eV
  | Occupation number:      0.00000000

  Overall HOMO-LUMO gap:      4.18265127 eV.

  Total energy components:
  | Sum of eigenvalues            :        -180.36923330 Ha       -4908.09655922 eV
  | XC energy correction          :         -42.66404329 Ha       -1160.94768620 eV
  | XC potential correction       :          54.85137318 Ha        1492.58180594 eV
  | Free-atom electrostatic energy:        -146.85732300 Ha       -3996.19108293 eV
  | Hartree energy correction     :          -8.44938157 Ha        -229.91937075 eV
  | vdW energy correction         :           0.00000000 Ha           0.00000000 eV
  | Entropy correction            :           0.00000000 Ha           0.00000000 eV
  | ---------------------------
  | Total energy                  :        -323.48860798 Ha       -8802.57289315 eV
  | Total energy, T -> 0          :        -323.48860798 Ha       -8802.57289315 eV  <-- do not rely on this value for anything but (periodic) metals
  | Electronic free energy        :        -323.48860798 Ha       -8802.57289315 eV

  Derived energy quantities:
  | Kinetic energy                :         322.80715566 Ha        8784.02963208 eV
  | Electrostatic energy          :        -603.63172036 Ha      -16425.65483904 eV
  | Energy correction for multipole
  | error in Hartree potential    :           0.04256324 Ha           1.15820474 eV
  | Sum of eigenvalues per atom                           :        -377.54588917 eV
  | Total energy (T->0) per atom                          :        -677.12099178 eV  <-- do not rely on this value for anything but (periodic) metals
  | Electronic free energy per atom                       :        -677.12099178 eV

  Self-consistency convergence accuracy:
  | Change of charge density      :  0.6223E-01
  | Change of sum of eigenvalues  :  0.4333E+01 eV
  | Change of total energy        :  0.2235E-01 eV

  End self-consistency iteration #     4       :  max(cpu_time)    wall_clock(cpu1)
  | Time for this iteration                    :        1.172 s           1.173 s
  | Charge density update                      :        0.382 s           0.382 s
  | Density mixing                             :        0.009 s           0.009 s
  | Hartree multipole update                   :        0.009 s           0.009 s
  | Hartree multipole summation                :        0.282 s           0.282 s
  | Integration                                :        0.488 s           0.488 s
  | Solution of K.-S. eqns.                    :        0.002 s           0.002 s
  | Total energy evaluation                    :        0.000 s           0.000 s

  Partial memory accounting:
  | Current value for overall tracked memory usage on task 0  :           0.166 MB
  | Peak value for overall tracked memory usage on task 0     :           0.696 MB after allocating gradient_basis_wave
  | Largest tracked array allocation on task 0 so far         :           0.397 MB  when allocating gradient_basis_wave
  Note:  These values currently only include a subset of arrays which are explicitly tracked.
  The "true" memory usage will be greater.
------------------------------------------------------------

------------------------------------------------------------
          Begin self-consistency iteration #    5

  Date     :  20200815, Time     :  002920.586
------------------------------------------------------------
  Evaluating new KS density.
  Integration grid: deviation in total charge (<rho> - N_e) =  -1.421085E-14
  Pulay mixing of updated and previous charge densities.

  Evaluating partitioned Hartree potential by multipole expansion.
  | Analytical far-field extrapolation by fixed multipoles:
  | Hartree multipole sum: apparent total charge =  -0.410104E-03
  Summing up the Hartree potential.
  Time summed over all CPUs for potential: real work        0.282 s, elapsed        0.282 s
  | RMS charge density error from multipole expansion :   0.250914E-01

  Integrating Hamiltonian matrix: batch-based integration.
  Time summed over all CPUs for integration: real work        0.488 s, elapsed        0.488 s

  Updating Kohn-Sham eigenvalues and eigenvectors using ELSI and the ELPA eigensolver.
  Finished Cholesky decomposition
  | Time :     0.000 s
  Finished transformation to standard eigenproblem
  | Time :     0.000 s
  Starting LAPACK eigensolver
  Finished solving standard eigenproblem
  | Time :     0.002 s
  Finished back-transformation of eigenvectors
  | Time :     0.000 s

  Obtaining occupation numbers and chemical potential using ELSI.
  | Chemical potential (Fermi level):    -2.34134036eV
  Highest occupied state (VBM) at     -5.69181880 eV
  | Occupation number:      2.00000000

  Lowest unoccupied state (CBM) at    -1.51660383 eV
  | Occupation number:      0.00000000

  Overall HOMO-LUMO gap:      4.17521497 eV.

  Total energy components:
  | Sum of eigenvalues            :        -180.57579540 Ha       -4913.71739990 eV
  | XC energy correction          :         -42.63894977 Ha       -1160.26485686 eV
  | XC potential correction       :          54.81881340 Ha        1491.69580914 eV
  | Free-atom electrostatic energy:        -146.85732300 Ha       -3996.19108293 eV
  | Hartree energy correction     :          -8.23505336 Ha        -224.08720341 eV
  | vdW energy correction         :           0.00000000 Ha           0.00000000 eV
  | Entropy correction            :           0.00000000 Ha           0.00000000 eV
  | ---------------------------
  | Total energy                  :        -323.48830814 Ha       -8802.56473397 eV
  | Total energy, T -> 0          :        -323.48830814 Ha       -8802.56473397 eV  <-- do not rely on this value for anything but (periodic) metals
  | Electronic free energy        :        -323.48830814 Ha       -8802.56473397 eV

  Derived energy quantities:
  | Kinetic energy                :         322.68621835 Ha        8780.73876037 eV
  | Electrostatic energy          :        -603.53557672 Ha      -16423.03863747 eV
  | Energy correction for multipole
  | error in Hartree potential    :           0.04193795 Ha           1.14118968 eV
  | Sum of eigenvalues per atom                           :        -377.97826153 eV
  | Total energy (T->0) per atom                          :        -677.12036415 eV  <-- do not rely on this value for anything but (periodic) metals
  | Electronic free energy per atom                       :        -677.12036415 eV

  Self-consistency convergence accuracy:
  | Change of charge density      :  0.2063E-01
  | Change of sum of eigenvalues  : -0.5621E+01 eV
  | Change of total energy        :  0.8159E-02 eV

  End self-consistency iteration #     5       :  max(cpu_time)    wall_clock(cpu1)
  | Time for this iteration                    :        1.173 s           1.174 s
  | Charge density update                      :        0.381 s           0.382 s
  | Density mixing                             :        0.011 s           0.010 s
  | Hartree multipole update                   :        0.008 s           0.008 s
  | Hartree multipole summation                :        0.282 s           0.282 s
  | Integration                                :        0.488 s           0.489 s
  | Solution of K.-S. eqns.                    :        0.002 s           0.002 s
  | Total energy evaluation                    :        0.000 s           0.000 s

  Partial memory accounting:
  | Current value for overall tracked memory usage on task 0  :           0.166 MB
  | Peak value for overall tracked memory usage on task 0     :           0.696 MB after allocating gradient_basis_wave
  | Largest tracked array allocation on task 0 so far         :           0.397 MB  when allocating gradient_basis_wave
  Note:  These values currently only include a subset of arrays which are explicitly tracked.
  The "true" memory usage will be greater.
------------------------------------------------------------

------------------------------------------------------------
          Begin self-consistency iteration #    6

  Date     :  20200815, Time     :  002921.763
------------------------------------------------------------
  Evaluating new KS density.
  Integration grid: deviation in total charge (<rho> - N_e) =   0.000000E+00
  Pulay mixing of updated and previous charge densities.

  Evaluating partitioned Hartree potential by multipole expansion.
  | Analytical far-field extrapolation by fixed multipoles:
  | Hartree multipole sum: apparent total charge =  -0.413891E-03
  Summing up the Hartree potential.
  Time summed over all CPUs for potential: real work        0.281 s, elapsed        0.281 s
  | RMS charge density error from multipole expansion :   0.255372E-01

  Integrating Hamiltonian matrix: batch-based integration.
  Time summed over all CPUs for integration: real work        0.488 s, elapsed        0.488 s

  Updating Kohn-Sham eigenvalues and eigenvectors using ELSI and the ELPA eigensolver.
  Finished Cholesky decomposition
  | Time :     0.000 s
  Finished transformation to standard eigenproblem
  | Time :     0.000 s
  Starting LAPACK eigensolver
  Finished solving standard eigenproblem
  | Time :     0.002 s
  Finished back-transformation of eigenvectors
  | Time :     0.000 s

  Obtaining occupation numbers and chemical potential using ELSI.
  | Chemical potential (Fermi level):    -2.32601218eV
  Highest occupied state (VBM) at     -5.65287373 eV
  | Occupation number:      2.00000000

  Lowest unoccupied state (CBM) at    -1.52599407 eV
  | Occupation number:      0.00000000

  Overall HOMO-LUMO gap:      4.12687965 eV.

  Total energy components:
  | Sum of eigenvalues            :        -180.57001565 Ha       -4913.56012505 eV
  | XC energy correction          :         -42.63860307 Ha       -1160.25542257 eV
  | XC potential correction       :          54.81834044 Ha        1491.68293944 eV
  | Free-atom electrostatic energy:        -146.85732300 Ha       -3996.19108293 eV
  | Hartree energy correction     :          -8.24066249 Ha        -224.23983551 eV
  | vdW energy correction         :           0.00000000 Ha           0.00000000 eV
  | Entropy correction            :           0.00000000 Ha           0.00000000 eV
  | ---------------------------
  | Total energy                  :        -323.48826377 Ha       -8802.56352662 eV
  | Total energy, T -> 0          :        -323.48826377 Ha       -8802.56352662 eV  <-- do not rely on this value for anything but (periodic) metals
  | Electronic free energy        :        -323.48826377 Ha       -8802.56352662 eV

  Derived energy quantities:
  | Kinetic energy                :         322.60810710 Ha        8778.61324522 eV
  | Electrostatic energy          :        -603.45776781 Ha      -16420.92134926 eV
  | Energy correction for multipole
  | error in Hartree potential    :           0.04236312 Ha           1.15275928 eV
  | Sum of eigenvalues per atom                           :        -377.96616347 eV
  | Total energy (T->0) per atom                          :        -677.12027128 eV  <-- do not rely on this value for anything but (periodic) metals
  | Electronic free energy per atom                       :        -677.12027128 eV

  Self-consistency convergence accuracy:
  | Change of charge density      :  0.1059E-01
  | Change of sum of eigenvalues  :  0.1573E+00 eV
  | Change of total energy        :  0.1207E-02 eV

  End self-consistency iteration #     6       :  max(cpu_time)    wall_clock(cpu1)
  | Time for this iteration                    :        1.175 s           1.175 s
  | Charge density update                      :        0.382 s           0.382 s
  | Density mixing                             :        0.012 s           0.011 s
  | Hartree multipole update                   :        0.009 s           0.010 s
  | Hartree multipole summation                :        0.282 s           0.281 s
  | Integration                                :        0.488 s           0.489 s
  | Solution of K.-S. eqns.                    :        0.002 s           0.002 s
  | Total energy evaluation                    :        0.000 s           0.000 s

  Partial memory accounting:
  | Current value for overall tracked memory usage on task 0  :           0.166 MB
  | Peak value for overall tracked memory usage on task 0     :           0.696 MB after allocating gradient_basis_wave
  | Largest tracked array allocation on task 0 so far         :           0.397 MB  when allocating gradient_basis_wave
  Note:  These values currently only include a subset of arrays which are explicitly tracked.
  The "true" memory usage will be greater.
------------------------------------------------------------

------------------------------------------------------------
          Begin self-consistency iteration #    7

  Date     :  20200815, Time     :  002922.941
------------------------------------------------------------
  Evaluating new KS density.
  Integration grid: deviation in total charge (<rho> - N_e) =  -5.684342E-14
  Pulay mixing of updated and previous charge densities.

  Evaluating partitioned Hartree potential by multipole expansion.
  | Analytical far-field extrapolation by fixed multipoles:
  | Hartree multipole sum: apparent total charge =  -0.414847E-03
  Summing up the Hartree potential.
  Time summed over all CPUs for potential: real work        0.282 s, elapsed        0.282 s
  | RMS charge density error from multipole expansion :   0.256660E-01

  Integrating Hamiltonian matrix: batch-based integration.
  Time summed over all CPUs for integration: real work        0.489 s, elapsed        0.489 s

  Updating Kohn-Sham eigenvalues and eigenvectors using ELSI and the ELPA eigensolver.
  Finished Cholesky decomposition
  | Time :     0.000 s
  Finished transformation to standard eigenproblem
  | Time :     0.000 s
  Starting LAPACK eigensolver
  Finished solving standard eigenproblem
  | Time :     0.002 s
  Finished back-transformation of eigenvectors
  | Time :     0.000 s

[...]
  |   Hirshfeld dipole moment :      0.06108710
  |   Hirshfeld second moments:      0.00520500      -0.02667134      -0.01902170
  |                                 -0.02667134      -0.01011166       0.01248047
  |                                 -0.01902170       0.01248047      -0.01523904
  ----------------------------------------------------------------------
  | Atom    12: O
  |   Hirshfeld charge        :     -0.14190946
  |   Free atom volume        :     23.61338643
  |   Hirshfeld volume        :     20.58756925
  |   Hirshfeld dipole vector :      0.02936481       0.00810221       0.01755828
  |   Hirshfeld dipole moment :      0.03516008
  |   Hirshfeld second moments:      0.05309637      -0.01723173      -0.01097906
  |                                 -0.01723173       0.10643301       0.00773187
  |                                 -0.01097906       0.00773187       0.04181975
  ----------------------------------------------------------------------
  | Atom    13: H
  |   Hirshfeld charge        :      0.18356594
  |   Free atom volume        :      9.95071624
  |   Hirshfeld volume        :      6.07817279
  |   Hirshfeld dipole vector :      0.06224637      -0.10756771      -0.00346149
  |   Hirshfeld dipole moment :      0.12432781
  |   Hirshfeld second moments:      0.11916734       0.00174566      -0.00873649
  |                                  0.00174566       0.12741540       0.00109595
  |                                 -0.00873649       0.00109595       0.10201705
  ----------------------------------------------------------------------


  Total energy components:
  | Sum of eigenvalues            :        -180.56553740 Ha       -4913.43826556 eV
  | XC energy correction          :         -42.63574569 Ha       -1160.17766952 eV
  | XC potential correction       :          54.81472441 Ha        1491.58454219 eV
  | Free-atom electrostatic energy:        -146.85732300 Ha       -3996.19108293 eV
  | Hartree energy correction     :          -8.24436147 Ha        -224.34048985 eV
  | vdW energy correction         :          -0.00319584 Ha          -0.08696331 eV
  | Entropy correction            :           0.00000000 Ha           0.00000000 eV
  | ---------------------------
  | Total energy                  :        -323.49143900 Ha       -8802.64992898 eV
  | Total energy, T -> 0          :        -323.49143900 Ha       -8802.64992898 eV  <-- do not rely on this value for anything but (periodic) metals
  | Electronic free energy        :        -323.49143900 Ha       -8802.64992898 eV

  Derived energy quantities:
  | Kinetic energy                :         322.56936801 Ha        8777.55910090 eV
  | Electrostatic energy          :        -603.42186547 Ha      -16419.94439705 eV
  | Energy correction for multipole
  | error in Hartree potential    :           0.04244367 Ha           1.15495108 eV
  | Sum of eigenvalues per atom                           :        -377.95678966 eV
  | Total energy (T->0) per atom                          :        -677.12691761 eV  <-- do not rely on this value for anything but (periodic) metals
  | Electronic free energy per atom                       :        -677.12691761 eV

  atomic forces [eV/Ang]:
  -----------------------
  atom #    1
   Hellmann-Feynman              :  0.391641E+00  0.452225E+00  0.818253E+00
   Ionic forces                  :  0.000000E+00  0.000000E+00  0.000000E+00
   Multipole                     :  0.238321E+00  0.236407E+00 -0.277667E+00
   Pulay + GGA                   : -0.122207E+01 -0.432517E+00 -0.104916E+01
   Van der Waals                 :  0.243292E-02  0.532411E-02 -0.171627E-02
   ----------------------------------------------------------------
   Total forces(   1)            : -0.589671E+00  0.261439E+00 -0.510286E+00
  atom #    2
   Hellmann-Feynman              :  0.433628E+00 -0.109193E+00  0.407708E+00
   Ionic forces                  :  0.000000E+00  0.000000E+00  0.000000E+00
   Multipole                     :  0.148205E+00  0.233003E-01 -0.372931E-01
   Pulay + GGA                   : -0.117477E+00  0.156853E-01  0.143442E-01
   Van der Waals                 :  0.851542E-02 -0.405420E-02 -0.164328E-02
   ----------------------------------------------------------------
   Total forces(   2)            :  0.472871E+00 -0.742618E-01  0.383116E+00
  atom #    3
   Hellmann-Feynman              : -0.115149E+02  0.416246E+01  0.658111E+00
   Ionic forces                  :  0.000000E+00  0.000000E+00  0.000000E+00
   Multipole                     : -0.536320E-01  0.151773E+00 -0.987108E+00
   Pulay + GGA                   :  0.113767E+02 -0.420666E+01  0.104884E+01
   Van der Waals                 :  0.337950E-02 -0.877046E-02 -0.621489E-02
   ----------------------------------------------------------------
   Total forces(   3)            : -0.188413E+00  0.988009E-01  0.713623E+00
  atom #    4
   Hellmann-Feynman              :  0.133099E+00 -0.740646E-01 -0.104397E+00
   Ionic forces                  :  0.000000E+00  0.000000E+00  0.000000E+00
   Multipole                     :  0.348639E-01  0.339466E-02 -0.101078E+00
   Pulay + GGA                   : -0.189499E+00 -0.672757E-01  0.108861E+00
   Van der Waals                 : -0.200903E-02 -0.501288E-02 -0.203479E-02
   ----------------------------------------------------------------
   Total forces(   4)            : -0.235446E-01 -0.142959E+00 -0.986484E-01
  atom #    5
   Hellmann-Feynman              :  0.189499E+00 -0.135360E+00 -0.254268E+00
   Ionic forces                  :  0.000000E+00  0.000000E+00  0.000000E+00
   Multipole                     :  0.953155E-02 -0.718691E-01 -0.964946E-01
   Pulay + GGA                   : -0.122025E+00  0.185287E+00  0.873763E-01
   Van der Waals                 : -0.315182E-02  0.286456E-02 -0.289870E-03
   ----------------------------------------------------------------
   Total forces(   5)            :  0.738541E-01 -0.190779E-01 -0.263677E+00
  atom #    6
   Hellmann-Feynman              : -0.175346E+00 -0.618390E+00  0.487070E+00
   Ionic forces                  :  0.000000E+00  0.000000E+00  0.000000E+00
   Multipole                     : -0.119885E+00  0.671140E+00  0.246022E+00
   Pulay + GGA                   :  0.422683E+00 -0.398928E+00 -0.637337E+00
   Van der Waals                 : -0.461303E-02  0.539272E-02  0.926524E-03
   ----------------------------------------------------------------
   Total forces(   6)            :  0.122840E+00 -0.340786E+00  0.966824E-01
  atom #    7
   Hellmann-Feynman              : -0.182852E+00 -0.512460E-01 -0.766160E-01
   Ionic forces                  :  0.000000E+00  0.000000E+00  0.000000E+00
   Multipole                     : -0.123605E+00  0.495436E-01  0.305411E-01
   Pulay + GGA                   :  0.120807E+00 -0.976456E-02 -0.346086E-01
   Van der Waals                 : -0.823680E-03  0.177010E-02  0.276304E-02
   ----------------------------------------------------------------
   Total forces(   7)            : -0.186474E+00 -0.969687E-02 -0.779205E-01
  atom #    8
   Hellmann-Feynman              :  0.126268E+00 -0.312626E-01  0.137844E+00
   Ionic forces                  :  0.000000E+00  0.000000E+00  0.000000E+00
   Multipole                     :  0.117553E-01  0.612869E-01  0.124395E+00
   Pulay + GGA                   : -0.423062E-01 -0.342795E-01 -0.858878E-01
   Van der Waals                 : -0.244419E-02  0.115611E-01  0.146370E-02
   ----------------------------------------------------------------
   Total forces(   8)            :  0.932725E-01  0.730589E-02  0.177815E+00
  atom #    9
   Hellmann-Feynman              :  0.108494E+00  0.613438E-01 -0.177042E+00
   Ionic forces                  :  0.000000E+00  0.000000E+00  0.000000E+00
   Multipole                     :  0.157134E-01  0.126286E+00 -0.102921E-01
   Pulay + GGA                   : -0.573052E-01 -0.741316E-01  0.582761E-01
   Van der Waals                 : -0.203515E-02  0.452058E-02  0.512308E-02
   ----------------------------------------------------------------
   Total forces(   9)            :  0.648674E-01  0.118018E+00 -0.123935E+00
  atom #   10
   Hellmann-Feynman              :  0.281062E+01  0.568179E+01  0.130167E+01
   Ionic forces                  :  0.000000E+00  0.000000E+00  0.000000E+00
   Multipole                     :  0.605000E-01 -0.149440E+00  0.285392E+00
   Pulay + GGA                   : -0.198390E+01 -0.270299E+01 -0.152794E+00
   Van der Waals                 :  0.338264E-02 -0.104490E-01 -0.163731E-02
   ----------------------------------------------------------------
   Total forces(  10)            :  0.890602E+00  0.281891E+01  0.143263E+01
  atom #   11
   Hellmann-Feynman              :  0.408347E+01 -0.217620E+01  0.140117E+02
   Ionic forces                  :  0.000000E+00  0.000000E+00  0.000000E+00
   Multipole                     :  0.137238E+00 -0.709925E+00  0.765881E+00
   Pulay + GGA                   : -0.306488E+01  0.338367E+01 -0.136113E+02
   Van der Waals                 : -0.322207E-02 -0.116272E-01  0.164246E-02
   ----------------------------------------------------------------
   Total forces(  11)            :  0.115261E+01  0.485918E+00  0.116794E+01
  atom #   12
   Hellmann-Feynman              : -0.114117E+02  0.100055E+01 -0.115543E+02
   Ionic forces                  :  0.000000E+00  0.000000E+00  0.000000E+00
   Multipole                     : -0.104198E+01 -0.101435E+01 -0.455696E+00
   Pulay + GGA                   :  0.114247E+02 -0.214547E+01  0.893349E+01
   Van der Waals                 :  0.676172E-03  0.637357E-02  0.445857E-02
   ----------------------------------------------------------------
   Total forces(  12)            : -0.102826E+01 -0.215291E+01 -0.307210E+01
  atom #   13
   Hellmann-Feynman              : -0.686888E+00 -0.129736E+01  0.226008E+00
   Ionic forces                  :  0.000000E+00  0.000000E+00  0.000000E+00
   Multipole                     :  0.491102E-01 -0.743868E-01 -0.145220E-01
   Pulay + GGA                   : -0.215127E+00  0.314107E+00 -0.368661E-01
   Van der Waals                 : -0.876825E-04  0.210709E-02 -0.284095E-02
   ----------------------------------------------------------------
   Total forces(  13)            : -0.852993E+00 -0.105553E+01  0.171779E+00

  Timings for VdW correction (Tkatchenko-Scheffler 2009 or later):
  | CPU time:        0.088 s, Wall clock time:        0.089 s.
  Removing unitary transformations (pure translations, rotations) from forces on atoms.
  Atomic forces before filtering:
  | Net force on center of mass :   0.156147E-02 -0.483215E-02 -0.297520E-02 eV/A
  | Net torque on center of mass:  -0.484712E-02  0.623359E-02  0.899797E-03 eV
  Atomic forces after filtering:
  | Net force on center of mass :  -0.178406E-15 -0.356812E-15 -0.200707E-15 eV/A
  | Net torque on center of mass:  -0.896880E-15  0.448440E-15 -0.755268E-15 eV

  Energy and forces in a compact form:
  | Total energy uncorrected      :         -0.880264992897735E+04 eV
  | Total energy corrected        :         -0.880264992897735E+04 eV  <-- do not rely on this value for anything but (periodic) metals
  | Electronic free energy        :         -0.880264992897735E+04 eV
  Total atomic forces (unitary forces cleaned) [eV/Ang]:
  |   1         -0.589758008876138E+00          0.261808672202508E+00         -0.509948481768697E+00
  |   2          0.472784128470259E+00         -0.739313759117790E-01          0.383756963198370E+00
  |   3         -0.188108104458662E+00          0.993292786070907E-01          0.713827671987805E+00
  |   4         -0.230634470979797E-01         -0.142396630635064E+00         -0.982102819405927E-01
  |   5          0.742189322670966E-01         -0.185148571339937E-01         -0.263572814425449E+00
  |   6          0.122595825128484E+00         -0.340471230522634E+00          0.970087342185016E-01
  |   7         -0.186720990859162E+00         -0.934486303891501E-02         -0.778944149078628E-01
  |   8          0.927431014986719E-01          0.750400970938486E-02          0.178242654723920E+00
  |   9          0.647958573374538E-01          0.118370474171512E+00         -0.123418027298988E+00
  |  10          0.890262393250306E+00          0.281921723637759E+01          0.143273221127873E+01
  |  11          0.115194611949466E+01          0.486102647706942E+00          0.116808921586824E+01
  |  12         -0.102844429869462E+01         -0.215250532342104E+01         -0.307227764895864E+01
  |  13         -0.853251507460373E+00         -0.105516803811160E+01          0.171664218024666E+00

  ------------------------------------ 
  Start decomposition of the XC Energy 
  ------------------------------------ 
  X and C from original XC functional choice 
  Hartree-Fock Energy :          0.000000000 Ha              0.000000000 eV
  X Energy            :        -41.035797164 Ha          -1116.640854904 eV
  C Energy            :         -1.599948530 Ha            -43.536814617 eV
  Total XC Energy     :        -42.635745694 Ha          -1160.177669521 eV
  ------------------------------------ 
  LDA X and C from self-consistent density 
  X Energy LDA        :        -37.253925302 Ha          -1013.730885536 eV
  C Energy LDA        :         -3.138360262 Ha            -85.399127791 eV
  ------------------------------------ 
  End decomposition of the XC Energy 
  ------------------------------------ 

------------------------------------------------------------

------------------------------------------------------------------------------
  Final output of selected total energy values:

  The following output summarizes some interesting total energy values
  at the end of a run (AFTER all relaxation, molecular dynamics, etc.).

  | Total energy of the DFT / Hartree-Fock s.c.f. calculation      :          -8802.649928977 eV
  | Final zero-broadening corrected energy (caution - metals only) :          -8802.649928977 eV
  | For reference only, the value of 1 Hartree used in FHI-aims is :             27.211384500 eV

  Before relying on these values, please be sure to understand exactly which
  total energy value is referred to by a given number. Different objects may
  all carry the same name 'total energy'. Definitions:

  Total energy of the DFT / Hartree-Fock s.c.f. calculation:
  | Note that this energy does not include ANY quantities calculated after the
  | s.c.f. cycle, in particular not ANY RPA, MP2, etc. many-body perturbation terms.

  Final zero-broadening corrected energy:
  | For metallic systems only, a broadening of the occupation numbers at the Fermi
  | level can be extrapolated back to zero broadening by an electron-gas inspired
  | formula. For all systems that are not real metals, this value can be
  | meaningless and should be avoided.

------------------------------------------------------------------------------
  Methods described in the following list of references were used in this FHI-aims run.
  If you publish the results, please make sure to cite these reference if they apply.
  FHI-aims is an academic code, and for our developers (often, Ph.D. students
  and postdocs), scientific credit in the community is essential.
  Thank you for helping us!

  For any use of FHI-aims, please cite:

    Volker Blum, Ralf Gehrke, Felix Hanke, Paula Havu, Ville Havu,
    Xinguo Ren, Karsten Reuter, and Matthias Scheffler
    'Ab initio molecular simulations with numeric atom-centered orbitals'
    Computer Physics Communications 180, 2175-2196 (2009)
    http://dx.doi.org/10.1016/j.cpc.2009.06.022


  The scalable eigensolver library ELPA was used in your run.
  ELPA is essential especially for large systems on hundreds or thousands of CPUs.
  For ELPA, please cite:

    Andreas Marek, Volker Blum, Rainer Johanni, Ville Havu, Bruno Lang,
    Thomas Auckenthaler, Alexander Heinecke, Hans-Joachim Bungartz, and Hermann Lederer,
    'The ELPA Library - Scalable Parallel Eigenvalue Solutions
    for Electronic Structure Theory and Computational Science'
    The Journal of Physics: Condensed Matter 26, 213201 (2014).
    http://dx.doi.org/10.1088/0953-8984/26/21/213201


  The ELSI infrastructure was used in your run to solve the Kohn-Sham electronic structure.
  Please check out http://elsi-interchange.org to learn more.
  If scalability is important for your project, please acknowledge ELSI by citing:

    V. W-z. Yu, F. Corsetti, A. Garcia, W. P. Huhn, M. Jacquelin, W. Jia,
    B. Lange, L. Lin, J. Lu, W. Mi, A. Seifitokaldani, A. Vazquez-Mayagoitia,
    C. Yang, H. Yang, and V. Blum
    'ELSI: A unified software interface for Kohn-Sham electronic structure solvers'
    Computer Physics Communications 222, 267-285 (2018).
    http://dx.doi.org/10.1016/j.cpc.2017.09.007


  For the real-space grid partitioning and parallelization used in this calculation, please cite:

    Ville Havu, Volker Blum, Paula Havu, and Matthias Scheffler,
    'Efficient O(N) integration for all-electron electronic structure calculation'
    'using numerically tabulated basis functions'
    Journal of Computational Physics 228, 8367-8379 (2009).
    http://dx.doi.org/10.1016/j.jcp.2009.08.008

  Of course, there are many other important community references, e.g., those cited in the
  above references. Our list is limited to references that describe implementations in the
  FHI-aims code. The reason is purely practical (length of this list) - please credit others as well.

------------------------------------------------------------
          Leaving FHI-aims.
          Date     :  20200815, Time     :  002937.153

          Computational steps:
          | Number of self-consistency cycles          :           16
          | Number of SCF (re)initializations          :            1

          Detailed time accounting                     :  max(cpu_time)    wall_clock(cpu1)
          | Total time                                 :       22.509 s          22.580 s
          | Preparation time                           :        0.145 s           0.147 s
          | Boundary condition initalization           :        0.000 s           0.000 s
          | Grid partitioning                          :        0.110 s           0.111 s
          | Preloading free-atom quantities on grid    :        0.002 s           0.003 s
          | Free-atom superposition energy             :        0.084 s           0.084 s
          | Total time for integrations                :        8.525 s           8.534 s
          | Total time for solution of K.-S. equations :        0.036 s           0.036 s
          | Total time for density & force components  :        7.056 s           7.067 s
          | Total time for mixing                      :        0.213 s           0.212 s
          | Total time for Hartree multipole update    :        0.139 s           0.143 s
          | Total time for Hartree multipole sum       :        5.800 s           5.802 s
          | Total time for total energy evaluation     :        0.003 s           0.002 s
          | Total time for vdW correction              :        0.088 s           0.089 s

          Partial memory accounting:
          | Residual value for overall tracked memory usage across tasks :           0.000 MB (should be 0.000 MB)
          | Peak values for overall tracked memory usage (after allocating hessian_basis_wave):
          |   Minimum:        1.622 MB (on task 1)
          |   Maximum:        1.622 MB (on task 1)
          |   Average:        1.622 MB
          | Largest tracked array allocation (hessian_basis_wave):
          |   Minimum:        0.794 MB (on task 1)
          |   Maximum:        0.794 MB (on task 1)
          |   Average:        0.794 MB
          Note:  These values currently only include a subset of arrays which are explicitly tracked.
          The "true" memory usage will be greater.

          Have a nice day.
------------------------------------------------------------
