  MPI-parallelism will be employed.
------------------------------------------------------------
          Invoking FHI-aims ...
          Version 171221_1
          Compiled on 2019/09/09 at 14:39:39 on host puhti-login2.bullx.

          When using FHI-aims, please cite the following reference:

          Volker Blum, Ralf Gehrke, Felix Hanke, Paula Havu,
          Ville Havu, Xinguo Ren, Karsten Reuter, and Matthias Scheffler,
          'Ab Initio Molecular Simulations with Numeric Atom-Centered Orbitals',
          Computer Physics Communications 180, 2175-2196 (2009)

          For any questions about FHI-aims, please visit the aimsclub website
          with its forums and wiki. Contributions to both the forums and the
          wiki are warmly encouraged - they are for you, and everyone is welcome there.

------------------------------------------------------------



  Date     :  20200805, Time     :  181156.311
  Time zero on CPU 1             :   0.118300000000000E-01  s.
  Internal wall clock time zero  :           365883116.311  s.

  FHI-aims created a unique identifier for this run for later identification
  aims_uuid : 5891DE63-E6CE-4CDF-A1A1-46F4DBBA3364

  Using        1 parallel tasks.
  Task        0 on host r16c14.bullx reporting.

  Performing system and environment tests:
  | Environment variable OMP_NUM_THREADS correctly set to 1.
  | Stacksize not measured: no C compiler
  | Checking for scalapack...
  | Testing pdtran()...
  | All pdtran() tests passed.

  Obtaining array dimensions for all initial allocations:
  
  -----------------------------------------------------------------------
  Parsing control.in (first pass over file, find array dimensions only).
  The contents of control.in will be repeated verbatim below
  unless switched off by setting 'verbatim_writeout .false.' .
  in the first line of control.in .
  -----------------------------------------------------------------------
  
  #########################################################################################
  #
  #  Volker Blum, FHI 2009 : Test run input file control.in for simple H2O
  #
  #########################################################################################
  #
  #  Physical model
  #
    xc                 pbe
    vdw_correction_hirshfeld
    spin               none
    relativistic       none
    charge             0.
  #
  #  SCF convergence
  #
    occupation_type    gaussian 0.01
    mixer              pulay
      n_max_pulay        10
      charge_mix_param   0.2
    sc_accuracy_rho    1E-5
    sc_accuracy_eev    1E-3
    sc_accuracy_etot   1E-6
    sc_accuracy_forces 1E-4
    sc_iter_limit      100
  #
  #  Relaxation
  #
  #  relax_geometry   bfgs 1.e-3
  #
  ################################################################################
  #
  #  FHI-aims code project
  #  VB, Fritz-Haber Institut, 2009
  #
  #  Suggested "light" defaults for H atom (to be pasted into control.in file)
  #  Be sure to double-check any results obtained with these settings for post-processing,
  #  e.g., with the "tight" defaults and larger basis sets.
  #
  ################################################################################
    species        H
  #     global species definitions
      nucleus             1
      mass                1.00794
  #
      l_hartree           4
  #
      cut_pot             3.5  1.5  1.0
      basis_dep_cutoff    1e-4
  #
      radial_base         24 5.0
      radial_multiplier   1
      angular_grids       specified
        division   0.2421   50
        division   0.3822  110
        division   0.4799  194
        division   0.5341  302
  #      division   0.5626  434
  #      division   0.5922  590
  #      division   0.6542  770
  #      division   0.6868 1202
  #      outer_grid  770
        outer_grid  302
  ################################################################################
  #
  #  Definition of "minimal" basis
  #
  ################################################################################
  #     valence basis states
      valence      1  s   1.
  #     ion occupancy
      ion_occ      1  s   0.5
  ################################################################################
  #
  #  Suggested additional basis functions. For production calculations,
  #  uncomment them one after another (the most important basis functions are
  #  listed first).
  #
  #  Basis constructed for dimers: 0.5 A, 0.7 A, 1.0 A, 1.5 A, 2.5 A
  #
  ################################################################################
  #  "First tier" - improvements: -1014.90 meV to -62.69 meV
       hydro 2 s 2.1
       hydro 2 p 3.5
  #  "Second tier" - improvements: -12.89 meV to -1.83 meV
  #     hydro 1 s 0.85
  #     hydro 2 p 3.7
  #     hydro 2 s 1.2
  #     hydro 3 d 7
  #  "Third tier" - improvements: -0.25 meV to -0.12 meV
  #     hydro 4 f 11.2
  #     hydro 3 p 4.8
  #     hydro 4 d 9
  #     hydro 3 s 3.2
  ################################################################################
  #
  #  FHI-aims code project
  #  VB, Fritz-Haber Institut, 2009
  #
  #  Suggested "light" defaults for C atom (to be pasted into control.in file)
  #  Be sure to double-check any results obtained with these settings for post-processing,
  #  e.g., with the "tight" defaults and larger basis sets.
  #
  ################################################################################
    species        C
  #     global species definitions
      nucleus             6
      mass                12.0107
  #
      l_hartree           4
  #
      cut_pot             3.5  1.5  1.0
      basis_dep_cutoff    1e-4
  #
      radial_base         34 5.0
      radial_multiplier   1
      angular_grids specified
        division   0.3326   50
        division   0.5710  110
        division   0.7727  194
        division   0.8772  302
  #      division   0.9334  434
  #      division   0.9625  590
  #      division   0.9924  770
  #      division   1.0230  974
  #      division   1.4589 1202
  #     outer_grid  974
       outer_grid 302
  ################################################################################
  #
  #  Definition of "minimal" basis
  #
  ################################################################################
  #     valence basis states
      valence      2  s   2.
      valence      2  p   2.
  #     ion occupancy
      ion_occ      2  s   1.
      ion_occ      2  p   1.
  ################################################################################
  #
  #  Suggested additional basis functions. For production calculations,
  #  uncomment them one after another (the most important basis functions are
  #  listed first).
  #
  #  Constructed for dimers: 1.0 A, 1.25 A, 1.5 A, 2.0 A, 3.0 A
  #
  ################################################################################
  #  "First tier" - improvements: -1214.57 meV to -155.61 meV
       hydro 2 p 1.7
       hydro 3 d 6
       hydro 2 s 4.9
  #  "Second tier" - improvements: -67.75 meV to -5.23 meV
  #     hydro 4 f 9.8
  #     hydro 3 p 5.2
  #     hydro 3 s 4.3
  #     hydro 5 g 14.4
  #     hydro 3 d 6.2
  #  "Third tier" - improvements: -2.43 meV to -0.60 meV
  #     hydro 2 p 5.6
  #     hydro 2 s 1.4
  #     hydro 3 d 4.9
  #     hydro 4 f 11.2
  #  "Fourth tier" - improvements: -0.39 meV to -0.18 meV
  #     hydro 2 p 2.1
  #     hydro 5 g 16.4
  #     hydro 4 d 13.2
  #     hydro 3 s 13.6
  #     hydro 4 f 17.6
  #  Further basis functions - improvements: -0.08 meV and below
  #     hydro 3 s 2
  #     hydro 3 p 6
  #     hydro 4 d 20
  ################################################################################
  #
  #  FHI-aims code project
  #  VB, Fritz-Haber Institut, 2009
  #
  #  Suggested "light" defaults for N atom (to be pasted into control.in file)
  #  Be sure to double-check any results obtained with these settings for post-processing,
  #  e.g., with the "tight" defaults and larger basis sets.
  #
  ################################################################################
    species        N
  #     global species definitions
      nucleus             7
      mass                14.0067
  #
      l_hartree           4
  #
      cut_pot             3.5  1.5  1.0
      basis_dep_cutoff    1e-4
  #
      radial_base         35 5.0
      radial_multiplier   1
      angular_grids       specified
        division   0.2599   50
        division   0.4601  110
        division   0.5885  194
        division   0.6503  302
  #      division   0.6939  434
  #      division   0.7396  590
  #      division   0.7632  770
  #      division   0.8122  974
  #      division   1.1604 1202
  #      outer_grid  974
        outer_grid  302
  ################################################################################
  #
  #  Definition of "minimal" basis
  #
  ################################################################################
  #     valence basis states
      valence      2  s   2.
      valence      2  p   3.
  #     ion occupancy
      ion_occ      2  s   1.
      ion_occ      2  p   2.
  ################################################################################
  #
  #  Suggested additional basis functions. For production calculations,
  #  uncomment them one after another (the most important basis functions are
  #  listed first).
  #
  #  Constructed for dimers: 1.0 A, 1.1 A, 1.5 A, 2.0 A, 3.0 A
  #
  ################################################################################
  #  "First tier" - improvements: -1193.42 meV to -220.60 meV
       hydro 2 p 1.8
       hydro 3 d 6.8
       hydro 3 s 5.8
  #  "Second tier" - improvements: -80.21 meV to -6.86 meV
  #     hydro 4 f 10.8
  #     hydro 3 p 5.8
  #     hydro 1 s 0.8
  #     hydro 5 g 16
  #     hydro 3 d 4.9
  #  "Third tier" - improvements: -4.29 meV to -0.53 meV
  #     hydro 3 s 16
  #     ionic 2 p auto
  #     hydro 3 d 6.6
  #     hydro 4 f 11.6
  #  "Fourth tier" - improvements: -0.75 meV to -0.25 meV
  #     hydro 2 p 4.5
  #     hydro 2 s 2.4
  #     hydro 5 g 14.4
  #     hydro 4 d 14.4
  #     hydro 4 f 16.8
  # Further basis functions - -0.21 meV and below
  #     hydro 3 p 14.8
  #     hydro 3 s 4.4
  #     hydro 3 d 19.6
  #     hydro 5 g 12.8
  ################################################################################
  #
  #  FHI-aims code project
  #  VB, Fritz-Haber Institut, 2009
  #
  #  Suggested "light" defaults for O atom (to be pasted into control.in file)
  #  Be sure to double-check any results obtained with these settings for post-processing,
  #  e.g., with the "tight" defaults and larger basis sets.
  #
  ################################################################################
    species        O
  #     global species definitions
      nucleus             8
      mass                15.9994
  #
      l_hartree           4
  #
      cut_pot             3.5  1.5  1.0
      basis_dep_cutoff    1e-4
  #
      radial_base         36 5.0
      radial_multiplier   1
       angular_grids specified
        division   0.2659   50
        division   0.4451  110
        division   0.6052  194
        division   0.7543  302
  #      division   0.8014  434
  #      division   0.8507  590
  #      division   0.8762  770
  #      division   0.9023  974
  #      division   1.2339 1202
  #      outer_grid 974
        outer_grid 302
  ################################################################################
  #
  #  Definition of "minimal" basis
  #
  ################################################################################
  #     valence basis states
      valence      2  s   2.
      valence      2  p   4.
  #     ion occupancy
      ion_occ      2  s   1.
      ion_occ      2  p   3.
  ################################################################################
  #
  #  Suggested additional basis functions. For production calculations,
  #  uncomment them one after another (the most important basis functions are
  #  listed first).
  #
  #  Constructed for dimers: 1.0 A, 1.208 A, 1.5 A, 2.0 A, 3.0 A
  #
  ################################################################################
  #  "First tier" - improvements: -699.05 meV to -159.38 meV
       hydro 2 p 1.8
       hydro 3 d 7.6
       hydro 3 s 6.4
  #  "Second tier" - improvements: -49.91 meV to -5.39 meV
  #     hydro 4 f 11.6
  #     hydro 3 p 6.2
  #     hydro 3 d 5.6
  #     hydro 5 g 17.6
  #     hydro 1 s 0.75
  #  "Third tier" - improvements: -2.83 meV to -0.50 meV
  #     ionic 2 p auto
  #     hydro 4 f 10.8
  #     hydro 4 d 4.7
  #     hydro 2 s 6.8
  #  "Fourth tier" - improvements: -0.40 meV to -0.12 meV
  #     hydro 3 p 5
  #     hydro 3 s 3.3
  #     hydro 5 g 15.6
  #     hydro 4 f 17.6
  #     hydro 4 d 14
  # Further basis functions - -0.08 meV and below
  #     hydro 3 s 2.1
  #     hydro 4 d 11.6
  #     hydro 3 p 16
  #     hydro 2 s 17.2
  
  -----------------------------------------------------------------------
  Completed first pass over input file control.in .
  -----------------------------------------------------------------------
  
  
  -----------------------------------------------------------------------
  Parsing geometry.in (first pass over file, find array dimensions only).
  The contents of geometry.in will be repeated verbatim below
  unless switched off by setting 'verbatim_writeout .false.' .
  in the first line of geometry.in .
  -----------------------------------------------------------------------
  
  atom  0.00000 0.00000 0.00000 C
  atom  1.09300 0.00000 0.00000 H
  atom  -0.47961 0.00000 -1.41207 N
  atom  -1.21212 0.70421 -1.50871 H
  atom  0.30374 0.22099 -2.02333 H
  atom  -0.49584 1.26211 0.72868 C
  atom  -1.58789 1.28919 0.74431 H
  atom  -0.13407 1.27425 1.75947 H
  atom  -0.13407 2.16087 0.22380 H
  atom  -0.39425 -1.28861 0.74398 C
  atom  -0.10189 -1.56493 1.88303 O
  atom  -1.10210 -2.13717 0.06896 O
  atom  -0.75866 -1.93483 -0.81765 H
  
  -----------------------------------------------------------------------
  Completed first pass over input file geometry.in .
  -----------------------------------------------------------------------
  

  Basic array size parameters:
  | Number of species                 :        4
  | Number of atoms                   :       13
  | Max. basis fn. angular momentum   :        2
  | Max. atomic/ionic basis occupied n:        2
  | Max. number of basis fn. types    :        2
  | Max. radial fns per species/type  :        3
  | Max. logarithmic grid size        :     1301
  | Max. radial integration grid size :       36
  | Max. angular integration grid size:      302
  | Max. angular grid division number :        8
  | Radial grid for Hartree potential :     1301
  | Number of spin channels           :        1

------------------------------------------------------------
          Reading file control.in.
------------------------------------------------------------
  XC: Using PBE gradient-corrected functionals.
  Spin treatment: No spin polarisation.
  Non-relativistic treatment of kinetic energy.
  Charge =   0.000000E+00: Neutral system requested explicitly.
  Occupation type: Gaussian broadening, width =   0.100000E-01 eV.
  Using pulay charge density mixing.
  Pulay mixing - number of memorized iterations:   10
  Charge density mixing - mixing parameter:     0.2000
  Convergence accuracy of self-consistent charge density:  0.1000E-04
  Convergence accuracy of sum of eigenvalues:  0.1000E-02
  Convergence accuracy of total energy:  0.1000E-05
  Convergence accuracy of forces:  0.1000E-03
  Maximum number of s.-c. iterations  :   100
 
  Reading configuration options for species H                   .
  | Found nuclear charge :   1.0000
  | Found atomic mass :    1.00794000000000      amu
  | Found l_max for Hartree potential  :   4
  | Found cutoff potl. onset [A], width [A], scale factor :    3.50000    1.50000    1.00000
  | Threshold for basis-dependent cutoff potential is   0.100000E-03
  | Found data for basic radial integration grid :    24 points, outermost radius =    5.000 A
  | Found multiplier for basic radial grid :   1
  | Found angular grid specification: user-specified.
  | Specified grid contains     5 separate shells.
  | Check grid settings after all constraints further below.
  | Found free-atom valence shell :  1 s   1.000
  | No ionic wave fns used. Skipping ion_occ.
  | Found hydrogenic basis function :  2 s   2.100
  | Found hydrogenic basis function :  2 p   3.500
  Species H                   : Missing cutoff potential type.
  Defaulting to exp(1/x)/(1-x)^2 type cutoff potential.
  Species H : No 'logarithmic' tag. Using default grid for free atom:
  | Default logarithmic grid data [bohr] : 0.1000E-03 0.1000E+03 0.1012E+01
  Species H : On-site basis accuracy parameter (for Gram-Schmidt orthonormalisation) not specified.
  Using default value basis_acc =  0.1000000E-03.
  Species H                   : Using default innermost maximum threshold i_radial=  2 for radial functions.
  Species H                   : Default cutoff onset for free atom density etc. : 0.35000000E+01 AA.
  Species H                   : Basic radial grid will be enhanced according to radial_multiplier =   1, to contain    24 grid points.
 
  Reading configuration options for species C                   .
  | Found nuclear charge :   6.0000
  | Found atomic mass :    12.0107000000000      amu
  | Found l_max for Hartree potential  :   4
  | Found cutoff potl. onset [A], width [A], scale factor :    3.50000    1.50000    1.00000
  | Threshold for basis-dependent cutoff potential is   0.100000E-03
  | Found data for basic radial integration grid :    34 points, outermost radius =    5.000 A
  | Found multiplier for basic radial grid :   1
  | Found angular grid specification: user-specified.
  | Specified grid contains     5 separate shells.
  | Check grid settings after all constraints further below.
  | Found free-atom valence shell :  2 s   2.000
  | Found free-atom valence shell :  2 p   2.000
  | No ionic wave fns used. Skipping ion_occ.
  | No ionic wave fns used. Skipping ion_occ.
  | Found hydrogenic basis function :  2 p   1.700
  | Found hydrogenic basis function :  3 d   6.000
  | Found hydrogenic basis function :  2 s   4.900
  Species C                   : Missing cutoff potential type.
  Defaulting to exp(1/x)/(1-x)^2 type cutoff potential.
  Species C : No 'logarithmic' tag. Using default grid for free atom:
  | Default logarithmic grid data [bohr] : 0.1000E-03 0.1000E+03 0.1012E+01
  Species C : On-site basis accuracy parameter (for Gram-Schmidt orthonormalisation) not specified.
  Using default value basis_acc =  0.1000000E-03.
  Species C                   : Using default innermost maximum threshold i_radial=  2 for radial functions.
  Species C                   : Default cutoff onset for free atom density etc. : 0.35000000E+01 AA.
  Species C                   : Basic radial grid will be enhanced according to radial_multiplier =   1, to contain    34 grid points.
 
  Reading configuration options for species N                   .
  | Found nuclear charge :   7.0000
  | Found atomic mass :    14.0067000000000      amu
  | Found l_max for Hartree potential  :   4
  | Found cutoff potl. onset [A], width [A], scale factor :    3.50000    1.50000    1.00000
  | Threshold for basis-dependent cutoff potential is   0.100000E-03
  | Found data for basic radial integration grid :    35 points, outermost radius =    5.000 A
  | Found multiplier for basic radial grid :   1
  | Found angular grid specification: user-specified.
  | Specified grid contains     5 separate shells.
  | Check grid settings after all constraints further below.
  | Found free-atom valence shell :  2 s   2.000
  | Found free-atom valence shell :  2 p   3.000
  | No ionic wave fns used. Skipping ion_occ.
  | No ionic wave fns used. Skipping ion_occ.
  | Found hydrogenic basis function :  2 p   1.800
  | Found hydrogenic basis function :  3 d   6.800
  | Found hydrogenic basis function :  3 s   5.800
  Species N                   : Missing cutoff potential type.
  Defaulting to exp(1/x)/(1-x)^2 type cutoff potential.
  Species N : No 'logarithmic' tag. Using default grid for free atom:
  | Default logarithmic grid data [bohr] : 0.1000E-03 0.1000E+03 0.1012E+01
  Species N : On-site basis accuracy parameter (for Gram-Schmidt orthonormalisation) not specified.
  Using default value basis_acc =  0.1000000E-03.
  Species N                   : Using default innermost maximum threshold i_radial=  2 for radial functions.
  Species N                   : Default cutoff onset for free atom density etc. : 0.35000000E+01 AA.
  Species N                   : Basic radial grid will be enhanced according to radial_multiplier =   1, to contain    35 grid points.
 
  Reading configuration options for species O                   .
  | Found nuclear charge :   8.0000
  | Found atomic mass :    15.9994000000000      amu
  | Found l_max for Hartree potential  :   4
  | Found cutoff potl. onset [A], width [A], scale factor :    3.50000    1.50000    1.00000
  | Threshold for basis-dependent cutoff potential is   0.100000E-03
  | Found data for basic radial integration grid :    36 points, outermost radius =    5.000 A
  | Found multiplier for basic radial grid :   1
  | Found angular grid specification: user-specified.
  | Specified grid contains     5 separate shells.
  | Check grid settings after all constraints further below.
  | Found free-atom valence shell :  2 s   2.000
  | Found free-atom valence shell :  2 p   4.000
  | No ionic wave fns used. Skipping ion_occ.
  | No ionic wave fns used. Skipping ion_occ.
  | Found hydrogenic basis function :  2 p   1.800
  | Found hydrogenic basis function :  3 d   7.600
  | Found hydrogenic basis function :  3 s   6.400
  Species O                   : Missing cutoff potential type.
  Defaulting to exp(1/x)/(1-x)^2 type cutoff potential.
  Species O : No 'logarithmic' tag. Using default grid for free atom:
  | Default logarithmic grid data [bohr] : 0.1000E-03 0.1000E+03 0.1012E+01
  Species O : On-site basis accuracy parameter (for Gram-Schmidt orthonormalisation) not specified.
  Using default value basis_acc =  0.1000000E-03.
  Species O                   : Using default innermost maximum threshold i_radial=  2 for radial functions.
  Species O                   : Default cutoff onset for free atom density etc. : 0.35000000E+01 AA.
  Species O                   : Basic radial grid will be enhanced according to radial_multiplier =   1, to contain    36 grid points.
 
  Finished reading input file 'control.in'. Consistency checks are next.
 
  MPI_IN_PLACE appears to work with this MPI implementation.
  | Keeping use_mpi_in_place .true. (see manual).
  Target number of points in a grid batch is not set. Defaulting to  100
  Method for grid partitioning is not set. Defaulting to parallel hash+maxmin partitioning.
  Batch size limit is not set. Defaulting to    200
  By default, will store active basis functions for each batch.
  If in need of memory, prune_basis_once .false. can be used to disable this option.
  communication_type for Hartree potential was not specified.
  Defaulting to calc_hartree .
  Pulay mixer: Number of initial linear mixing iterations not set.
  Defaulting to    0 iterations.
  Work space size for distributed Hartree potential not set.
  Defaulting to   0.200000E+03 MB.
  Algorithm-dependent basis array size parameters:
  | n_max_pulay                         :       10
  Presetting      1001 iterations before the initial mixing cycle
  is restarted anyway using the sc_init_iter criterion / keyword.
  Presetting a factor      1.000 between actual scf density residual
  and density convergence criterion sc_accuracy_rho below which sc_init_iter
  takes no effect.
  Geometry relaxation not requested: no relaxation will be performed.
  Handling of forces: Unphysical translation and rotation will be removed from forces.
  No accuracy limit for integral partition fn. given. Defaulting to  0.1000E-14.
  No threshold value for u(r) in integrations given. Defaulting to  0.1000E-05.
  No accuracy for occupation numbers given. Defaulting to  0.1000E-12.
  No threshold value for occupation numbers given. Defaulting to  0.0000E+00.
  No accuracy for fermi level given. Defaulting to  0.1000E-19.
  Maximum # of iterations to find E_F not set. Defaulting to  200.
  Preferred method for the eigenvalue solver ('KS_method') not specified in 'control.in'.
  Defaulting to serial version, 'lapack_fast'.
  Will not use alltoall communication since running on < 1024 CPUs.
  Threshold for basis singularities not set.
  Default threshold for basis singularities:  0.1000E-04
  partition_type (choice of integration weights) for integrals was not specified.
  | Using a version of the partition function of Stratmann and coworkers ('stratmann_smoother').
  | At each grid point, the set of atoms used to build the partition table is smoothly restricted to
  | only those atoms whose free-atom density would be non-zero at that grid point.
  Partitioning for Hartree potential was not defined. Using partition_type for integrals.
  | Adjusted default value of keyword multip_moments_threshold to:       0.10000000E-11
  | This value may affect high angular momentum components of the Hartree potential in periodic systems.
  No q(lm)/r^(l+1) cutoff set for long-range Hartree potential.
  | Using default value of  0.100000E-09 .
  | Verify using the multipole_threshold keyword.
  Defaulting to new monopole extrapolation.
  Density update method: automatic selection selected.
------------------------------------------------------------


------------------------------------------------------------
          Reading geometry description geometry.in.
------------------------------------------------------------
  Input structure read successfully.
  The structure contains       13 atoms,  and a total of         48.000 electrons.

  Input geometry:
  | No unit cell requested.
  | Atomic structure:
  |       Atom                x [A]            y [A]            z [A]
  |    1: Species C             0.00000000        0.00000000        0.00000000
  |    2: Species H             1.09300000        0.00000000        0.00000000
  |    3: Species N            -0.47961000        0.00000000       -1.41207000
  |    4: Species H            -1.21212000        0.70421000       -1.50871000
  |    5: Species H             0.30374000        0.22099000       -2.02333000
  |    6: Species C            -0.49584000        1.26211000        0.72868000
  |    7: Species H            -1.58789000        1.28919000        0.74431000
  |    8: Species H            -0.13407000        1.27425000        1.75947000
  |    9: Species H            -0.13407000        2.16087000        0.22380000
  |   10: Species C            -0.39425000       -1.28861000        0.74398000
  |   11: Species O            -0.10189000       -1.56493000        1.88303000
  |   12: Species O            -1.10210000       -2.13717000        0.06896000
  |   13: Species H            -0.75866000       -1.93483000       -0.81765000
  |

  | The smallest distance between any two atoms is         0.97209557 AA.
  |
  | The first atom of this pair is atom number                     12 .
  | The second atom of this pair is atom number                    13 .

  Number of empty states per atom not set in control.in - providing a guess from actual geometry.
  | Total number of empty states used during s.c.f. cycle:       29
  If you use a very high smearing, use empty_states (per atom!) in control.in to increase this value.

  Structure-dependent array size parameters: 
  | Maximum number of distinct radial functions  :       21
  | Maximum number of basis functions            :      119
  | Number of Kohn-Sham states (occupied + empty):       53
------------------------------------------------------------

------------------------------------------------------------
          Preparing all fixed parts of the calculation.
------------------------------------------------------------
  Determining machine precision:
    2.225073858507201E-308
  Setting up grids for atomic and cluster calculations.

  Creating wave function, potential, and density for free atoms.

  Species: H

  List of occupied orbitals and eigenvalues:
    n    l              occ      energy [Ha]    energy [eV]
    1    0           1.0000        -0.237589        -6.4651


  Species: C

  List of occupied orbitals and eigenvalues:
    n    l              occ      energy [Ha]    energy [eV]
    1    0           2.0000       -10.038835      -273.1706
    2    0           2.0000        -0.502696       -13.6791
    2    1           2.0000        -0.191971        -5.2238


  Species: N

  List of occupied orbitals and eigenvalues:
    n    l              occ      energy [Ha]    energy [eV]
    1    0           2.0000       -14.128000      -384.4424
    2    0           2.0000        -0.681077       -18.5330
    2    1           3.0000        -0.259788        -7.0692


  Species: O

  List of occupied orbitals and eigenvalues:
    n    l              occ      energy [Ha]    energy [eV]
    1    0           2.0000       -18.898188      -514.2459
    2    0           2.0000        -0.878505       -23.9053
    2    1           4.0000        -0.331779        -9.0282

  Creating fixed part of basis set: Ionic, confined, hydrogenic.
 
  H                    hydrogenic:
 
  List of hydrogenic basis orbitals: 
    n    l      effective z      eigenvalue [eV]  inner max. [A]     outer max. [A]     outer radius [A]   
    2    0         2.100000       -14.9728           0.193243           1.317208           4.583499
    2    1         3.500000       -41.6669           0.602369           0.602369           3.723403
 
 
  C                    hydrogenic:
 
  List of hydrogenic basis orbitals: 
    n    l      effective z      eigenvalue [eV]  inner max. [A]     outer max. [A]     outer radius [A]   
    2    1         1.700000        -9.7616           1.230570           1.230570           4.607917
    3    2         6.000000       -54.4224           0.792453           0.792453           3.883070
    2    0         4.900000       -81.6679           0.082559           0.562749           3.078220
 
 
  N                    hydrogenic:
 
  List of hydrogenic basis orbitals: 
    n    l      effective z      eigenvalue [eV]  inner max. [A]     outer max. [A]     outer radius [A]   
    2    1         1.800000       -10.9749           1.177451           1.177451           4.573712
    3    2         6.800000       -69.9026           0.704619           0.704619           3.538137
    3    0         5.800000       -50.8545           0.067388           1.191934           4.250239
 
 
  O                    hydrogenic:
 
  List of hydrogenic basis orbitals: 
    n    l      effective z      eigenvalue [eV]  inner max. [A]     outer max. [A]     outer radius [A]   
    2    1         1.800000       -10.9749           1.164242           1.164242           4.578029
    3    2         7.600000       -87.3180           0.624125           0.624125           3.251020
    3    0         6.400000       -61.9207           0.061167           1.081902           4.001998
 

  Adding cutoff potential to free-atom effective potential.
  Creating atomic-like basis functions for current effective potential.

  Species H                   :

  List of atomic basis orbitals and eigenvalues:
    n    l      energy [Ha]    energy [eV]    outer radius [A]
    1    0        -0.237589        -6.4651       4.527807


  Species C                   :

  List of atomic basis orbitals and eigenvalues:
    n    l      energy [Ha]    energy [eV]    outer radius [A]
    1    0       -10.038835      -273.1706       1.934409
    2    0        -0.502696       -13.6791       4.496620
    2    1        -0.191971        -5.2238       4.551928


  Species N                   :

  List of atomic basis orbitals and eigenvalues:
    n    l      energy [Ha]    energy [eV]    outer radius [A]
    1    0       -14.128000      -384.4424       1.637919
    2    0        -0.681077       -18.5330       4.463241
    2    1        -0.259788        -7.0692       4.518138


  Species O                   :

  List of atomic basis orbitals and eigenvalues:
    n    l      energy [Ha]    energy [eV]    outer radius [A]
    1    0       -18.898188      -514.2459       1.415765
    2    0        -0.878505       -23.9053       4.413171
    2    1        -0.331779        -9.0282       4.522403

  Assembling full basis from fixed parts.
  | Species H :   atomic orbital   1 s accepted.
  | Species H :    hydro orbital   2 s accepted.
  | Species H :    hydro orbital   2 p accepted.
  | Species C :   atomic orbital   1 s accepted.
  | Species C :    hydro orbital   2 s accepted.
  | Species C :   atomic orbital   2 s accepted.
  | Species C :   atomic orbital   2 p accepted.
  | Species C :    hydro orbital   2 p accepted.
  | Species C :    hydro orbital   3 d accepted.
  | Species N :   atomic orbital   1 s accepted.
  | Species N :    hydro orbital   3 s accepted.
  | Species N :   atomic orbital   2 s accepted.
  | Species N :   atomic orbital   2 p accepted.
  | Species N :    hydro orbital   2 p accepted.
  | Species N :    hydro orbital   3 d accepted.
  | Species O :   atomic orbital   1 s accepted.
  | Species O :    hydro orbital   3 s accepted.
  | Species O :   atomic orbital   2 s accepted.
  | Species O :   atomic orbital   2 p accepted.
  | Species O :    hydro orbital   2 p accepted.
  | Species O :    hydro orbital   3 d accepted.
 
  Basis size parameters after reduction:
  | Total number of radial functions:       21
  | Total number of basis functions :      119
 
  Per-task memory consumption for arrays in subroutine allocate_ext:
  |           5.250512MB.
  Testing on-site integration grid accuracy.
  |  Species  Function  <phi|h_atom|phi> (log., in eV)  <phi|h_atom|phi> (rad., in eV)
           1        1                 -6.4663192853                 -6.4651273558
           1        2                 13.7111246313                 13.7170609718
           1        3                 25.2673269279                 25.2674696378
           2        4               -273.1705927641               -273.1705631568
           2        5                -10.7109323383                -10.7107120029
           2        6                 17.4381822266                 17.4352413244
           2        7                 -5.2255326521                 -5.2270484734
           2        8                  8.6835629259                  8.6603288385
           2        9                 27.4952418996                 27.4953360207
           3       10               -384.4424306495               -384.4423701208
           3       11                 12.5842251816                 12.5842222903
           3       12                -15.7264628251                -15.7264433455
           3       13                 -7.0696854293                 -7.0701769954
           3       14                  8.8090390882                  8.7901077751
           3       15                 35.9586762123                 35.9588528632
           4       16               -514.2458688638               -514.2457643834
           4       17                 15.1795651126                 15.1795290741
           4       18                -21.5359799773                -21.5360846186
           4       19                 -9.0283069236                 -9.0284644067
           4       20                  8.3027758564                  8.2834874195
           4       21                 45.8339351984                 45.8338762259

  Preparing densities etc. for the partition functions (integrals / Hartree potential).

  Preparations completed.
  max(cpu_time)          :      0.148 s.
  Wall clock time (cpu1) :      0.149 s.
------------------------------------------------------------

------------------------------------------------------------
          Begin self-consistency loop: Initialization.

          Date     :  20200805, Time     :  181156.474
------------------------------------------------------------

  Initializing index lists of integration centers etc. from given atomic structure:
  | Number of centers in hartree potential         :        13
  | Number of centers in hartree multipole         :        13
  | Number of centers in electron density summation:        13
  | Number of centers in basis integrals           :        13
  | Number of centers in integrals                 :        13
  | Number of centers in hamiltonian               :        13
  Partitioning the integration grid into batches with parallel hashing+maxmin method.
  | Number of batches:      963
  | Maximal batch size:     139
  | Minimal batch size:      66
  | Average batch size:      72.322
  | Standard deviation of batch sizes:      16.595

  Integration load balanced across     1 MPI tasks.
  Work distribution over tasks is as follows:
  Task     0 has      69646 integration points.
  Initializing partition tables, free-atom densities, potentials, etc. across the integration grid (initialize_grid_storage).
  | initialize_grid_storage: Actual outermost partition radius vs. multipole_radius_free
  | (-- VB: in principle, multipole_radius_free should be larger, hence this output)
  | Species        1: Confinement radius =              4.999999999999999 AA, multipole_radius_free =              5.054417573612229 AA.
  | Species        1: outer_partition_radius set to              5.054417573612229 AA .
  | Species        2: Confinement radius =              4.999999999999999 AA, multipole_radius_free =              5.019602836301480 AA.
  | Species        2: outer_partition_radius set to              5.019602836301480 AA .
  | Species        3: Confinement radius =              4.999999999999999 AA, multipole_radius_free =              5.043624274424571 AA.
  | Species        3: outer_partition_radius set to              5.043624274424571 AA .
  | Species        4: Confinement radius =              4.999999999999999 AA, multipole_radius_free =              5.048384829883283 AA.
  | Species        4: outer_partition_radius set to              5.048384829883283 AA .
  | Original list of interatomic distances with          13 x         13 entries is created.
  | Net number of integration points:    69646
  | of which are non-zero points    :    59398
  Renormalizing the initial density to the exact electron count on the 3D integration grid.
  | Initial density: Formal number of electrons (from input files) :      48.0000000000
  | Integrated number of electrons on 3D grid     :      47.9999043999
  | Charge integration error                      :      -0.0000956001
  | Normalization factor for density and gradient :       1.0000019917
  Obtaining max. number of non-zero basis functions in each batch (get_n_compute_maxes).
  | Maximal number of non-zero basis functions:      119 in task     0
  Selecting the method for density update.
  Loop over occupied states selected for charge density update.
  Allocating        0.050 MB for KS_eigenvector
  Integrating Hamiltonian matrix: batch-based integration.
  Time summed over all CPUs for integration: real work        0.495 s, elapsed        0.495 s
  Integrating overlap matrix.
  Time summed over all CPUs for integration: real work        0.212 s, elapsed        0.212 s

  Updating Kohn-Sham eigenvalues and eigenvectors using ELSI and the ELPA eigensolver.
  Overlap matrix is nonsingular
  | Lowest eigenvalue of overlap  :  0.45E-02
  | Highest eigenvalue of overlap :  0.63E+01
  Finished singularity check of overlap matrix
  | Time :     0.002 s
  Finished Cholesky decomposition
  | Time :     0.000 s
  Finished transformation to standard eigenproblem
  | Time :     0.000 s
  Starting LAPACK eigensolver
  Finished solving standard eigenproblem
  | Time :     0.002 s
  Finished back-transformation of eigenvectors
  | Time :     0.000 s

  Obtaining occupation numbers and chemical potential using ELSI.
  | Chemical potential (Fermi level):    -9.62612498eV
  Writing Kohn-Sham eigenvalues.

  State    Occupation    Eigenvalue [Ha]    Eigenvalue [eV]
      1       2.00000         -19.007489         -517.22009
      2       2.00000         -18.977130         -516.39397
      3       2.00000         -14.246973         -387.67987
      4       2.00000         -10.166895         -276.65528
      5       2.00000         -10.141835         -275.97338
      6       2.00000         -10.131883         -275.70257
      7       2.00000          -1.181358          -32.14639
      8       2.00000          -1.100737          -29.95257
      9       2.00000          -0.993215          -27.02676
     10       2.00000          -0.859118          -23.37779
     11       2.00000          -0.756361          -20.58163
     12       2.00000          -0.680871          -18.52744
     13       2.00000          -0.628588          -17.10475
     14       2.00000          -0.613352          -16.69015
     15       2.00000          -0.588423          -16.01179
     16       2.00000          -0.560354          -15.24800
     17       2.00000          -0.554973          -15.10158
     18       2.00000          -0.523301          -14.23975
     19       2.00000          -0.519513          -14.13668
     20       2.00000          -0.503255          -13.69427
     21       2.00000          -0.463486          -12.61209
     22       2.00000          -0.427790          -11.64077
     23       2.00000          -0.420529          -11.44317
     24       2.00000          -0.384435          -10.46100
     25       0.00000          -0.151674           -4.12727
     26       0.00000          -0.064035           -1.74248
     27       0.00000          -0.027939           -0.76026
     28       0.00000          -0.012280           -0.33415
     29       0.00000          -0.000423           -0.01151
     30       0.00000           0.010158            0.27641
     31       0.00000           0.018392            0.50047
     32       0.00000           0.028222            0.76795
     33       0.00000           0.035552            0.96741
     34       0.00000           0.075585            2.05677
     35       0.00000           0.093338            2.53985
     36       0.00000           0.131396            3.57547
     37       0.00000           0.161859            4.40442
     38       0.00000           0.199856            5.43835
     39       0.00000           0.207933            5.65815
     40       0.00000           0.225043            6.12373
     41       0.00000           0.258210            7.02625
     42       0.00000           0.268646            7.31022
     43       0.00000           0.290808            7.91328
     44       0.00000           0.298588            8.12499
     45       0.00000           0.338380            9.20778
     46       0.00000           0.357480            9.72753
     47       0.00000           0.364972            9.93139
     48       0.00000           0.400377           10.89482
     49       0.00000           0.416179           11.32482
     50       0.00000           0.498546           13.56612
     51       0.00000           0.509943           13.87626
     52       0.00000           0.539228           14.67314
     53       0.00000           0.563643           15.33751

  Highest occupied state (VBM) at    -10.46100134 eV
  | Occupation number:      2.00000000

  Lowest unoccupied state (CBM) at    -4.12727302 eV
  | Occupation number:      0.00000000

  Overall HOMO-LUMO gap:      6.33372832 eV.
  Calculating total energy contributions from superposition of free atom densities.

  Total energy components:
  | Sum of eigenvalues            :        -188.86372737 Ha       -5139.24350364 eV
  | XC energy correction          :         -41.79681572 Ha       -1137.34922348 eV
  | XC potential correction       :          53.73123148 Ha        1462.10119944 eV
  | Free-atom electrostatic energy:        -146.83951343 Ha       -3995.70645972 eV
  | Hartree energy correction     :           0.00000000 Ha           0.00000000 eV
  | vdW energy correction         :           0.00000000 Ha           0.00000000 eV
  | Entropy correction            :           0.00000000 Ha           0.00000000 eV
  | ---------------------------
  | Total energy                  :        -323.76882504 Ha       -8810.19798740 eV
  | Total energy, T -> 0          :        -323.76882504 Ha       -8810.19798740 eV  <-- do not rely on this value for anything but (periodic) metals
  | Electronic free energy        :        -323.76882504 Ha       -8810.19798740 eV

  Derived energy quantities:
  | Kinetic energy                :         320.50404035 Ha        8721.35867567 eV
  | Electrostatic energy          :        -602.47604967 Ha      -16394.20743959 eV
  | Energy correction for multipole
  | error in Hartree potential    :           0.00000000 Ha           0.00000000 eV
  | Sum of eigenvalues per atom                           :        -395.32642336 eV
  | Total energy (T->0) per atom                          :        -677.70753749 eV  <-- do not rely on this value for anything but (periodic) metals
  | Electronic free energy per atom                       :        -677.70753749 eV
  Initialize hartree_potential_storage
  Max. number of atoms included in rho_multipole:           13

  End scf initialization - timings             :  max(cpu_time)    wall_clock(cpu1)
  | Time for scf. initialization               :        1.151 s           1.153 s
  | Boundary condition initialization          :        0.000 s           0.000 s
  | Integration                                :        0.708 s           0.709 s
  | Solution of K.-S. eqns.                    :        0.004 s           0.004 s
  | Grid partitioning                          :        0.112 s           0.112 s
  | Preloading free-atom quantities on grid    :        0.002 s           0.003 s
  | Free-atom superposition energy             :        0.084 s           0.084 s
  | Total energy evaluation                    :        0.000 s           0.000 s

  Partial memory accounting:
  | Current value for overall tracked memory usage on task 0  :           0.165 MB
  | Peak value for overall tracked memory usage on task 0     :           0.678 MB after allocating wave
  | Largest tracked array allocation on task 0 so far         :           0.132 MB  when allocating H_times_psi
  Note:  These values currently only include a subset of arrays which are explicitly tracked.
  The "true" memory usage will be greater.
------------------------------------------------------------

------------------------------------------------------------
          Begin self-consistency iteration #    1

  Date     :  20200805, Time     :  181157.627
------------------------------------------------------------
  Evaluating new KS density.
  Integration grid: deviation in total charge (<rho> - N_e) =  -1.421085E-14
  Pulay mixing of updated and previous charge densities.

  Evaluating partitioned Hartree potential by multipole expansion.
  | Analytical far-field extrapolation by fixed multipoles:
  | Hartree multipole sum: apparent total charge =  -0.198781E-03
  Summing up the Hartree potential.
  Time summed over all CPUs for potential: real work        0.281 s, elapsed        0.281 s
  | RMS charge density error from multipole expansion :   0.586654E-02

  Integrating Hamiltonian matrix: batch-based integration.
  Time summed over all CPUs for integration: real work        0.494 s, elapsed        0.494 s

  Updating Kohn-Sham eigenvalues and eigenvectors using ELSI and the ELPA eigensolver.
  Finished Cholesky decomposition
  | Time :     0.000 s
  Finished transformation to standard eigenproblem
  | Time :     0.000 s
  Starting LAPACK eigensolver
  Finished solving standard eigenproblem
  | Time :     0.002 s
  Finished back-transformation of eigenvectors
  | Time :     0.000 s

  Obtaining occupation numbers and chemical potential using ELSI.
  | Chemical potential (Fermi level):    -8.46955089eV
  Writing Kohn-Sham eigenvalues.

  State    Occupation    Eigenvalue [Ha]    Eigenvalue [eV]
      1       2.00000         -18.898266         -514.24798
      2       2.00000         -18.829143         -512.36705
      3       2.00000         -14.110767         -383.97350
      4       2.00000         -10.110474         -275.12000
      5       2.00000         -10.068008         -273.96442
      6       2.00000         -10.034956         -273.06506
      7       2.00000          -1.126935          -30.66547
      8       2.00000          -1.031924          -28.08007
      9       2.00000          -0.931022          -25.33441
     10       2.00000          -0.796964          -21.68650
     11       2.00000          -0.705540          -19.19873
     12       2.00000          -0.631549          -17.18532
     13       2.00000          -0.579531          -15.76984
     14       2.00000          -0.556462          -15.14210
     15       2.00000          -0.528658          -14.38553
     16       2.00000          -0.505629          -13.75887
     17       2.00000          -0.487145          -13.25590
     18       2.00000          -0.464481          -12.63917
     19       2.00000          -0.461099          -12.54714
     20       2.00000          -0.446612          -12.15294
     21       2.00000          -0.407973          -11.10151
     22       2.00000          -0.361823           -9.84571
     23       2.00000          -0.350085           -9.52630
     24       2.00000          -0.313686           -8.53583
     25       0.00000          -0.110884           -3.01730
     26       0.00000          -0.040275           -1.09593
     27       0.00000           0.010858            0.29546
     28       0.00000           0.013671            0.37200
     29       0.00000           0.024361            0.66290
     30       0.00000           0.047016            1.27937
     31       0.00000           0.053388            1.45276
     32       0.00000           0.061718            1.67943
     33       0.00000           0.073790            2.00792
     34       0.00000           0.113572            3.09044
     35       0.00000           0.132775            3.61299
     36       0.00000           0.162323            4.41704
     37       0.00000           0.188131            5.11930
     38       0.00000           0.228985            6.23099
     39       0.00000           0.239068            6.50538
     40       0.00000           0.258305            7.02883
     41       0.00000           0.290953            7.91724
     42       0.00000           0.300822            8.18579
     43       0.00000           0.324912            8.84132
     44       0.00000           0.339256            9.23164
     45       0.00000           0.372280           10.13025
     46       0.00000           0.397836           10.82566
     47       0.00000           0.408868           11.12586
     48       0.00000           0.435760           11.85763
     49       0.00000           0.454213           12.35978
     50       0.00000           0.533561           14.51893
     51       0.00000           0.538009           14.63997
     52       0.00000           0.570749           15.53088
     53       0.00000           0.602865           16.40480

  Highest occupied state (VBM) at     -8.53582506 eV
  | Occupation number:      2.00000000

  Lowest unoccupied state (CBM) at    -3.01729568 eV
  | Occupation number:      0.00000000

  Overall HOMO-LUMO gap:      5.51852938 eV.

  Total energy components:
  | Sum of eigenvalues            :        -185.47746644 Ha       -5047.09865545 eV
  | XC energy correction          :         -42.12316783 Ha       -1146.22971618 eV
  | XC potential correction       :          54.15568329 Ha        1473.65112088 eV
  | Free-atom electrostatic energy:        -146.83951343 Ha       -3995.70645972 eV
  | Hartree energy correction     :          -3.30785240 Ha         -90.01124345 eV
  | vdW energy correction         :           0.00000000 Ha           0.00000000 eV
  | Entropy correction            :          -0.00000000 Ha          -0.00000000 eV
  | ---------------------------
  | Total energy                  :        -323.59231681 Ha       -8805.39495392 eV
  | Total energy, T -> 0          :        -323.59231681 Ha       -8805.39495392 eV  <-- do not rely on this value for anything but (periodic) metals
  | Electronic free energy        :        -323.59231681 Ha       -8805.39495392 eV

  Derived energy quantities:
  | Kinetic energy                :         322.28060183 Ha        8769.70137327 eV
  | Electrostatic energy          :        -603.74975081 Ha      -16428.86661101 eV
  | Energy correction for multipole
  | error in Hartree potential    :           0.01159841 Ha           0.31560874 eV
  | Sum of eigenvalues per atom                           :        -388.23835811 eV
  | Total energy (T->0) per atom                          :        -677.33807338 eV  <-- do not rely on this value for anything but (periodic) metals
  | Electronic free energy per atom                       :        -677.33807338 eV

  Self-consistency convergence accuracy:
  | Change of charge density      :  0.5782E+00
  | Change of sum of eigenvalues  :  0.9214E+02 eV
  | Change of total energy        :  0.4803E+01 eV

  End self-consistency iteration #     1       :  max(cpu_time)    wall_clock(cpu1)
  | Time for this iteration                    :        1.188 s           1.189 s
  | Charge density update                      :        0.394 s           0.395 s
  | Density mixing                             :        0.005 s           0.005 s
  | Hartree multipole update                   :        0.009 s           0.009 s
  | Hartree multipole summation                :        0.282 s           0.283 s
  | Integration                                :        0.494 s           0.494 s
  | Solution of K.-S. eqns.                    :        0.002 s           0.002 s
  | Total energy evaluation                    :        0.000 s           0.000 s

  Partial memory accounting:
  | Current value for overall tracked memory usage on task 0  :           0.165 MB
  | Peak value for overall tracked memory usage on task 0     :           0.695 MB after allocating gradient_basis_wave
  | Largest tracked array allocation on task 0 so far         :           0.397 MB  when allocating gradient_basis_wave
  Note:  These values currently only include a subset of arrays which are explicitly tracked.
  The "true" memory usage will be greater.
------------------------------------------------------------

------------------------------------------------------------
          Begin self-consistency iteration #    2

  Date     :  20200805, Time     :  181158.817
------------------------------------------------------------
  Evaluating new KS density.
  Integration grid: deviation in total charge (<rho> - N_e) =   7.105427E-15
  Pulay mixing of updated and previous charge densities.

  Evaluating partitioned Hartree potential by multipole expansion.
  | Analytical far-field extrapolation by fixed multipoles:
  | Hartree multipole sum: apparent total charge =  -0.331992E-03
  Summing up the Hartree potential.
  Time summed over all CPUs for potential: real work        0.281 s, elapsed        0.281 s
  | RMS charge density error from multipole expansion :   0.139990E-01

  Integrating Hamiltonian matrix: batch-based integration.
  Time summed over all CPUs for integration: real work        0.495 s, elapsed        0.495 s

  Updating Kohn-Sham eigenvalues and eigenvectors using ELSI and the ELPA eigensolver.
  Finished Cholesky decomposition
  | Time :     0.000 s
  Finished transformation to standard eigenproblem
  | Time :     0.000 s
  Starting LAPACK eigensolver
  Finished solving standard eigenproblem
  | Time :     0.001 s
  Finished back-transformation of eigenvectors
  | Time :     0.000 s

  Obtaining occupation numbers and chemical potential using ELSI.
  | Chemical potential (Fermi level):    -2.96434851eV
  Highest occupied state (VBM) at     -6.59774435 eV
  | Occupation number:      2.00000000

  Lowest unoccupied state (CBM) at    -1.61808346 eV
  | Occupation number:      0.00000000

  Overall HOMO-LUMO gap:      4.97966089 eV.

  Checking to see if s.c.f. parameters should be adjusted.

  Total energy components:
  | Sum of eigenvalues            :        -181.88908043 Ha       -4949.45370391 eV
  | XC energy correction          :         -42.48177514 Ha       -1155.98791753 eV
  | XC potential correction       :          54.62054994 Ha        1486.30078612 eV
  | Free-atom electrostatic energy:        -146.83951343 Ha       -3995.70645972 eV
  | Hartree energy correction     :          -6.92557276 Ha        -188.45442336 eV
  | vdW energy correction         :           0.00000000 Ha           0.00000000 eV
  | Entropy correction            :           0.00000000 Ha           0.00000000 eV
  | ---------------------------
  | Total energy                  :        -323.51539182 Ha       -8803.30171841 eV
  | Total energy, T -> 0          :        -323.51539182 Ha       -8803.30171841 eV  <-- do not rely on this value for anything but (periodic) metals
  | Electronic free energy        :        -323.51539182 Ha       -8803.30171841 eV

  Derived energy quantities:
  | Kinetic energy                :         323.59979160 Ha        8805.59835324 eV
  | Electrostatic energy          :        -604.63340828 Ha      -16452.91215412 eV
  | Energy correction for multipole
  | error in Hartree potential    :           0.02545281 Ha           0.69260613 eV
  | Sum of eigenvalues per atom                           :        -380.72720799 eV
  | Total energy (T->0) per atom                          :        -677.17705526 eV  <-- do not rely on this value for anything but (periodic) metals
  | Electronic free energy per atom                       :        -677.17705526 eV

  Self-consistency convergence accuracy:
  | Change of charge density      :  0.3610E+00
  | Change of sum of eigenvalues  :  0.9764E+02 eV
  | Change of total energy        :  0.2093E+01 eV

  End self-consistency iteration #     2       :  max(cpu_time)    wall_clock(cpu1)
  | Time for this iteration                    :        1.181 s           1.182 s
  | Charge density update                      :        0.386 s           0.386 s
  | Density mixing                             :        0.007 s           0.007 s
  | Hartree multipole update                   :        0.009 s           0.009 s
  | Hartree multipole summation                :        0.282 s           0.282 s
  | Integration                                :        0.495 s           0.496 s
  | Solution of K.-S. eqns.                    :        0.002 s           0.002 s
  | Total energy evaluation                    :        0.000 s           0.000 s

  Partial memory accounting:
  | Current value for overall tracked memory usage on task 0  :           0.166 MB
  | Peak value for overall tracked memory usage on task 0     :           0.695 MB after allocating gradient_basis_wave
  | Largest tracked array allocation on task 0 so far         :           0.397 MB  when allocating gradient_basis_wave
  Note:  These values currently only include a subset of arrays which are explicitly tracked.
  The "true" memory usage will be greater.
------------------------------------------------------------

------------------------------------------------------------
          Begin self-consistency iteration #    3

  Date     :  20200805, Time     :  181200.000
------------------------------------------------------------
  Evaluating new KS density.
  Integration grid: deviation in total charge (<rho> - N_e) =  -7.105427E-15
  Pulay mixing of updated and previous charge densities.

  Evaluating partitioned Hartree potential by multipole expansion.
  | Analytical far-field extrapolation by fixed multipoles:
  | Hartree multipole sum: apparent total charge =  -0.430078E-03
  Summing up the Hartree potential.
  Time summed over all CPUs for potential: real work        0.282 s, elapsed        0.282 s
  | RMS charge density error from multipole expansion :   0.222032E-01

  Integrating Hamiltonian matrix: batch-based integration.
  Time summed over all CPUs for integration: real work        0.495 s, elapsed        0.495 s

  Updating Kohn-Sham eigenvalues and eigenvectors using ELSI and the ELPA eigensolver.
  Finished Cholesky decomposition
  | Time :     0.000 s
  Finished transformation to standard eigenproblem
  | Time :     0.000 s
  Starting LAPACK eigensolver
  Finished solving standard eigenproblem
  | Time :     0.002 s
  Finished back-transformation of eigenvectors
  | Time :     0.000 s

  Obtaining occupation numbers and chemical potential using ELSI.
  | Chemical potential (Fermi level):    -2.29270140eV
  Highest occupied state (VBM) at     -5.93518064 eV
  | Occupation number:      2.00000000

  Lowest unoccupied state (CBM) at    -0.85965730 eV
  | Occupation number:      0.00000000

  Overall HOMO-LUMO gap:      5.07552334 eV.

  Total energy components:
  | Sum of eigenvalues            :        -180.52846316 Ha       -4912.42942433 eV
  | XC energy correction          :         -42.63585735 Ha       -1160.18070789 eV
  | XC potential correction       :          54.81712452 Ha        1491.64985247 eV
  | Free-atom electrostatic energy:        -146.83951343 Ha       -3995.70645972 eV
  | Hartree energy correction     :          -8.31626987 Ha        -226.29721691 eV
  | vdW energy correction         :           0.00000000 Ha           0.00000000 eV
  | Entropy correction            :           0.00000000 Ha           0.00000000 eV
  | ---------------------------
  | Total energy                  :        -323.50297929 Ha       -8802.96395639 eV
  | Total energy, T -> 0          :        -323.50297929 Ha       -8802.96395639 eV  <-- do not rely on this value for anything but (periodic) metals
  | Electronic free energy        :        -323.50297929 Ha       -8802.96395639 eV

  Derived energy quantities:
  | Kinetic energy                :         323.19731941 Ha        8794.64652790 eV
  | Electrostatic energy          :        -604.06444135 Ha      -16437.42977639 eV
  | Energy correction for multipole
  | error in Hartree potential    :           0.03575072 Ha           0.97282659 eV
  | Sum of eigenvalues per atom                           :        -377.87918649 eV
  | Total energy (T->0) per atom                          :        -677.15107357 eV  <-- do not rely on this value for anything but (periodic) metals
  | Electronic free energy per atom                       :        -677.15107357 eV

  Self-consistency convergence accuracy:
  | Change of charge density      :  0.2010E+00
  | Change of sum of eigenvalues  :  0.3702E+02 eV
  | Change of total energy        :  0.3378E+00 eV

  End self-consistency iteration #     3       :  max(cpu_time)    wall_clock(cpu1)
  | Time for this iteration                    :        1.183 s           1.189 s
  | Charge density update                      :        0.386 s           0.393 s
  | Density mixing                             :        0.008 s           0.008 s
  | Hartree multipole update                   :        0.009 s           0.009 s
  | Hartree multipole summation                :        0.282 s           0.282 s
  | Integration                                :        0.495 s           0.495 s
  | Solution of K.-S. eqns.                    :        0.002 s           0.002 s
  | Total energy evaluation                    :        0.000 s           0.000 s

  Partial memory accounting:
  | Current value for overall tracked memory usage on task 0  :           0.166 MB
  | Peak value for overall tracked memory usage on task 0     :           0.695 MB after allocating gradient_basis_wave
  | Largest tracked array allocation on task 0 so far         :           0.397 MB  when allocating gradient_basis_wave
  Note:  These values currently only include a subset of arrays which are explicitly tracked.
  The "true" memory usage will be greater.
------------------------------------------------------------

------------------------------------------------------------
          Begin self-consistency iteration #    4

  Date     :  20200805, Time     :  181201.190
------------------------------------------------------------
  Evaluating new KS density.
  Integration grid: deviation in total charge (<rho> - N_e) =  -1.421085E-14
  Pulay mixing of updated and previous charge densities.

  Evaluating partitioned Hartree potential by multipole expansion.
  | Analytical far-field extrapolation by fixed multipoles:
  | Hartree multipole sum: apparent total charge =  -0.462263E-03
  Summing up the Hartree potential.
  Time summed over all CPUs for potential: real work        0.282 s, elapsed        0.282 s
  | RMS charge density error from multipole expansion :   0.256350E-01

  Integrating Hamiltonian matrix: batch-based integration.
  Time summed over all CPUs for integration: real work        0.495 s, elapsed        0.495 s

  Updating Kohn-Sham eigenvalues and eigenvectors using ELSI and the ELPA eigensolver.
  Finished Cholesky decomposition
  | Time :     0.000 s
  Finished transformation to standard eigenproblem
  | Time :     0.000 s
  Starting LAPACK eigensolver
  Finished solving standard eigenproblem
  | Time :     0.002 s
  Finished back-transformation of eigenvectors
  | Time :     0.000 s

  Obtaining occupation numbers and chemical potential using ELSI.
  | Chemical potential (Fermi level):    -2.18873709eV
  Highest occupied state (VBM) at     -5.66934211 eV
  | Occupation number:      2.00000000

  Lowest unoccupied state (CBM) at    -0.78172769 eV
  | Occupation number:      0.00000000

  Overall HOMO-LUMO gap:      4.88761442 eV.

  Total energy components:
  | Sum of eigenvalues            :        -180.42943925 Ha       -4909.73484650 eV
  | XC energy correction          :         -42.66946276 Ha       -1161.09515755 eV
  | XC potential correction       :          54.85920836 Ha        1492.79501196 eV
  | Free-atom electrostatic energy:        -146.83951343 Ha       -3995.70645972 eV
  | Hartree energy correction     :          -8.42280947 Ha        -229.19630694 eV
  | vdW energy correction         :           0.00000000 Ha           0.00000000 eV
  | Entropy correction            :           0.00000000 Ha           0.00000000 eV
  | ---------------------------
  | Total energy                  :        -323.50201655 Ha       -8802.93775875 eV
  | Total energy, T -> 0          :        -323.50201655 Ha       -8802.93775875 eV  <-- do not rely on this value for anything but (periodic) metals
  | Electronic free energy        :        -323.50201655 Ha       -8802.93775875 eV

  Derived energy quantities:
  | Kinetic energy                :         322.79025367 Ha        8783.56970554 eV
  | Electrostatic energy          :        -603.62280746 Ha      -16425.41230673 eV
  | Energy correction for multipole
  | error in Hartree potential    :           0.03945969 Ha           1.07375280 eV
  | Sum of eigenvalues per atom                           :        -377.67191127 eV
  | Total energy (T->0) per atom                          :        -677.14905837 eV  <-- do not rely on this value for anything but (periodic) metals
  | Electronic free energy per atom                       :        -677.14905837 eV

  Self-consistency convergence accuracy:
  | Change of charge density      :  0.6424E-01
  | Change of sum of eigenvalues  :  0.2695E+01 eV
  | Change of total energy        :  0.2620E-01 eV

  End self-consistency iteration #     4       :  max(cpu_time)    wall_clock(cpu1)
  | Time for this iteration                    :        1.183 s           1.185 s
  | Charge density update                      :        0.386 s           0.386 s
  | Density mixing                             :        0.010 s           0.010 s
  | Hartree multipole update                   :        0.009 s           0.009 s
  | Hartree multipole summation                :        0.282 s           0.282 s
  | Integration                                :        0.495 s           0.495 s
  | Solution of K.-S. eqns.                    :        0.002 s           0.002 s
  | Total energy evaluation                    :        0.000 s           0.000 s

  Partial memory accounting:
  | Current value for overall tracked memory usage on task 0  :           0.166 MB
  | Peak value for overall tracked memory usage on task 0     :           0.696 MB after allocating gradient_basis_wave
  | Largest tracked array allocation on task 0 so far         :           0.397 MB  when allocating gradient_basis_wave
  Note:  These values currently only include a subset of arrays which are explicitly tracked.
  The "true" memory usage will be greater.
------------------------------------------------------------

------------------------------------------------------------
          Begin self-consistency iteration #    5

  Date     :  20200805, Time     :  181202.375
------------------------------------------------------------
  Evaluating new KS density.
  Integration grid: deviation in total charge (<rho> - N_e) =  -2.131628E-14
  Pulay mixing of updated and previous charge densities.

  Evaluating partitioned Hartree potential by multipole expansion.
  | Analytical far-field extrapolation by fixed multipoles:
  | Hartree multipole sum: apparent total charge =  -0.457317E-03
  Summing up the Hartree potential.
  Time summed over all CPUs for potential: real work        0.282 s, elapsed        0.282 s
  | RMS charge density error from multipole expansion :   0.253699E-01

  Integrating Hamiltonian matrix: batch-based integration.
  Time summed over all CPUs for integration: real work        0.495 s, elapsed        0.495 s

  Updating Kohn-Sham eigenvalues and eigenvectors using ELSI and the ELPA eigensolver.
  Finished Cholesky decomposition
  | Time :     0.000 s
  Finished transformation to standard eigenproblem
  | Time :     0.000 s
  Starting LAPACK eigensolver
  Finished solving standard eigenproblem
  | Time :     0.002 s
  Finished back-transformation of eigenvectors
  | Time :     0.000 s

  Obtaining occupation numbers and chemical potential using ELSI.
  | Chemical potential (Fermi level):    -2.23748729eV
  Highest occupied state (VBM) at     -5.79296427 eV
  | Occupation number:      2.00000000

  Lowest unoccupied state (CBM) at    -0.85345030 eV
  | Occupation number:      0.00000000

  Overall HOMO-LUMO gap:      4.93951396 eV.

  Total energy components:
  | Sum of eigenvalues            :        -180.58142326 Ha       -4913.87054198 eV
  | XC energy correction          :         -42.64991485 Ha       -1160.56323194 eV
  | XC potential correction       :          54.83387699 Ha        1492.10571045 eV
  | Free-atom electrostatic energy:        -146.83951343 Ha       -3995.70645972 eV
  | Hartree energy correction     :          -8.26475118 Ha        -224.89532215 eV
  | vdW energy correction         :           0.00000000 Ha           0.00000000 eV
  | Entropy correction            :           0.00000000 Ha           0.00000000 eV
  | ---------------------------
  | Total energy                  :        -323.50172573 Ha       -8802.92984533 eV
  | Total energy, T -> 0          :        -323.50172573 Ha       -8802.92984533 eV  <-- do not rely on this value for anything but (periodic) metals
  | Electronic free energy        :        -323.50172573 Ha       -8802.92984533 eV

  Derived energy quantities:
  | Kinetic energy                :         322.71079790 Ha        8781.40760402 eV
  | Electrostatic energy          :        -603.56260878 Ha      -16423.77421742 eV
  | Energy correction for multipole
  | error in Hartree potential    :           0.03886366 Ha           1.05753394 eV
  | Sum of eigenvalues per atom                           :        -377.99004169 eV
  | Total energy (T->0) per atom                          :        -677.14844964 eV  <-- do not rely on this value for anything but (periodic) metals
  | Electronic free energy per atom                       :        -677.14844964 eV

  Self-consistency convergence accuracy:
  | Change of charge density      :  0.2147E-01
  | Change of sum of eigenvalues  : -0.4136E+01 eV
  | Change of total energy        :  0.7913E-02 eV

  End self-consistency iteration #     5       :  max(cpu_time)    wall_clock(cpu1)
  | Time for this iteration                    :        1.185 s           1.186 s
  | Charge density update                      :        0.386 s           0.386 s
  | Density mixing                             :        0.011 s           0.011 s
  | Hartree multipole update                   :        0.009 s           0.009 s
  | Hartree multipole summation                :        0.282 s           0.282 s
  | Integration                                :        0.495 s           0.495 s
  | Solution of K.-S. eqns.                    :        0.002 s           0.002 s
  | Total energy evaluation                    :        0.000 s           0.000 s

  Partial memory accounting:
  | Current value for overall tracked memory usage on task 0  :           0.166 MB
  | Peak value for overall tracked memory usage on task 0     :           0.696 MB after allocating gradient_basis_wave
  | Largest tracked array allocation on task 0 so far         :           0.397 MB  when allocating gradient_basis_wave
  Note:  These values currently only include a subset of arrays which are explicitly tracked.
  The "true" memory usage will be greater.
------------------------------------------------------------

------------------------------------------------------------
          Begin self-consistency iteration #    6

  Date     :  20200805, Time     :  181203.562
------------------------------------------------------------
  Evaluating new KS density.
  Integration grid: deviation in total charge (<rho> - N_e) =  -2.842171E-14
  Pulay mixing of updated and previous charge densities.

  Evaluating partitioned Hartree potential by multipole expansion.
  | Analytical far-field extrapolation by fixed multipoles:
  | Hartree multipole sum: apparent total charge =  -0.459582E-03
  Summing up the Hartree potential.
  Time summed over all CPUs for potential: real work        0.282 s, elapsed        0.282 s
  | RMS charge density error from multipole expansion :   0.256902E-01

  Integrating Hamiltonian matrix: batch-based integration.
  Time summed over all CPUs for integration: real work        0.495 s, elapsed        0.495 s

  Updating Kohn-Sham eigenvalues and eigenvectors using ELSI and the ELPA eigensolver.
  Finished Cholesky decomposition
  | Time :     0.000 s
  Finished transformation to standard eigenproblem
  | Time :     0.000 s
  Starting LAPACK eigensolver
  Finished solving standard eigenproblem
  | Time :     0.001 s
  Finished back-transformation of eigenvectors
  | Time :     0.000 s

  Obtaining occupation numbers and chemical potential using ELSI.
  | Chemical potential (Fermi level):    -2.24740677eV
  Highest occupied state (VBM) at     -5.80824620 eV
  | Occupation number:      2.00000000

  Lowest unoccupied state (CBM) at    -0.88486492 eV
  | Occupation number:      0.00000000

  Overall HOMO-LUMO gap:      4.92338128 eV.

  Total energy components:
  | Sum of eigenvalues            :        -180.62554825 Ha       -4915.07124398 eV
  | XC energy correction          :         -42.64380013 Ha       -1160.39684198 eV
  | XC potential correction       :          54.82592679 Ha        1491.88937451 eV
  | Free-atom electrostatic energy:        -146.83951343 Ha       -3995.70645972 eV
  | Hartree energy correction     :          -8.21872470 Ha        -223.64287790 eV
  | vdW energy correction         :           0.00000000 Ha           0.00000000 eV
  | Entropy correction            :           0.00000000 Ha           0.00000000 eV
  | ---------------------------
  | Total energy                  :        -323.50165972 Ha       -8802.92804907 eV
  | Total energy, T -> 0          :        -323.50165972 Ha       -8802.92804907 eV  <-- do not rely on this value for anything but (periodic) metals
  | Electronic free energy        :        -323.50165972 Ha       -8802.92804907 eV

  Derived energy quantities:
  | Kinetic energy                :         322.61797207 Ha        8778.88168453 eV
  | Electrostatic energy          :        -603.47583165 Ha      -16421.41289162 eV
  | Energy correction for multipole
  | error in Hartree potential    :           0.03895697 Ha           1.06007306 eV
  | Sum of eigenvalues per atom                           :        -378.08240338 eV
  | Total energy (T->0) per atom                          :        -677.14831147 eV  <-- do not rely on this value for anything but (periodic) metals
  | Electronic free energy per atom                       :        -677.14831147 eV

  Self-consistency convergence accuracy:
  | Change of charge density      :  0.1063E-01
  | Change of sum of eigenvalues  : -0.1201E+01 eV
  | Change of total energy        :  0.1796E-02 eV

  End self-consistency iteration #     6       :  max(cpu_time)    wall_clock(cpu1)
  | Time for this iteration                    :        1.187 s           1.188 s
  | Charge density update                      :        0.386 s           0.386 s
  | Density mixing                             :        0.012 s           0.013 s
  | Hartree multipole update                   :        0.009 s           0.009 s
  | Hartree multipole summation                :        0.282 s           0.282 s
  | Integration                                :        0.495 s           0.496 s
  | Solution of K.-S. eqns.                    :        0.002 s           0.002 s
  | Total energy evaluation                    :        0.000 s           0.000 s

  Partial memory accounting:
  | Current value for overall tracked memory usage on task 0  :           0.166 MB
  | Peak value for overall tracked memory usage on task 0     :           0.696 MB after allocating gradient_basis_wave
  | Largest tracked array allocation on task 0 so far         :           0.397 MB  when allocating gradient_basis_wave
  Note:  These values currently only include a subset of arrays which are explicitly tracked.
  The "true" memory usage will be greater.
------------------------------------------------------------

------------------------------------------------------------
          Begin self-consistency iteration #    7

  Date     :  20200805, Time     :  181204.751
------------------------------------------------------------
  Evaluating new KS density.
  Integration grid: deviation in total charge (<rho> - N_e) =   0.000000E+00
  Pulay mixing of updated and previous charge densities.

  Evaluating partitioned Hartree potential by multipole expansion.
  | Analytical far-field extrapolation by fixed multipoles:
  | Hartree multipole sum: apparent total charge =  -0.461212E-03
  Summing up the Hartree potential.
  Time summed over all CPUs for potential: real work        0.282 s, elapsed        0.282 s
  | RMS charge density error from multipole expansion :   0.258420E-01

  Integrating Hamiltonian matrix: batch-based integration.
  Time summed over all CPUs for integration: real work        0.496 s, elapsed        0.496 s

  Updating Kohn-Sham eigenvalues and eigenvectors using ELSI and the ELPA eigensolver.
  Finished Cholesky decomposition
  | Time :     0.000 s
  Finished transformation to standard eigenproblem
  | Time :     0.000 s
  Starting LAPACK eigensolver
  Finished solving standard eigenproblem
  | Time :     0.002 s
  Finished back-transformation of eigenvectors
  | Time :     0.000 s

[...]
  |   Hirshfeld dipole moment :      0.06350256
  |   Hirshfeld second moments:      0.00325293      -0.02566081      -0.01406919
  |                                 -0.02566081      -0.03085558       0.00399879
  |                                 -0.01406919       0.00399879      -0.02578079
  ----------------------------------------------------------------------
  | Atom    12: O
  |   Hirshfeld charge        :     -0.15596249
  |   Free atom volume        :     23.61338643
  |   Hirshfeld volume        :     21.28192935
  |   Hirshfeld dipole vector :      0.02410089       0.03381458      -0.01041920
  |   Hirshfeld dipole moment :      0.04281166
  |   Hirshfeld second moments:      0.04544091      -0.01009866      -0.00686782
  |                                 -0.01009866       0.02564940       0.02606019
  |                                 -0.00686782       0.02606019       0.07450413
  ----------------------------------------------------------------------
  | Atom    13: H
  |   Hirshfeld charge        :      0.13316143
  |   Free atom volume        :      9.95071624
  |   Hirshfeld volume        :      7.07391299
  |   Hirshfeld dipole vector :      0.03605518      -0.02685529      -0.07424619
  |   Hirshfeld dipole moment :      0.08679677
  |   Hirshfeld second moments:      0.10591385      -0.00688776       0.00407190
  |                                 -0.00688776       0.07389851       0.03256852
  |                                  0.00407190       0.03256852       0.07648046
  ----------------------------------------------------------------------


  Total energy components:
  | Sum of eigenvalues            :        -180.61424440 Ha       -4914.76365049 eV
  | XC energy correction          :         -42.64189892 Ha       -1160.34510719 eV
  | XC potential correction       :          54.82354424 Ha        1491.82454188 eV
  | Free-atom electrostatic energy:        -146.83951343 Ha       -3995.70645972 eV
  | Hartree energy correction     :          -8.22952796 Ha        -223.93684947 eV
  | vdW energy correction         :          -0.00345861 Ha          -0.09411358 eV
  | Entropy correction            :           0.00000000 Ha           0.00000000 eV
  | ---------------------------
  | Total energy                  :        -323.50509907 Ha       -8803.02163857 eV
  | Total energy, T -> 0          :        -323.50509907 Ha       -8803.02163857 eV  <-- do not rely on this value for anything but (periodic) metals
  | Electronic free energy        :        -323.50509907 Ha       -8803.02163857 eV

  Derived energy quantities:
  | Kinetic energy                :         322.58082824 Ha        8777.87094961 eV
  | Electrostatic energy          :        -603.44056979 Ha      -16420.45336741 eV
  | Energy correction for multipole
  | error in Hartree potential    :           0.03900304 Ha           1.06132662 eV
  | Sum of eigenvalues per atom                           :        -378.05874235 eV
  | Total energy (T->0) per atom                          :        -677.15551066 eV  <-- do not rely on this value for anything but (periodic) metals
  | Electronic free energy per atom                       :        -677.15551066 eV

  atomic forces [eV/Ang]:
  -----------------------
  atom #    1
   Hellmann-Feynman              :  0.807219E+00  0.132199E+00  0.153641E+01
   Ionic forces                  :  0.000000E+00  0.000000E+00  0.000000E+00
   Multipole                     :  0.586532E-01  0.398725E+00 -0.292504E+00
   Pulay + GGA                   : -0.105631E+01  0.134130E+00 -0.148878E+01
   Van der Waals                 :  0.201259E-02  0.100185E-02 -0.100791E-02
   ----------------------------------------------------------------
   Total forces(   1)            : -0.188428E+00  0.666056E+00 -0.245877E+00
  atom #    2
   Hellmann-Feynman              :  0.250831E+00  0.137232E-01 -0.687992E-01
   Ionic forces                  :  0.000000E+00  0.000000E+00  0.000000E+00
   Multipole                     :  0.177059E+00  0.321417E-01  0.155881E-01
   Pulay + GGA                   : -0.129953E+00  0.650043E-02  0.606076E-01
   Van der Waals                 :  0.520157E-02 -0.312949E-02 -0.635461E-02
   ----------------------------------------------------------------
   Total forces(   2)            :  0.303139E+00  0.492359E-01  0.104186E-02
  atom #    3
   Hellmann-Feynman              : -0.315408E+01 -0.104113E+02 -0.961133E+00
   Ionic forces                  :  0.000000E+00  0.000000E+00  0.000000E+00
   Multipole                     : -0.162282E+00  0.408931E-01 -0.830311E+00
   Pulay + GGA                   :  0.373932E+01  0.972000E+01  0.232692E+01
   Van der Waals                 :  0.355217E-02 -0.501335E-02 -0.898270E-02
   ----------------------------------------------------------------
   Total forces(   3)            :  0.426504E+00 -0.655451E+00  0.526489E+00
  atom #    4
   Hellmann-Feynman              : -0.338903E-02  0.104061E+00 -0.205807E+00
   Ionic forces                  :  0.000000E+00  0.000000E+00  0.000000E+00
   Multipole                     : -0.850715E-01  0.559062E-01 -0.817173E-01
   Pulay + GGA                   :  0.123332E+00 -0.217367E+00  0.270497E-01
   Van der Waals                 : -0.109454E-02 -0.630093E-02 -0.642809E-02
   ----------------------------------------------------------------
   Total forces(   4)            :  0.337772E-01 -0.637006E-01 -0.266903E+00
  atom #    5
   Hellmann-Feynman              : -0.206845E-01  0.315112E+00 -0.206994E+00
   Ionic forces                  :  0.000000E+00  0.000000E+00  0.000000E+00
   Multipole                     :  0.392020E-01  0.785370E-02 -0.119666E+00
   Pulay + GGA                   : -0.165921E+00 -0.110667E+00  0.121576E+00
   Van der Waals                 : -0.228664E-02  0.101127E-02  0.415687E-02
   ----------------------------------------------------------------
   Total forces(   5)            : -0.149690E+00  0.213310E+00 -0.200928E+00
  atom #    6
   Hellmann-Feynman              :  0.208757E+00 -0.440377E+00  0.332380E+00
   Ionic forces                  :  0.000000E+00  0.000000E+00  0.000000E+00
   Multipole                     : -0.762476E-01  0.592863E+00  0.250244E+00
   Pulay + GGA                   :  0.166691E+00 -0.579854E+00 -0.349105E+00
   Van der Waals                 : -0.270867E-02  0.493623E-02 -0.131057E-02
   ----------------------------------------------------------------
   Total forces(   6)            :  0.296491E+00 -0.422430E+00  0.232209E+00
  atom #    7
   Hellmann-Feynman              : -0.248400E+00 -0.769441E-01 -0.454702E-01
   Ionic forces                  :  0.000000E+00  0.000000E+00  0.000000E+00
   Multipole                     : -0.121552E+00  0.494849E-01  0.284146E-01
   Pulay + GGA                   :  0.112796E+00  0.552415E-02  0.481046E-01
   Van der Waals                 : -0.232958E-02  0.324754E-02  0.805498E-02
   ----------------------------------------------------------------
   Total forces(   7)            : -0.259486E+00 -0.186876E-01  0.391040E-01
  atom #    8
   Hellmann-Feynman              :  0.954182E-02  0.215432E-02  0.192098E+00
   Ionic forces                  :  0.000000E+00  0.000000E+00  0.000000E+00
   Multipole                     :  0.173936E-01  0.626956E-01  0.120762E+00
   Pulay + GGA                   : -0.522576E-01 -0.546633E-01 -0.115703E+00
   Van der Waals                 : -0.294774E-02  0.114408E-01  0.625503E-03
   ----------------------------------------------------------------
   Total forces(   8)            : -0.282699E-01  0.216275E-01  0.197783E+00
  atom #    9
   Hellmann-Feynman              :  0.125477E+00  0.581087E-01 -0.174152E+00
   Ionic forces                  :  0.000000E+00  0.000000E+00  0.000000E+00
   Multipole                     :  0.157575E-01  0.125554E+00 -0.108758E-01
   Pulay + GGA                   : -0.315165E-01 -0.735833E-01  0.580367E-01
   Van der Waals                 :  0.722249E-03  0.615898E-02  0.674186E-02
   ----------------------------------------------------------------
   Total forces(   9)            :  0.110440E+00  0.116238E+00 -0.120249E+00
  atom #   10
   Hellmann-Feynman              :  0.233747E+01  0.341706E+01  0.148803E+01
   Ionic forces                  :  0.000000E+00  0.000000E+00  0.000000E+00
   Multipole                     :  0.210866E-01 -0.875689E-01  0.255333E+00
   Pulay + GGA                   : -0.164774E+01 -0.244465E+01  0.639561E-01
   Van der Waals                 :  0.352460E-02 -0.117318E-01 -0.262346E-02
   ----------------------------------------------------------------
   Total forces(  10)            :  0.714342E+00  0.873112E+00  0.180470E+01
  atom #   11
   Hellmann-Feynman              :  0.419740E+01 -0.238084E+01  0.142765E+02
   Ionic forces                  :  0.000000E+00  0.000000E+00  0.000000E+00
   Multipole                     :  0.260086E+00 -0.656815E+00  0.783239E+00
   Pulay + GGA                   : -0.387001E+01  0.390925E+01 -0.137866E+02
   Van der Waals                 : -0.192622E-02 -0.114946E-01  0.838110E-02
   ----------------------------------------------------------------
   Total forces(  11)            :  0.585548E+00  0.860099E+00  0.128152E+01
  atom #   12
   Hellmann-Feynman              : -0.951757E+01 -0.105981E+02  0.208702E+01
   Ionic forces                  :  0.000000E+00  0.000000E+00  0.000000E+00
   Multipole                     : -0.783587E+00 -0.164989E+01 -0.187660E-01
   Pulay + GGA                   :  0.944981E+01  0.105128E+02 -0.377133E+01
   Van der Waals                 :  0.128918E-02  0.105542E-01  0.100624E-02
   ----------------------------------------------------------------
   Total forces(  12)            : -0.850060E+00 -0.172468E+01 -0.170207E+01
  atom #   13
   Hellmann-Feynman              : -0.862646E+00  0.104133E+00 -0.183093E+01
   Ionic forces                  :  0.000000E+00  0.000000E+00  0.000000E+00
   Multipole                     :  0.465466E-01  0.246917E-01 -0.886125E-01
   Pulay + GGA                   : -0.174277E+00 -0.418195E-01  0.366606E+00
   Van der Waals                 : -0.300896E-02 -0.680658E-03 -0.225921E-02
   ----------------------------------------------------------------
   Total forces(  13)            : -0.993386E+00  0.863246E-01 -0.155519E+01

  Timings for VdW correction (Tkatchenko-Scheffler 2009 or later):
  | CPU time:        0.090 s, Wall clock time:        0.091 s.
  Removing unitary transformations (pure translations, rotations) from forces on atoms.
  Atomic forces before filtering:
  | Net force on center of mass :   0.920911E-03  0.105327E-02 -0.837880E-02 eV/A
  | Net torque on center of mass:   0.689881E-02  0.129403E-02 -0.263301E-03 eV
  Atomic forces after filtering:
  | Net force on center of mass :  -0.356812E-15 -0.334511E-15  0.000000E+00 eV/A
  | Net torque on center of mass:   0.271424E-15 -0.472042E-15 -0.377634E-15 eV

  Energy and forces in a compact form:
  | Total energy uncorrected      :         -0.880302163856896E+04 eV
  | Total energy corrected        :         -0.880302163856896E+04 eV  <-- do not rely on this value for anything but (periodic) metals
  | Electronic free energy        :         -0.880302163856896E+04 eV
  Total atomic forces (unitary forces cleaned) [eV/Ang]:
  |   1         -0.188496911128689E+00          0.665972027491874E+00         -0.245209123498831E+00
  |   2          0.303070000651376E+00          0.491587770148543E-01          0.177474078987047E-02
  |   3          0.426519145930696E+00         -0.655783499015108E+00          0.527127564157693E+00
  |   4          0.337941796189695E-01         -0.640542213385848E-01         -0.266430389456067E+00
  |   5         -0.149639645686977E+00          0.212875973291052E+00         -0.200280948875460E+00
  |   6          0.296370365372818E+00         -0.422390636845875E+00          0.232627066413562E+00
  |   7         -0.259607444350572E+00         -0.186518551913880E-01          0.394521735153609E-01
  |   8         -0.284522835882767E-01          0.218486288939810E-01          0.198220430021052E+00
  |   9          0.110344392539516E+00          0.116192493703191E+00         -0.119965313276640E+00
  |  10          0.714236152050831E+00          0.873154640099791E+00          0.180556770177911E+01
  |  11          0.585376273387575E+00          0.860341907734775E+00          0.128245143784407E+01
  |  12         -0.850120330882309E+00         -0.172475817544432E+01         -0.170109939271362E+01
  |  13         -0.993393893914960E+00          0.860939396057557E-01         -0.155423594670010E+01

  ------------------------------------ 
  Start decomposition of the XC Energy 
  ------------------------------------ 
  X and C from original XC functional choice 
  Hartree-Fock Energy :          0.000000000 Ha              0.000000000 eV
  X Energy            :        -41.039601040 Ha          -1116.744363622 eV
  C Energy            :         -1.602297875 Ha            -43.600743572 eV
  Total XC Energy     :        -42.641898915 Ha          -1160.345107194 eV
  ------------------------------------ 
  LDA X and C from self-consistent density 
  X Energy LDA        :        -37.260855614 Ha          -1013.919468903 eV
  C Energy LDA        :         -3.139052862 Ha            -85.417974390 eV
  ------------------------------------ 
  End decomposition of the XC Energy 
  ------------------------------------ 

------------------------------------------------------------

------------------------------------------------------------------------------
  Final output of selected total energy values:

  The following output summarizes some interesting total energy values
  at the end of a run (AFTER all relaxation, molecular dynamics, etc.).

  | Total energy of the DFT / Hartree-Fock s.c.f. calculation      :          -8803.021638569 eV
  | Final zero-broadening corrected energy (caution - metals only) :          -8803.021638569 eV
  | For reference only, the value of 1 Hartree used in FHI-aims is :             27.211384500 eV

  Before relying on these values, please be sure to understand exactly which
  total energy value is referred to by a given number. Different objects may
  all carry the same name 'total energy'. Definitions:

  Total energy of the DFT / Hartree-Fock s.c.f. calculation:
  | Note that this energy does not include ANY quantities calculated after the
  | s.c.f. cycle, in particular not ANY RPA, MP2, etc. many-body perturbation terms.

  Final zero-broadening corrected energy:
  | For metallic systems only, a broadening of the occupation numbers at the Fermi
  | level can be extrapolated back to zero broadening by an electron-gas inspired
  | formula. For all systems that are not real metals, this value can be
  | meaningless and should be avoided.

------------------------------------------------------------------------------
  Methods described in the following list of references were used in this FHI-aims run.
  If you publish the results, please make sure to cite these reference if they apply.
  FHI-aims is an academic code, and for our developers (often, Ph.D. students
  and postdocs), scientific credit in the community is essential.
  Thank you for helping us!

  For any use of FHI-aims, please cite:

    Volker Blum, Ralf Gehrke, Felix Hanke, Paula Havu, Ville Havu,
    Xinguo Ren, Karsten Reuter, and Matthias Scheffler
    'Ab initio molecular simulations with numeric atom-centered orbitals'
    Computer Physics Communications 180, 2175-2196 (2009)
    http://dx.doi.org/10.1016/j.cpc.2009.06.022


  The scalable eigensolver library ELPA was used in your run.
  ELPA is essential especially for large systems on hundreds or thousands of CPUs.
  For ELPA, please cite:

    Andreas Marek, Volker Blum, Rainer Johanni, Ville Havu, Bruno Lang,
    Thomas Auckenthaler, Alexander Heinecke, Hans-Joachim Bungartz, and Hermann Lederer,
    'The ELPA Library - Scalable Parallel Eigenvalue Solutions
    for Electronic Structure Theory and Computational Science'
    The Journal of Physics: Condensed Matter 26, 213201 (2014).
    http://dx.doi.org/10.1088/0953-8984/26/21/213201


  The ELSI infrastructure was used in your run to solve the Kohn-Sham electronic structure.
  Please check out http://elsi-interchange.org to learn more.
  If scalability is important for your project, please acknowledge ELSI by citing:

    V. W-z. Yu, F. Corsetti, A. Garcia, W. P. Huhn, M. Jacquelin, W. Jia,
    B. Lange, L. Lin, J. Lu, W. Mi, A. Seifitokaldani, A. Vazquez-Mayagoitia,
    C. Yang, H. Yang, and V. Blum
    'ELSI: A unified software interface for Kohn-Sham electronic structure solvers'
    Computer Physics Communications 222, 267-285 (2018).
    http://dx.doi.org/10.1016/j.cpc.2017.09.007


  For the real-space grid partitioning and parallelization used in this calculation, please cite:

    Ville Havu, Volker Blum, Paula Havu, and Matthias Scheffler,
    'Efficient O(N) integration for all-electron electronic structure calculation'
    'using numerically tabulated basis functions'
    Journal of Computational Physics 228, 8367-8379 (2009).
    http://dx.doi.org/10.1016/j.jcp.2009.08.008

  Of course, there are many other important community references, e.g., those cited in the
  above references. Our list is limited to references that describe implementations in the
  FHI-aims code. The reason is purely practical (length of this list) - please credit others as well.

------------------------------------------------------------
          Leaving FHI-aims.
          Date     :  20200805, Time     :  181219.019

          Computational steps:
          | Number of self-consistency cycles          :           16
          | Number of SCF (re)initializations          :            1

          Detailed time accounting                     :  max(cpu_time)    wall_clock(cpu1)
          | Total time                                 :       22.664 s          22.708 s
          | Preparation time                           :        0.148 s           0.149 s
          | Boundary condition initalization           :        0.000 s           0.000 s
          | Grid partitioning                          :        0.112 s           0.112 s
          | Preloading free-atom quantities on grid    :        0.002 s           0.003 s
          | Free-atom superposition energy             :        0.084 s           0.084 s
          | Total time for integrations                :        8.627 s           8.630 s
          | Total time for solution of K.-S. equations :        0.036 s           0.039 s
          | Total time for density & force components  :        7.134 s           7.145 s
          | Total time for mixing                      :        0.216 s           0.218 s
          | Total time for Hartree multipole update    :        0.141 s           0.144 s
          | Total time for Hartree multipole sum       :        5.763 s           5.774 s
          | Total time for total energy evaluation     :        0.003 s           0.002 s
          | Total time for vdW correction              :        0.090 s           0.091 s

          Partial memory accounting:
          | Residual value for overall tracked memory usage across tasks :           0.000 MB (should be 0.000 MB)
          | Peak values for overall tracked memory usage (after allocating hessian_basis_wave):
          |   Minimum:        1.622 MB (on task 1)
          |   Maximum:        1.622 MB (on task 1)
          |   Average:        1.622 MB
          | Largest tracked array allocation (hessian_basis_wave):
          |   Minimum:        0.794 MB (on task 1)
          |   Maximum:        0.794 MB (on task 1)
          |   Average:        0.794 MB
          Note:  These values currently only include a subset of arrays which are explicitly tracked.
          The "true" memory usage will be greater.

          Have a nice day.
------------------------------------------------------------
