  MPI-parallelism will be employed.
------------------------------------------------------------
          Invoking FHI-aims ...
          Version 171221_1
          Compiled on 2019/09/09 at 14:39:39 on host puhti-login2.bullx.

          When using FHI-aims, please cite the following reference:

          Volker Blum, Ralf Gehrke, Felix Hanke, Paula Havu,
          Ville Havu, Xinguo Ren, Karsten Reuter, and Matthias Scheffler,
          'Ab Initio Molecular Simulations with Numeric Atom-Centered Orbitals',
          Computer Physics Communications 180, 2175-2196 (2009)

          For any questions about FHI-aims, please visit the aimsclub website
          with its forums and wiki. Contributions to both the forums and the
          wiki are warmly encouraged - they are for you, and everyone is welcome there.

------------------------------------------------------------



  Date     :  20200710, Time     :  144646.156
  Time zero on CPU 1             :   0.115870000000000E-01  s.
  Internal wall clock time zero  :           363624406.156  s.

  FHI-aims created a unique identifier for this run for later identification
  aims_uuid : 19F0B025-7AE7-4AB3-A767-775DE1C51A98

  Using        1 parallel tasks.
  Task        0 on host r18c45.bullx reporting.

  Performing system and environment tests:
  | Environment variable OMP_NUM_THREADS correctly set to 1.
  | Stacksize not measured: no C compiler
  | Checking for scalapack...
  | Testing pdtran()...
  | All pdtran() tests passed.

  Obtaining array dimensions for all initial allocations:
  
  -----------------------------------------------------------------------
  Parsing control.in (first pass over file, find array dimensions only).
  The contents of control.in will be repeated verbatim below
  unless switched off by setting 'verbatim_writeout .false.' .
  in the first line of control.in .
  -----------------------------------------------------------------------
  
  #########################################################################################
  #
  #  Volker Blum, FHI 2009 : Test run input file control.in for simple H2O
  #
  #########################################################################################
  #
  #  Physical model
  #
    xc                 pbe
    vdw_correction_hirshfeld
    spin               none
    relativistic       none
    charge             0.
  #
  #  SCF convergence
  #
    occupation_type    gaussian 0.01
    mixer              pulay
      n_max_pulay        10
      charge_mix_param   0.2
    sc_accuracy_rho    1E-5
    sc_accuracy_eev    1E-3
    sc_accuracy_etot   1E-6
    sc_accuracy_forces 1E-4
    sc_iter_limit      100
  #
  #  Relaxation
  #
  #  relax_geometry   bfgs 1.e-3
  #
  ################################################################################
  #
  #  FHI-aims code project
  #  VB, Fritz-Haber Institut, 2009
  #
  #  Suggested "light" defaults for H atom (to be pasted into control.in file)
  #  Be sure to double-check any results obtained with these settings for post-processing,
  #  e.g., with the "tight" defaults and larger basis sets.
  #
  ################################################################################
    species        H
  #     global species definitions
      nucleus             1
      mass                1.00794
  #
      l_hartree           4
  #
      cut_pot             3.5  1.5  1.0
      basis_dep_cutoff    1e-4
  #
      radial_base         24 5.0
      radial_multiplier   1
      angular_grids       specified
        division   0.2421   50
        division   0.3822  110
        division   0.4799  194
        division   0.5341  302
  #      division   0.5626  434
  #      division   0.5922  590
  #      division   0.6542  770
  #      division   0.6868 1202
  #      outer_grid  770
        outer_grid  302
  ################################################################################
  #
  #  Definition of "minimal" basis
  #
  ################################################################################
  #     valence basis states
      valence      1  s   1.
  #     ion occupancy
      ion_occ      1  s   0.5
  ################################################################################
  #
  #  Suggested additional basis functions. For production calculations,
  #  uncomment them one after another (the most important basis functions are
  #  listed first).
  #
  #  Basis constructed for dimers: 0.5 A, 0.7 A, 1.0 A, 1.5 A, 2.5 A
  #
  ################################################################################
  #  "First tier" - improvements: -1014.90 meV to -62.69 meV
       hydro 2 s 2.1
       hydro 2 p 3.5
  #  "Second tier" - improvements: -12.89 meV to -1.83 meV
  #     hydro 1 s 0.85
  #     hydro 2 p 3.7
  #     hydro 2 s 1.2
  #     hydro 3 d 7
  #  "Third tier" - improvements: -0.25 meV to -0.12 meV
  #     hydro 4 f 11.2
  #     hydro 3 p 4.8
  #     hydro 4 d 9
  #     hydro 3 s 3.2
  ################################################################################
  #
  #  FHI-aims code project
  #  VB, Fritz-Haber Institut, 2009
  #
  #  Suggested "light" defaults for C atom (to be pasted into control.in file)
  #  Be sure to double-check any results obtained with these settings for post-processing,
  #  e.g., with the "tight" defaults and larger basis sets.
  #
  ################################################################################
    species        C
  #     global species definitions
      nucleus             6
      mass                12.0107
  #
      l_hartree           4
  #
      cut_pot             3.5  1.5  1.0
      basis_dep_cutoff    1e-4
  #
      radial_base         34 5.0
      radial_multiplier   1
      angular_grids specified
        division   0.3326   50
        division   0.5710  110
        division   0.7727  194
        division   0.8772  302
  #      division   0.9334  434
  #      division   0.9625  590
  #      division   0.9924  770
  #      division   1.0230  974
  #      division   1.4589 1202
  #     outer_grid  974
       outer_grid 302
  ################################################################################
  #
  #  Definition of "minimal" basis
  #
  ################################################################################
  #     valence basis states
      valence      2  s   2.
      valence      2  p   2.
  #     ion occupancy
      ion_occ      2  s   1.
      ion_occ      2  p   1.
  ################################################################################
  #
  #  Suggested additional basis functions. For production calculations,
  #  uncomment them one after another (the most important basis functions are
  #  listed first).
  #
  #  Constructed for dimers: 1.0 A, 1.25 A, 1.5 A, 2.0 A, 3.0 A
  #
  ################################################################################
  #  "First tier" - improvements: -1214.57 meV to -155.61 meV
       hydro 2 p 1.7
       hydro 3 d 6
       hydro 2 s 4.9
  #  "Second tier" - improvements: -67.75 meV to -5.23 meV
  #     hydro 4 f 9.8
  #     hydro 3 p 5.2
  #     hydro 3 s 4.3
  #     hydro 5 g 14.4
  #     hydro 3 d 6.2
  #  "Third tier" - improvements: -2.43 meV to -0.60 meV
  #     hydro 2 p 5.6
  #     hydro 2 s 1.4
  #     hydro 3 d 4.9
  #     hydro 4 f 11.2
  #  "Fourth tier" - improvements: -0.39 meV to -0.18 meV
  #     hydro 2 p 2.1
  #     hydro 5 g 16.4
  #     hydro 4 d 13.2
  #     hydro 3 s 13.6
  #     hydro 4 f 17.6
  #  Further basis functions - improvements: -0.08 meV and below
  #     hydro 3 s 2
  #     hydro 3 p 6
  #     hydro 4 d 20
  ################################################################################
  #
  #  FHI-aims code project
  #  VB, Fritz-Haber Institut, 2009
  #
  #  Suggested "light" defaults for N atom (to be pasted into control.in file)
  #  Be sure to double-check any results obtained with these settings for post-processing,
  #  e.g., with the "tight" defaults and larger basis sets.
  #
  ################################################################################
    species        N
  #     global species definitions
      nucleus             7
      mass                14.0067
  #
      l_hartree           4
  #
      cut_pot             3.5  1.5  1.0
      basis_dep_cutoff    1e-4
  #
      radial_base         35 5.0
      radial_multiplier   1
      angular_grids       specified
        division   0.2599   50
        division   0.4601  110
        division   0.5885  194
        division   0.6503  302
  #      division   0.6939  434
  #      division   0.7396  590
  #      division   0.7632  770
  #      division   0.8122  974
  #      division   1.1604 1202
  #      outer_grid  974
        outer_grid  302
  ################################################################################
  #
  #  Definition of "minimal" basis
  #
  ################################################################################
  #     valence basis states
      valence      2  s   2.
      valence      2  p   3.
  #     ion occupancy
      ion_occ      2  s   1.
      ion_occ      2  p   2.
  ################################################################################
  #
  #  Suggested additional basis functions. For production calculations,
  #  uncomment them one after another (the most important basis functions are
  #  listed first).
  #
  #  Constructed for dimers: 1.0 A, 1.1 A, 1.5 A, 2.0 A, 3.0 A
  #
  ################################################################################
  #  "First tier" - improvements: -1193.42 meV to -220.60 meV
       hydro 2 p 1.8
       hydro 3 d 6.8
       hydro 3 s 5.8
  #  "Second tier" - improvements: -80.21 meV to -6.86 meV
  #     hydro 4 f 10.8
  #     hydro 3 p 5.8
  #     hydro 1 s 0.8
  #     hydro 5 g 16
  #     hydro 3 d 4.9
  #  "Third tier" - improvements: -4.29 meV to -0.53 meV
  #     hydro 3 s 16
  #     ionic 2 p auto
  #     hydro 3 d 6.6
  #     hydro 4 f 11.6
  #  "Fourth tier" - improvements: -0.75 meV to -0.25 meV
  #     hydro 2 p 4.5
  #     hydro 2 s 2.4
  #     hydro 5 g 14.4
  #     hydro 4 d 14.4
  #     hydro 4 f 16.8
  # Further basis functions - -0.21 meV and below
  #     hydro 3 p 14.8
  #     hydro 3 s 4.4
  #     hydro 3 d 19.6
  #     hydro 5 g 12.8
  ################################################################################
  #
  #  FHI-aims code project
  #  VB, Fritz-Haber Institut, 2009
  #
  #  Suggested "light" defaults for O atom (to be pasted into control.in file)
  #  Be sure to double-check any results obtained with these settings for post-processing,
  #  e.g., with the "tight" defaults and larger basis sets.
  #
  ################################################################################
    species        O
  #     global species definitions
      nucleus             8
      mass                15.9994
  #
      l_hartree           4
  #
      cut_pot             3.5  1.5  1.0
      basis_dep_cutoff    1e-4
  #
      radial_base         36 5.0
      radial_multiplier   1
       angular_grids specified
        division   0.2659   50
        division   0.4451  110
        division   0.6052  194
        division   0.7543  302
  #      division   0.8014  434
  #      division   0.8507  590
  #      division   0.8762  770
  #      division   0.9023  974
  #      division   1.2339 1202
  #      outer_grid 974
        outer_grid 302
  ################################################################################
  #
  #  Definition of "minimal" basis
  #
  ################################################################################
  #     valence basis states
      valence      2  s   2.
      valence      2  p   4.
  #     ion occupancy
      ion_occ      2  s   1.
      ion_occ      2  p   3.
  ################################################################################
  #
  #  Suggested additional basis functions. For production calculations,
  #  uncomment them one after another (the most important basis functions are
  #  listed first).
  #
  #  Constructed for dimers: 1.0 A, 1.208 A, 1.5 A, 2.0 A, 3.0 A
  #
  ################################################################################
  #  "First tier" - improvements: -699.05 meV to -159.38 meV
       hydro 2 p 1.8
       hydro 3 d 7.6
       hydro 3 s 6.4
  #  "Second tier" - improvements: -49.91 meV to -5.39 meV
  #     hydro 4 f 11.6
  #     hydro 3 p 6.2
  #     hydro 3 d 5.6
  #     hydro 5 g 17.6
  #     hydro 1 s 0.75
  #  "Third tier" - improvements: -2.83 meV to -0.50 meV
  #     ionic 2 p auto
  #     hydro 4 f 10.8
  #     hydro 4 d 4.7
  #     hydro 2 s 6.8
  #  "Fourth tier" - improvements: -0.40 meV to -0.12 meV
  #     hydro 3 p 5
  #     hydro 3 s 3.3
  #     hydro 5 g 15.6
  #     hydro 4 f 17.6
  #     hydro 4 d 14
  # Further basis functions - -0.08 meV and below
  #     hydro 3 s 2.1
  #     hydro 4 d 11.6
  #     hydro 3 p 16
  #     hydro 2 s 17.2
  
  -----------------------------------------------------------------------
  Completed first pass over input file control.in .
  -----------------------------------------------------------------------
  
  
  -----------------------------------------------------------------------
  Parsing geometry.in (first pass over file, find array dimensions only).
  The contents of geometry.in will be repeated verbatim below
  unless switched off by setting 'verbatim_writeout .false.' .
  in the first line of geometry.in .
  -----------------------------------------------------------------------
  
  atom  0.00000 0.00000 0.00000 C
  atom  1.09300 0.00000 0.00000 H
  atom  -0.47961 0.00000 -1.41207 N
  atom  -0.93982 -0.89122 -1.60120 H
  atom  -1.13638 0.76802 -1.53420 H
  atom  -0.49584 1.26211 0.72868 C
  atom  -1.58789 1.28919 0.74431 H
  atom  -0.13407 1.27425 1.75947 H
  atom  -0.13407 2.16087 0.22380 H
  atom  -0.39425 -1.28861 0.74398 C
  atom  -0.10189 -1.56493 1.88303 O
  atom  -1.10210 -2.13717 0.06896 O
  atom  -1.78438 -1.52582 -0.25619 H
  
  -----------------------------------------------------------------------
  Completed first pass over input file geometry.in .
  -----------------------------------------------------------------------
  

  Basic array size parameters:
  | Number of species                 :        4
  | Number of atoms                   :       13
  | Max. basis fn. angular momentum   :        2
  | Max. atomic/ionic basis occupied n:        2
  | Max. number of basis fn. types    :        2
  | Max. radial fns per species/type  :        3
  | Max. logarithmic grid size        :     1301
  | Max. radial integration grid size :       36
  | Max. angular integration grid size:      302
  | Max. angular grid division number :        8
  | Radial grid for Hartree potential :     1301
  | Number of spin channels           :        1

------------------------------------------------------------
          Reading file control.in.
------------------------------------------------------------
  XC: Using PBE gradient-corrected functionals.
  Spin treatment: No spin polarisation.
  Non-relativistic treatment of kinetic energy.
  Charge =   0.000000E+00: Neutral system requested explicitly.
  Occupation type: Gaussian broadening, width =   0.100000E-01 eV.
  Using pulay charge density mixing.
  Pulay mixing - number of memorized iterations:   10
  Charge density mixing - mixing parameter:     0.2000
  Convergence accuracy of self-consistent charge density:  0.1000E-04
  Convergence accuracy of sum of eigenvalues:  0.1000E-02
  Convergence accuracy of total energy:  0.1000E-05
  Convergence accuracy of forces:  0.1000E-03
  Maximum number of s.-c. iterations  :   100
 
  Reading configuration options for species H                   .
  | Found nuclear charge :   1.0000
  | Found atomic mass :    1.00794000000000      amu
  | Found l_max for Hartree potential  :   4
  | Found cutoff potl. onset [A], width [A], scale factor :    3.50000    1.50000    1.00000
  | Threshold for basis-dependent cutoff potential is   0.100000E-03
  | Found data for basic radial integration grid :    24 points, outermost radius =    5.000 A
  | Found multiplier for basic radial grid :   1
  | Found angular grid specification: user-specified.
  | Specified grid contains     5 separate shells.
  | Check grid settings after all constraints further below.
  | Found free-atom valence shell :  1 s   1.000
  | No ionic wave fns used. Skipping ion_occ.
  | Found hydrogenic basis function :  2 s   2.100
  | Found hydrogenic basis function :  2 p   3.500
  Species H                   : Missing cutoff potential type.
  Defaulting to exp(1/x)/(1-x)^2 type cutoff potential.
  Species H : No 'logarithmic' tag. Using default grid for free atom:
  | Default logarithmic grid data [bohr] : 0.1000E-03 0.1000E+03 0.1012E+01
  Species H : On-site basis accuracy parameter (for Gram-Schmidt orthonormalisation) not specified.
  Using default value basis_acc =  0.1000000E-03.
  Species H                   : Using default innermost maximum threshold i_radial=  2 for radial functions.
  Species H                   : Default cutoff onset for free atom density etc. : 0.35000000E+01 AA.
  Species H                   : Basic radial grid will be enhanced according to radial_multiplier =   1, to contain    24 grid points.
 
  Reading configuration options for species C                   .
  | Found nuclear charge :   6.0000
  | Found atomic mass :    12.0107000000000      amu
  | Found l_max for Hartree potential  :   4
  | Found cutoff potl. onset [A], width [A], scale factor :    3.50000    1.50000    1.00000
  | Threshold for basis-dependent cutoff potential is   0.100000E-03
  | Found data for basic radial integration grid :    34 points, outermost radius =    5.000 A
  | Found multiplier for basic radial grid :   1
  | Found angular grid specification: user-specified.
  | Specified grid contains     5 separate shells.
  | Check grid settings after all constraints further below.
  | Found free-atom valence shell :  2 s   2.000
  | Found free-atom valence shell :  2 p   2.000
  | No ionic wave fns used. Skipping ion_occ.
  | No ionic wave fns used. Skipping ion_occ.
  | Found hydrogenic basis function :  2 p   1.700
  | Found hydrogenic basis function :  3 d   6.000
  | Found hydrogenic basis function :  2 s   4.900
  Species C                   : Missing cutoff potential type.
  Defaulting to exp(1/x)/(1-x)^2 type cutoff potential.
  Species C : No 'logarithmic' tag. Using default grid for free atom:
  | Default logarithmic grid data [bohr] : 0.1000E-03 0.1000E+03 0.1012E+01
  Species C : On-site basis accuracy parameter (for Gram-Schmidt orthonormalisation) not specified.
  Using default value basis_acc =  0.1000000E-03.
  Species C                   : Using default innermost maximum threshold i_radial=  2 for radial functions.
  Species C                   : Default cutoff onset for free atom density etc. : 0.35000000E+01 AA.
  Species C                   : Basic radial grid will be enhanced according to radial_multiplier =   1, to contain    34 grid points.
 
  Reading configuration options for species N                   .
  | Found nuclear charge :   7.0000
  | Found atomic mass :    14.0067000000000      amu
  | Found l_max for Hartree potential  :   4
  | Found cutoff potl. onset [A], width [A], scale factor :    3.50000    1.50000    1.00000
  | Threshold for basis-dependent cutoff potential is   0.100000E-03
  | Found data for basic radial integration grid :    35 points, outermost radius =    5.000 A
  | Found multiplier for basic radial grid :   1
  | Found angular grid specification: user-specified.
  | Specified grid contains     5 separate shells.
  | Check grid settings after all constraints further below.
  | Found free-atom valence shell :  2 s   2.000
  | Found free-atom valence shell :  2 p   3.000
  | No ionic wave fns used. Skipping ion_occ.
  | No ionic wave fns used. Skipping ion_occ.
  | Found hydrogenic basis function :  2 p   1.800
  | Found hydrogenic basis function :  3 d   6.800
  | Found hydrogenic basis function :  3 s   5.800
  Species N                   : Missing cutoff potential type.
  Defaulting to exp(1/x)/(1-x)^2 type cutoff potential.
  Species N : No 'logarithmic' tag. Using default grid for free atom:
  | Default logarithmic grid data [bohr] : 0.1000E-03 0.1000E+03 0.1012E+01
  Species N : On-site basis accuracy parameter (for Gram-Schmidt orthonormalisation) not specified.
  Using default value basis_acc =  0.1000000E-03.
  Species N                   : Using default innermost maximum threshold i_radial=  2 for radial functions.
  Species N                   : Default cutoff onset for free atom density etc. : 0.35000000E+01 AA.
  Species N                   : Basic radial grid will be enhanced according to radial_multiplier =   1, to contain    35 grid points.
 
  Reading configuration options for species O                   .
  | Found nuclear charge :   8.0000
  | Found atomic mass :    15.9994000000000      amu
  | Found l_max for Hartree potential  :   4
  | Found cutoff potl. onset [A], width [A], scale factor :    3.50000    1.50000    1.00000
  | Threshold for basis-dependent cutoff potential is   0.100000E-03
  | Found data for basic radial integration grid :    36 points, outermost radius =    5.000 A
  | Found multiplier for basic radial grid :   1
  | Found angular grid specification: user-specified.
  | Specified grid contains     5 separate shells.
  | Check grid settings after all constraints further below.
  | Found free-atom valence shell :  2 s   2.000
  | Found free-atom valence shell :  2 p   4.000
  | No ionic wave fns used. Skipping ion_occ.
  | No ionic wave fns used. Skipping ion_occ.
  | Found hydrogenic basis function :  2 p   1.800
  | Found hydrogenic basis function :  3 d   7.600
  | Found hydrogenic basis function :  3 s   6.400
  Species O                   : Missing cutoff potential type.
  Defaulting to exp(1/x)/(1-x)^2 type cutoff potential.
  Species O : No 'logarithmic' tag. Using default grid for free atom:
  | Default logarithmic grid data [bohr] : 0.1000E-03 0.1000E+03 0.1012E+01
  Species O : On-site basis accuracy parameter (for Gram-Schmidt orthonormalisation) not specified.
  Using default value basis_acc =  0.1000000E-03.
  Species O                   : Using default innermost maximum threshold i_radial=  2 for radial functions.
  Species O                   : Default cutoff onset for free atom density etc. : 0.35000000E+01 AA.
  Species O                   : Basic radial grid will be enhanced according to radial_multiplier =   1, to contain    36 grid points.
 
  Finished reading input file 'control.in'. Consistency checks are next.
 
  MPI_IN_PLACE appears to work with this MPI implementation.
  | Keeping use_mpi_in_place .true. (see manual).
  Target number of points in a grid batch is not set. Defaulting to  100
  Method for grid partitioning is not set. Defaulting to parallel hash+maxmin partitioning.
  Batch size limit is not set. Defaulting to    200
  By default, will store active basis functions for each batch.
  If in need of memory, prune_basis_once .false. can be used to disable this option.
  communication_type for Hartree potential was not specified.
  Defaulting to calc_hartree .
  Pulay mixer: Number of initial linear mixing iterations not set.
  Defaulting to    0 iterations.
  Work space size for distributed Hartree potential not set.
  Defaulting to   0.200000E+03 MB.
  Algorithm-dependent basis array size parameters:
  | n_max_pulay                         :       10
  Presetting      1001 iterations before the initial mixing cycle
  is restarted anyway using the sc_init_iter criterion / keyword.
  Presetting a factor      1.000 between actual scf density residual
  and density convergence criterion sc_accuracy_rho below which sc_init_iter
  takes no effect.
  Geometry relaxation not requested: no relaxation will be performed.
  Handling of forces: Unphysical translation and rotation will be removed from forces.
  No accuracy limit for integral partition fn. given. Defaulting to  0.1000E-14.
  No threshold value for u(r) in integrations given. Defaulting to  0.1000E-05.
  No accuracy for occupation numbers given. Defaulting to  0.1000E-12.
  No threshold value for occupation numbers given. Defaulting to  0.0000E+00.
  No accuracy for fermi level given. Defaulting to  0.1000E-19.
  Maximum # of iterations to find E_F not set. Defaulting to  200.
  Preferred method for the eigenvalue solver ('KS_method') not specified in 'control.in'.
  Defaulting to serial version, 'lapack_fast'.
  Will not use alltoall communication since running on < 1024 CPUs.
  Threshold for basis singularities not set.
  Default threshold for basis singularities:  0.1000E-04
  partition_type (choice of integration weights) for integrals was not specified.
  | Using a version of the partition function of Stratmann and coworkers ('stratmann_smoother').
  | At each grid point, the set of atoms used to build the partition table is smoothly restricted to
  | only those atoms whose free-atom density would be non-zero at that grid point.
  Partitioning for Hartree potential was not defined. Using partition_type for integrals.
  | Adjusted default value of keyword multip_moments_threshold to:       0.10000000E-11
  | This value may affect high angular momentum components of the Hartree potential in periodic systems.
  No q(lm)/r^(l+1) cutoff set for long-range Hartree potential.
  | Using default value of  0.100000E-09 .
  | Verify using the multipole_threshold keyword.
  Defaulting to new monopole extrapolation.
  Density update method: automatic selection selected.
------------------------------------------------------------


------------------------------------------------------------
          Reading geometry description geometry.in.
------------------------------------------------------------
  Input structure read successfully.
  The structure contains       13 atoms,  and a total of         48.000 electrons.

  Input geometry:
  | No unit cell requested.
  | Atomic structure:
  |       Atom                x [A]            y [A]            z [A]
  |    1: Species C             0.00000000        0.00000000        0.00000000
  |    2: Species H             1.09300000        0.00000000        0.00000000
  |    3: Species N            -0.47961000        0.00000000       -1.41207000
  |    4: Species H            -0.93982000       -0.89122000       -1.60120000
  |    5: Species H            -1.13638000        0.76802000       -1.53420000
  |    6: Species C            -0.49584000        1.26211000        0.72868000
  |    7: Species H            -1.58789000        1.28919000        0.74431000
  |    8: Species H            -0.13407000        1.27425000        1.75947000
  |    9: Species H            -0.13407000        2.16087000        0.22380000
  |   10: Species C            -0.39425000       -1.28861000        0.74398000
  |   11: Species O            -0.10189000       -1.56493000        1.88303000
  |   12: Species O            -1.10210000       -2.13717000        0.06896000
  |   13: Species H            -1.78438000       -1.52582000       -0.25619000
  |

  | The smallest distance between any two atoms is         0.97209945 AA.
  |
  | The first atom of this pair is atom number                     12 .
  | The second atom of this pair is atom number                    13 .

  Number of empty states per atom not set in control.in - providing a guess from actual geometry.
  | Total number of empty states used during s.c.f. cycle:       29
  If you use a very high smearing, use empty_states (per atom!) in control.in to increase this value.

  Structure-dependent array size parameters: 
  | Maximum number of distinct radial functions  :       21
  | Maximum number of basis functions            :      119
  | Number of Kohn-Sham states (occupied + empty):       53
------------------------------------------------------------

------------------------------------------------------------
          Preparing all fixed parts of the calculation.
------------------------------------------------------------
  Determining machine precision:
    2.225073858507201E-308
  Setting up grids for atomic and cluster calculations.

  Creating wave function, potential, and density for free atoms.

  Species: H

  List of occupied orbitals and eigenvalues:
    n    l              occ      energy [Ha]    energy [eV]
    1    0           1.0000        -0.237589        -6.4651


  Species: C

  List of occupied orbitals and eigenvalues:
    n    l              occ      energy [Ha]    energy [eV]
    1    0           2.0000       -10.038835      -273.1706
    2    0           2.0000        -0.502696       -13.6791
    2    1           2.0000        -0.191971        -5.2238


  Species: N

  List of occupied orbitals and eigenvalues:
    n    l              occ      energy [Ha]    energy [eV]
    1    0           2.0000       -14.128000      -384.4424
    2    0           2.0000        -0.681077       -18.5330
    2    1           3.0000        -0.259788        -7.0692


  Species: O

  List of occupied orbitals and eigenvalues:
    n    l              occ      energy [Ha]    energy [eV]
    1    0           2.0000       -18.898188      -514.2459
    2    0           2.0000        -0.878505       -23.9053
    2    1           4.0000        -0.331779        -9.0282

  Creating fixed part of basis set: Ionic, confined, hydrogenic.
 
  H                    hydrogenic:
 
  List of hydrogenic basis orbitals: 
    n    l      effective z      eigenvalue [eV]  inner max. [A]     outer max. [A]     outer radius [A]   
    2    0         2.100000       -14.9728           0.193243           1.317208           4.583499
    2    1         3.500000       -41.6669           0.602369           0.602369           3.723403
 
 
  C                    hydrogenic:
 
  List of hydrogenic basis orbitals: 
    n    l      effective z      eigenvalue [eV]  inner max. [A]     outer max. [A]     outer radius [A]   
    2    1         1.700000        -9.7616           1.230570           1.230570           4.607917
    3    2         6.000000       -54.4224           0.792453           0.792453           3.883070
    2    0         4.900000       -81.6679           0.082559           0.562749           3.078220
 
 
  N                    hydrogenic:
 
  List of hydrogenic basis orbitals: 
    n    l      effective z      eigenvalue [eV]  inner max. [A]     outer max. [A]     outer radius [A]   
    2    1         1.800000       -10.9749           1.177451           1.177451           4.573712
    3    2         6.800000       -69.9026           0.704619           0.704619           3.538137
    3    0         5.800000       -50.8545           0.067388           1.191934           4.250239
 
 
  O                    hydrogenic:
 
  List of hydrogenic basis orbitals: 
    n    l      effective z      eigenvalue [eV]  inner max. [A]     outer max. [A]     outer radius [A]   
    2    1         1.800000       -10.9749           1.164242           1.164242           4.578029
    3    2         7.600000       -87.3180           0.624125           0.624125           3.251020
    3    0         6.400000       -61.9207           0.061167           1.081902           4.001998
 

  Adding cutoff potential to free-atom effective potential.
  Creating atomic-like basis functions for current effective potential.

  Species H                   :

  List of atomic basis orbitals and eigenvalues:
    n    l      energy [Ha]    energy [eV]    outer radius [A]
    1    0        -0.237589        -6.4651       4.527807


  Species C                   :

  List of atomic basis orbitals and eigenvalues:
    n    l      energy [Ha]    energy [eV]    outer radius [A]
    1    0       -10.038835      -273.1706       1.934409
    2    0        -0.502696       -13.6791       4.496620
    2    1        -0.191971        -5.2238       4.551928


  Species N                   :

  List of atomic basis orbitals and eigenvalues:
    n    l      energy [Ha]    energy [eV]    outer radius [A]
    1    0       -14.128000      -384.4424       1.637919
    2    0        -0.681077       -18.5330       4.463241
    2    1        -0.259788        -7.0692       4.518138


  Species O                   :

  List of atomic basis orbitals and eigenvalues:
    n    l      energy [Ha]    energy [eV]    outer radius [A]
    1    0       -18.898188      -514.2459       1.415765
    2    0        -0.878505       -23.9053       4.413171
    2    1        -0.331779        -9.0282       4.522403

  Assembling full basis from fixed parts.
  | Species H :   atomic orbital   1 s accepted.
  | Species H :    hydro orbital   2 s accepted.
  | Species H :    hydro orbital   2 p accepted.
  | Species C :   atomic orbital   1 s accepted.
  | Species C :    hydro orbital   2 s accepted.
  | Species C :   atomic orbital   2 s accepted.
  | Species C :   atomic orbital   2 p accepted.
  | Species C :    hydro orbital   2 p accepted.
  | Species C :    hydro orbital   3 d accepted.
  | Species N :   atomic orbital   1 s accepted.
  | Species N :    hydro orbital   3 s accepted.
  | Species N :   atomic orbital   2 s accepted.
  | Species N :   atomic orbital   2 p accepted.
  | Species N :    hydro orbital   2 p accepted.
  | Species N :    hydro orbital   3 d accepted.
  | Species O :   atomic orbital   1 s accepted.
  | Species O :    hydro orbital   3 s accepted.
  | Species O :   atomic orbital   2 s accepted.
  | Species O :   atomic orbital   2 p accepted.
  | Species O :    hydro orbital   2 p accepted.
  | Species O :    hydro orbital   3 d accepted.
 
  Basis size parameters after reduction:
  | Total number of radial functions:       21
  | Total number of basis functions :      119
 
  Per-task memory consumption for arrays in subroutine allocate_ext:
  |           5.250512MB.
  Testing on-site integration grid accuracy.
  |  Species  Function  <phi|h_atom|phi> (log., in eV)  <phi|h_atom|phi> (rad., in eV)
           1        1                 -6.4663192853                 -6.4651273558
           1        2                 13.7111246313                 13.7170609718
           1        3                 25.2673269279                 25.2674696378
           2        4               -273.1705927641               -273.1705631568
           2        5                -10.7109323383                -10.7107120029
           2        6                 17.4381822266                 17.4352413244
           2        7                 -5.2255326521                 -5.2270484734
           2        8                  8.6835629259                  8.6603288385
           2        9                 27.4952418996                 27.4953360207
           3       10               -384.4424306495               -384.4423701208
           3       11                 12.5842251816                 12.5842222903
           3       12                -15.7264628251                -15.7264433455
           3       13                 -7.0696854293                 -7.0701769954
           3       14                  8.8090390882                  8.7901077751
           3       15                 35.9586762123                 35.9588528632
           4       16               -514.2458688638               -514.2457643834
           4       17                 15.1795651126                 15.1795290741
           4       18                -21.5359799773                -21.5360846186
           4       19                 -9.0283069236                 -9.0284644067
           4       20                  8.3027758564                  8.2834874195
           4       21                 45.8339351984                 45.8338762259

  Preparing densities etc. for the partition functions (integrals / Hartree potential).

  Preparations completed.
  max(cpu_time)          :      0.145 s.
  Wall clock time (cpu1) :      0.146 s.
------------------------------------------------------------

------------------------------------------------------------
          Begin self-consistency loop: Initialization.

          Date     :  20200710, Time     :  144646.316
------------------------------------------------------------

  Initializing index lists of integration centers etc. from given atomic structure:
  | Number of centers in hartree potential         :        13
  | Number of centers in hartree multipole         :        13
  | Number of centers in electron density summation:        13
  | Number of centers in basis integrals           :        13
  | Number of centers in integrals                 :        13
  | Number of centers in hamiltonian               :        13
  Partitioning the integration grid into batches with parallel hashing+maxmin method.
  | Number of batches:      967
  | Maximal batch size:     138
  | Minimal batch size:      66
  | Average batch size:      72.023
  | Standard deviation of batch sizes:      16.049

  Integration load balanced across     1 MPI tasks.
  Work distribution over tasks is as follows:
  Task     0 has      69646 integration points.
  Initializing partition tables, free-atom densities, potentials, etc. across the integration grid (initialize_grid_storage).
  | initialize_grid_storage: Actual outermost partition radius vs. multipole_radius_free
  | (-- VB: in principle, multipole_radius_free should be larger, hence this output)
  | Species        1: Confinement radius =              4.999999999999999 AA, multipole_radius_free =              5.054417573612229 AA.
  | Species        1: outer_partition_radius set to              5.054417573612229 AA .
  | Species        2: Confinement radius =              4.999999999999999 AA, multipole_radius_free =              5.019602836301480 AA.
  | Species        2: outer_partition_radius set to              5.019602836301480 AA .
  | Species        3: Confinement radius =              4.999999999999999 AA, multipole_radius_free =              5.043624274424571 AA.
  | Species        3: outer_partition_radius set to              5.043624274424571 AA .
  | Species        4: Confinement radius =              4.999999999999999 AA, multipole_radius_free =              5.048384829883283 AA.
  | Species        4: outer_partition_radius set to              5.048384829883283 AA .
  | Original list of interatomic distances with          13 x         13 entries is created.
  | Net number of integration points:    69646
  | of which are non-zero points    :    59328
  Renormalizing the initial density to the exact electron count on the 3D integration grid.
  | Initial density: Formal number of electrons (from input files) :      48.0000000000
  | Integrated number of electrons on 3D grid     :      48.0000121327
  | Charge integration error                      :       0.0000121327
  | Normalization factor for density and gradient :       0.9999997472
  Obtaining max. number of non-zero basis functions in each batch (get_n_compute_maxes).
  | Maximal number of non-zero basis functions:      119 in task     0
  Selecting the method for density update.
  Loop over occupied states selected for charge density update.
  Allocating        0.050 MB for KS_eigenvector
  Integrating Hamiltonian matrix: batch-based integration.
  Time summed over all CPUs for integration: real work        0.497 s, elapsed        0.497 s
  Integrating overlap matrix.
  Time summed over all CPUs for integration: real work        0.214 s, elapsed        0.214 s

  Updating Kohn-Sham eigenvalues and eigenvectors using ELSI and the ELPA eigensolver.
  Overlap matrix is nonsingular
  | Lowest eigenvalue of overlap  :  0.50E-02
  | Highest eigenvalue of overlap :  0.64E+01
  Finished singularity check of overlap matrix
  | Time :     0.002 s
  Finished Cholesky decomposition
  | Time :     0.000 s
  Finished transformation to standard eigenproblem
  | Time :     0.000 s
  Starting LAPACK eigensolver
  Finished solving standard eigenproblem
  | Time :     0.002 s
  Finished back-transformation of eigenvectors
  | Time :     0.000 s

  Obtaining occupation numbers and chemical potential using ELSI.
  | Chemical potential (Fermi level):    -9.57369697eV
  Writing Kohn-Sham eigenvalues.

  State    Occupation    Eigenvalue [Ha]    Eigenvalue [eV]
      1       2.00000         -19.008473         -517.24686
      2       2.00000         -18.977155         -516.39466
      3       2.00000         -14.246230         -387.65964
      4       2.00000         -10.166903         -276.65551
      5       2.00000         -10.141605         -275.96710
      6       2.00000         -10.132156         -275.71000
      7       2.00000          -1.183423          -32.20257
      8       2.00000          -1.101055          -29.96122
      9       2.00000          -0.992596          -27.00991
     10       2.00000          -0.859788          -23.39603
     11       2.00000          -0.756052          -20.57321
     12       2.00000          -0.680639          -18.52114
     13       2.00000          -0.642711          -17.48906
     14       2.00000          -0.605008          -16.46309
     15       2.00000          -0.586499          -15.95946
     16       2.00000          -0.559519          -15.22528
     17       2.00000          -0.548206          -14.91744
     18       2.00000          -0.537326          -14.62138
     19       2.00000          -0.520939          -14.17547
     20       2.00000          -0.494895          -13.46678
     21       2.00000          -0.467812          -12.72982
     22       2.00000          -0.430885          -11.72498
     23       2.00000          -0.412280          -11.21872
     24       2.00000          -0.381320          -10.37625
     25       0.00000          -0.156185           -4.25002
     26       0.00000          -0.070428           -1.91644
     27       0.00000          -0.029128           -0.79261
     28       0.00000          -0.022214           -0.60447
     29       0.00000           0.000441            0.01200
     30       0.00000           0.010015            0.27252
     31       0.00000           0.017853            0.48581
     32       0.00000           0.030284            0.82407
     33       0.00000           0.054246            1.47610
     34       0.00000           0.059071            1.60741
     35       0.00000           0.100849            2.74424
     36       0.00000           0.132366            3.60185
     37       0.00000           0.153364            4.17326
     38       0.00000           0.204113            5.55420
     39       0.00000           0.221512            6.02764
     40       0.00000           0.234865            6.39100
     41       0.00000           0.254485            6.92490
     42       0.00000           0.275189            7.48828
     43       0.00000           0.295170            8.03198
     44       0.00000           0.297160            8.08612
     45       0.00000           0.314049            8.54570
     46       0.00000           0.357912            9.73929
     47       0.00000           0.363751            9.89817
     48       0.00000           0.389623           10.60218
     49       0.00000           0.432633           11.77256
     50       0.00000           0.487635           13.26923
     51       0.00000           0.522939           14.22990
     52       0.00000           0.526804           14.33505
     53       0.00000           0.565713           15.39384

  Highest occupied state (VBM) at    -10.37625402 eV
  | Occupation number:      2.00000000

  Lowest unoccupied state (CBM) at    -4.25001632 eV
  | Occupation number:      0.00000000

  Overall HOMO-LUMO gap:      6.12623770 eV.
  Calculating total energy contributions from superposition of free atom densities.

  Total energy components:
  | Sum of eigenvalues            :        -188.86694844 Ha       -5139.33115335 eV
  | XC energy correction          :         -41.80564893 Ha       -1137.58958741 eV
  | XC potential correction       :          53.74354502 Ha        1462.43626798 eV
  | Free-atom electrostatic energy:        -146.82263169 Ha       -3995.24708425 eV
  | Hartree energy correction     :           0.00000000 Ha           0.00000000 eV
  | vdW energy correction         :           0.00000000 Ha           0.00000000 eV
  | Entropy correction            :           0.00000000 Ha           0.00000000 eV
  | ---------------------------
  | Total energy                  :        -323.75168404 Ha       -8809.73155703 eV
  | Total energy, T -> 0          :        -323.75168404 Ha       -8809.73155703 eV  <-- do not rely on this value for anything but (periodic) metals
  | Electronic free energy        :        -323.75168404 Ha       -8809.73155703 eV

  Derived energy quantities:
  | Kinetic energy                :         320.53814870 Ha        8722.28681125 eV
  | Electrostatic energy          :        -602.48418381 Ha      -16394.42878087 eV
  | Energy correction for multipole
  | error in Hartree potential    :           0.00000000 Ha           0.00000000 eV
  | Sum of eigenvalues per atom                           :        -395.33316564 eV
  | Total energy (T->0) per atom                          :        -677.67165823 eV  <-- do not rely on this value for anything but (periodic) metals
  | Electronic free energy per atom                       :        -677.67165823 eV
  Initialize hartree_potential_storage
  Max. number of atoms included in rho_multipole:           13

  End scf initialization - timings             :  max(cpu_time)    wall_clock(cpu1)
  | Time for scf. initialization               :        1.156 s           1.158 s
  | Boundary condition initialization          :        0.000 s           0.000 s
  | Integration                                :        0.712 s           0.712 s
  | Solution of K.-S. eqns.                    :        0.004 s           0.004 s
  | Grid partitioning                          :        0.111 s           0.112 s
  | Preloading free-atom quantities on grid    :        0.002 s           0.002 s
  | Free-atom superposition energy             :        0.085 s           0.085 s
  | Total energy evaluation                    :        0.000 s           0.000 s

  Partial memory accounting:
  | Current value for overall tracked memory usage on task 0  :           0.165 MB
  | Peak value for overall tracked memory usage on task 0     :           0.676 MB after allocating wave
  | Largest tracked array allocation on task 0 so far         :           0.131 MB  when allocating H_times_psi
  Note:  These values currently only include a subset of arrays which are explicitly tracked.
  The "true" memory usage will be greater.
------------------------------------------------------------

------------------------------------------------------------
          Begin self-consistency iteration #    1

  Date     :  20200710, Time     :  144647.474
------------------------------------------------------------
  Evaluating new KS density.
  Integration grid: deviation in total charge (<rho> - N_e) =   2.842171E-14
  Pulay mixing of updated and previous charge densities.

  Evaluating partitioned Hartree potential by multipole expansion.
  | Analytical far-field extrapolation by fixed multipoles:
  | Hartree multipole sum: apparent total charge =  -0.925996E-04
  Summing up the Hartree potential.
  Time summed over all CPUs for potential: real work        0.282 s, elapsed        0.282 s
  | RMS charge density error from multipole expansion :   0.591275E-02

  Integrating Hamiltonian matrix: batch-based integration.
  Time summed over all CPUs for integration: real work        0.495 s, elapsed        0.495 s

  Updating Kohn-Sham eigenvalues and eigenvectors using ELSI and the ELPA eigensolver.
  Finished Cholesky decomposition
  | Time :     0.000 s
  Finished transformation to standard eigenproblem
  | Time :     0.000 s
  Starting LAPACK eigensolver
  Finished solving standard eigenproblem
  | Time :     0.001 s
  Finished back-transformation of eigenvectors
  | Time :     0.000 s

  Obtaining occupation numbers and chemical potential using ELSI.
  | Chemical potential (Fermi level):    -4.47431945eV
  Writing Kohn-Sham eigenvalues.

  State    Occupation    Eigenvalue [Ha]    Eigenvalue [eV]
      1       2.00000         -18.908362         -514.52270
      2       2.00000         -18.835291         -512.53433
      3       2.00000         -14.102590         -383.75101
      4       2.00000         -10.117873         -275.32133
      5       2.00000         -10.066247         -273.91653
      6       2.00000         -10.036168         -273.09802
      7       2.00000          -1.137353          -30.94896
      8       2.00000          -1.038264          -28.25260
      9       2.00000          -0.927873          -25.24870
     10       2.00000          -0.797450          -21.69971
     11       2.00000          -0.706516          -19.22528
     12       2.00000          -0.640080          -17.41746
     13       2.00000          -0.591266          -16.08917
     14       2.00000          -0.552165          -15.02517
     15       2.00000          -0.527530          -14.35481
     16       2.00000          -0.500687          -13.62440
     17       2.00000          -0.490758          -13.35421
     18       2.00000          -0.481677          -13.10711
     19       2.00000          -0.458894          -12.48714
     20       2.00000          -0.440906          -11.99765
     21       2.00000          -0.410901          -11.18120
     22       2.00000          -0.373490          -10.16318
     23       2.00000          -0.341152           -9.28321
     24       2.00000          -0.311906           -8.48739
     25       0.00000          -0.120650           -3.28306
     26       0.00000          -0.052277           -1.42254
     27       0.00000           0.005374            0.14622
     28       0.00000           0.011182            0.30429
     29       0.00000           0.027912            0.75951
     30       0.00000           0.045518            1.23862
     31       0.00000           0.051568            1.40323
     32       0.00000           0.068051            1.85175
     33       0.00000           0.084949            2.31157
     34       0.00000           0.096044            2.61348
     35       0.00000           0.141045            3.83804
     36       0.00000           0.160545            4.36864
     37       0.00000           0.175059            4.76359
     38       0.00000           0.231575            6.30149
     39       0.00000           0.249855            6.79891
     40       0.00000           0.265484            7.22419
     41       0.00000           0.287189            7.81481
     42       0.00000           0.309809            8.43032
     43       0.00000           0.330155            8.98397
     44       0.00000           0.332772            9.05520
     45       0.00000           0.350000            9.52398
     46       0.00000           0.397606           10.81941
     47       0.00000           0.399880           10.88129
     48       0.00000           0.428427           11.65810
     49       0.00000           0.464052           12.62751
     50       0.00000           0.522563           14.21967
     51       0.00000           0.554466           15.08780
     52       0.00000           0.558017           15.18442
     53       0.00000           0.597520           16.25935

  Highest occupied state (VBM) at     -8.48738540 eV
  | Occupation number:      2.00000000

  Lowest unoccupied state (CBM) at    -3.28306189 eV
  | Occupation number:      0.00000000

  Overall HOMO-LUMO gap:      5.20432352 eV.

  Total energy components:
  | Sum of eigenvalues            :        -185.59079810 Ha       -5050.18256670 eV
  | XC energy correction          :         -42.12960759 Ha       -1146.40495094 eV
  | XC potential correction       :          54.16475700 Ha        1473.89802909 eV
  | Free-atom electrostatic energy:        -146.82263169 Ha       -3995.24708425 eV
  | Hartree energy correction     :          -3.19343957 Ha         -86.89791204 eV
  | vdW energy correction         :           0.00000000 Ha           0.00000000 eV
  | Entropy correction            :           0.00000000 Ha           0.00000000 eV
  | ---------------------------
  | Total energy                  :        -323.57171995 Ha       -8804.83448484 eV
  | Total energy, T -> 0          :        -323.57171995 Ha       -8804.83448484 eV  <-- do not rely on this value for anything but (periodic) metals
  | Electronic free energy        :        -323.57171995 Ha       -8804.83448484 eV

  Derived energy quantities:
  | Kinetic energy                :         322.30974043 Ha        8770.49427486 eV
  | Electrostatic energy          :        -603.75185279 Ha      -16428.92380876 eV
  | Energy correction for multipole
  | error in Hartree potential    :           0.01185541 Ha           0.32260209 eV
  | Sum of eigenvalues per atom                           :        -388.47558205 eV
  | Total energy (T->0) per atom                          :        -677.29496037 eV  <-- do not rely on this value for anything but (periodic) metals
  | Electronic free energy per atom                       :        -677.29496037 eV

  Self-consistency convergence accuracy:
  | Change of charge density      :  0.5824E+00
  | Change of sum of eigenvalues  :  0.8915E+02 eV
  | Change of total energy        :  0.4897E+01 eV

  End self-consistency iteration #     1       :  max(cpu_time)    wall_clock(cpu1)
  | Time for this iteration                    :        1.191 s           1.192 s
  | Charge density update                      :        0.397 s           0.397 s
  | Density mixing                             :        0.005 s           0.006 s
  | Hartree multipole update                   :        0.009 s           0.009 s
  | Hartree multipole summation                :        0.283 s           0.283 s
  | Integration                                :        0.495 s           0.494 s
  | Solution of K.-S. eqns.                    :        0.002 s           0.003 s
  | Total energy evaluation                    :        0.000 s           0.000 s

  Partial memory accounting:
  | Current value for overall tracked memory usage on task 0  :           0.165 MB
  | Peak value for overall tracked memory usage on task 0     :           0.691 MB after allocating gradient_basis_wave
  | Largest tracked array allocation on task 0 so far         :           0.394 MB  when allocating gradient_basis_wave
  Note:  These values currently only include a subset of arrays which are explicitly tracked.
  The "true" memory usage will be greater.
------------------------------------------------------------

------------------------------------------------------------
          Begin self-consistency iteration #    2

  Date     :  20200710, Time     :  144648.667
------------------------------------------------------------
  Evaluating new KS density.
  Integration grid: deviation in total charge (<rho> - N_e) =   7.815970E-14
  Pulay mixing of updated and previous charge densities.

  Evaluating partitioned Hartree potential by multipole expansion.
  | Analytical far-field extrapolation by fixed multipoles:
  | Hartree multipole sum: apparent total charge =  -0.223375E-03
  Summing up the Hartree potential.
  Time summed over all CPUs for potential: real work        0.282 s, elapsed        0.282 s
  | RMS charge density error from multipole expansion :   0.139745E-01

  Integrating Hamiltonian matrix: batch-based integration.
  Time summed over all CPUs for integration: real work        0.495 s, elapsed        0.495 s

  Updating Kohn-Sham eigenvalues and eigenvectors using ELSI and the ELPA eigensolver.
  Finished Cholesky decomposition
  | Time :     0.000 s
  Finished transformation to standard eigenproblem
  | Time :     0.000 s
  Starting LAPACK eigensolver
  Finished solving standard eigenproblem
  | Time :     0.002 s
  Finished back-transformation of eigenvectors
  | Time :     0.000 s

  Obtaining occupation numbers and chemical potential using ELSI.
  | Chemical potential (Fermi level):    -3.39676992eV
  Highest occupied state (VBM) at     -6.63192133 eV
  | Occupation number:      2.00000000

  Lowest unoccupied state (CBM) at    -2.04937818 eV
  | Occupation number:      0.00000000

  Overall HOMO-LUMO gap:      4.58254315 eV.

  Checking to see if s.c.f. parameters should be adjusted.

  Total energy components:
  | Sum of eigenvalues            :        -182.16939678 Ha       -4957.08149989 eV
  | XC energy correction          :         -42.48060072 Ha       -1155.95596006 eV
  | XC potential correction       :          54.61949603 Ha        1486.27210777 eV
  | Free-atom electrostatic energy:        -146.82263169 Ha       -3995.24708425 eV
  | Hartree energy correction     :          -6.64162945 Ha        -180.72793269 eV
  | vdW energy correction         :           0.00000000 Ha           0.00000000 eV
  | Entropy correction            :           0.00000000 Ha           0.00000000 eV
  | ---------------------------
  | Total energy                  :        -323.49476261 Ha       -8802.74036911 eV
  | Total energy, T -> 0          :        -323.49476261 Ha       -8802.74036911 eV  <-- do not rely on this value for anything but (periodic) metals
  | Electronic free energy        :        -323.49476261 Ha       -8802.74036911 eV

  Derived energy quantities:
  | Kinetic energy                :         323.60361513 Ha        8805.70239693 eV
  | Electrostatic energy          :        -604.61777702 Ha      -16452.48680598 eV
  | Energy correction for multipole
  | error in Hartree potential    :           0.02586583 Ha           0.70384518 eV
  | Sum of eigenvalues per atom                           :        -381.31396153 eV
  | Total energy (T->0) per atom                          :        -677.13387455 eV  <-- do not rely on this value for anything but (periodic) metals
  | Electronic free energy per atom                       :        -677.13387455 eV

  Self-consistency convergence accuracy:
  | Change of charge density      :  0.3643E+00
  | Change of sum of eigenvalues  :  0.9310E+02 eV
  | Change of total energy        :  0.2094E+01 eV

  End self-consistency iteration #     2       :  max(cpu_time)    wall_clock(cpu1)
  | Time for this iteration                    :        1.185 s           1.186 s
  | Charge density update                      :        0.389 s           0.389 s
  | Density mixing                             :        0.007 s           0.007 s
  | Hartree multipole update                   :        0.009 s           0.009 s
  | Hartree multipole summation                :        0.283 s           0.283 s
  | Integration                                :        0.495 s           0.495 s
  | Solution of K.-S. eqns.                    :        0.002 s           0.003 s
  | Total energy evaluation                    :        0.000 s           0.000 s

  Partial memory accounting:
  | Current value for overall tracked memory usage on task 0  :           0.166 MB
  | Peak value for overall tracked memory usage on task 0     :           0.691 MB after allocating gradient_basis_wave
  | Largest tracked array allocation on task 0 so far         :           0.394 MB  when allocating gradient_basis_wave
  Note:  These values currently only include a subset of arrays which are explicitly tracked.
  The "true" memory usage will be greater.
------------------------------------------------------------

------------------------------------------------------------
          Begin self-consistency iteration #    3

  Date     :  20200710, Time     :  144649.854
------------------------------------------------------------
  Evaluating new KS density.
  Integration grid: deviation in total charge (<rho> - N_e) =   0.000000E+00
  Pulay mixing of updated and previous charge densities.

  Evaluating partitioned Hartree potential by multipole expansion.
  | Analytical far-field extrapolation by fixed multipoles:
  | Hartree multipole sum: apparent total charge =  -0.312466E-03
  Summing up the Hartree potential.
  Time summed over all CPUs for potential: real work        0.282 s, elapsed        0.282 s
  | RMS charge density error from multipole expansion :   0.219918E-01

  Integrating Hamiltonian matrix: batch-based integration.
  Time summed over all CPUs for integration: real work        0.502 s, elapsed        0.502 s

  Updating Kohn-Sham eigenvalues and eigenvectors using ELSI and the ELPA eigensolver.
  Finished Cholesky decomposition
  | Time :     0.000 s
  Finished transformation to standard eigenproblem
  | Time :     0.000 s
  Starting LAPACK eigensolver
  Finished solving standard eigenproblem
  | Time :     0.002 s
  Finished back-transformation of eigenvectors
  | Time :     0.000 s

  Obtaining occupation numbers and chemical potential using ELSI.
  | Chemical potential (Fermi level):    -2.83409560eV
  Highest occupied state (VBM) at     -5.99983586 eV
  | Occupation number:      2.00000000

  Lowest unoccupied state (CBM) at    -1.35129050 eV
  | Occupation number:      0.00000000

  Overall HOMO-LUMO gap:      4.64854536 eV.

  Total energy components:
  | Sum of eigenvalues            :        -180.85916731 Ha       -4921.42834197 eV
  | XC energy correction          :         -42.63459717 Ha       -1160.14641658 eV
  | XC potential correction       :          54.81577086 Ha        1491.61301759 eV
  | Free-atom electrostatic energy:        -146.82263169 Ha       -3995.24708425 eV
  | Hartree energy correction     :          -7.98152145 Ha        -217.18824896 eV
  | vdW energy correction         :           0.00000000 Ha           0.00000000 eV
  | Entropy correction            :           0.00000000 Ha           0.00000000 eV
  | ---------------------------
  | Total energy                  :        -323.48214675 Ha       -8802.39707418 eV
  | Total energy, T -> 0          :        -323.48214675 Ha       -8802.39707418 eV  <-- do not rely on this value for anything but (periodic) metals
  | Electronic free energy        :        -323.48214675 Ha       -8802.39707418 eV

  Derived energy quantities:
  | Kinetic energy                :         323.24803218 Ha        8796.02649241 eV
  | Electrostatic energy          :        -604.09558176 Ha      -16438.27715001 eV
  | Energy correction for multipole
  | error in Hartree potential    :           0.03637455 Ha           0.98980188 eV
  | Sum of eigenvalues per atom                           :        -378.57141092 eV
  | Total energy (T->0) per atom                          :        -677.10746724 eV  <-- do not rely on this value for anything but (periodic) metals
  | Electronic free energy per atom                       :        -677.10746724 eV

  Self-consistency convergence accuracy:
  | Change of charge density      :  0.2050E+00
  | Change of sum of eigenvalues  :  0.3565E+02 eV
  | Change of total energy        :  0.3433E+00 eV

  End self-consistency iteration #     3       :  max(cpu_time)    wall_clock(cpu1)
  | Time for this iteration                    :        1.186 s           1.194 s
  | Charge density update                      :        0.388 s           0.389 s
  | Density mixing                             :        0.008 s           0.008 s
  | Hartree multipole update                   :        0.009 s           0.009 s
  | Hartree multipole summation                :        0.283 s           0.283 s
  | Integration                                :        0.496 s           0.502 s
  | Solution of K.-S. eqns.                    :        0.002 s           0.002 s
  | Total energy evaluation                    :        0.000 s           0.000 s

  Partial memory accounting:
  | Current value for overall tracked memory usage on task 0  :           0.166 MB
  | Peak value for overall tracked memory usage on task 0     :           0.692 MB after allocating gradient_basis_wave
  | Largest tracked array allocation on task 0 so far         :           0.394 MB  when allocating gradient_basis_wave
  Note:  These values currently only include a subset of arrays which are explicitly tracked.
  The "true" memory usage will be greater.
------------------------------------------------------------

------------------------------------------------------------
          Begin self-consistency iteration #    4

  Date     :  20200710, Time     :  144651.048
------------------------------------------------------------
  Evaluating new KS density.
  Integration grid: deviation in total charge (<rho> - N_e) =  -2.131628E-14
  Pulay mixing of updated and previous charge densities.

  Evaluating partitioned Hartree potential by multipole expansion.
  | Analytical far-field extrapolation by fixed multipoles:
  | Hartree multipole sum: apparent total charge =  -0.341543E-03
  Summing up the Hartree potential.
  Time summed over all CPUs for potential: real work        0.284 s, elapsed        0.284 s
  | RMS charge density error from multipole expansion :   0.255475E-01

  Integrating Hamiltonian matrix: batch-based integration.
  Time summed over all CPUs for integration: real work        0.501 s, elapsed        0.501 s

  Updating Kohn-Sham eigenvalues and eigenvectors using ELSI and the ELPA eigensolver.
  Finished Cholesky decomposition
  | Time :     0.000 s
  Finished transformation to standard eigenproblem
  | Time :     0.000 s
  Starting LAPACK eigensolver
  Finished solving standard eigenproblem
  | Time :     0.001 s
  Finished back-transformation of eigenvectors
  | Time :     0.000 s

  Obtaining occupation numbers and chemical potential using ELSI.
  | Chemical potential (Fermi level):    -2.73935637eV
  Highest occupied state (VBM) at     -5.80582763 eV
  | Occupation number:      2.00000000

  Lowest unoccupied state (CBM) at    -1.26387474 eV
  | Occupation number:      0.00000000

  Overall HOMO-LUMO gap:      4.54195289 eV.

  Total energy components:
  | Sum of eigenvalues            :        -180.74922945 Ha       -4918.43678062 eV
  | XC energy correction          :         -42.67204986 Ha       -1161.16555627 eV
  | XC potential correction       :          54.86266332 Ha        1492.88902622 eV
  | Free-atom electrostatic energy:        -146.82263169 Ha       -3995.24708425 eV
  | Hartree energy correction     :          -8.09983232 Ha        -220.40765158 eV
  | vdW energy correction         :           0.00000000 Ha           0.00000000 eV
  | Entropy correction            :           0.00000000 Ha           0.00000000 eV
  | ---------------------------
  | Total energy                  :        -323.48108001 Ha       -8802.36804650 eV
  | Total energy, T -> 0          :        -323.48108001 Ha       -8802.36804650 eV  <-- do not rely on this value for anything but (periodic) metals
  | Electronic free energy        :        -323.48108001 Ha       -8802.36804650 eV

  Derived energy quantities:
  | Kinetic energy                :         322.84872523 Ha        8785.16079745 eV
  | Electrostatic energy          :        -603.65775537 Ha      -16426.36328768 eV
  | Energy correction for multipole
  | error in Hartree potential    :           0.04048999 Ha           1.10178877 eV
  | Sum of eigenvalues per atom                           :        -378.34129082 eV
  | Total energy (T->0) per atom                          :        -677.10523435 eV  <-- do not rely on this value for anything but (periodic) metals
  | Electronic free energy per atom                       :        -677.10523435 eV

  Self-consistency convergence accuracy:
  | Change of charge density      :  0.6842E-01
  | Change of sum of eigenvalues  :  0.2992E+01 eV
  | Change of total energy        :  0.2903E-01 eV

  End self-consistency iteration #     4       :  max(cpu_time)    wall_clock(cpu1)
  | Time for this iteration                    :        1.195 s           1.196 s
  | Charge density update                      :        0.389 s           0.389 s
  | Density mixing                             :        0.010 s           0.010 s
  | Hartree multipole update                   :        0.009 s           0.009 s
  | Hartree multipole summation                :        0.284 s           0.284 s
  | Integration                                :        0.501 s           0.501 s
  | Solution of K.-S. eqns.                    :        0.002 s           0.003 s
  | Total energy evaluation                    :        0.000 s           0.000 s

  Partial memory accounting:
  | Current value for overall tracked memory usage on task 0  :           0.166 MB
  | Peak value for overall tracked memory usage on task 0     :           0.692 MB after allocating gradient_basis_wave
  | Largest tracked array allocation on task 0 so far         :           0.394 MB  when allocating gradient_basis_wave
  Note:  These values currently only include a subset of arrays which are explicitly tracked.
  The "true" memory usage will be greater.
------------------------------------------------------------

------------------------------------------------------------
          Begin self-consistency iteration #    5

  Date     :  20200710, Time     :  144652.245
------------------------------------------------------------
  Evaluating new KS density.
  Integration grid: deviation in total charge (<rho> - N_e) =  -1.421085E-14
  Pulay mixing of updated and previous charge densities.

  Evaluating partitioned Hartree potential by multipole expansion.
  | Analytical far-field extrapolation by fixed multipoles:
  | Hartree multipole sum: apparent total charge =  -0.335994E-03
  Summing up the Hartree potential.
  Time summed over all CPUs for potential: real work        0.284 s, elapsed        0.284 s
  | RMS charge density error from multipole expansion :   0.253183E-01

  Integrating Hamiltonian matrix: batch-based integration.
  Time summed over all CPUs for integration: real work        0.497 s, elapsed        0.497 s

  Updating Kohn-Sham eigenvalues and eigenvectors using ELSI and the ELPA eigensolver.
  Finished Cholesky decomposition
  | Time :     0.000 s
  Finished transformation to standard eigenproblem
  | Time :     0.000 s
  Starting LAPACK eigensolver
  Finished solving standard eigenproblem
  | Time :     0.001 s
  Finished back-transformation of eigenvectors
  | Time :     0.000 s

  Obtaining occupation numbers and chemical potential using ELSI.
  | Chemical potential (Fermi level):    -2.78486674eV
  Highest occupied state (VBM) at     -5.90445373 eV
  | Occupation number:      2.00000000

  Lowest unoccupied state (CBM) at    -1.34635985 eV
  | Occupation number:      0.00000000

  Overall HOMO-LUMO gap:      4.55809387 eV.

  Total energy components:
  | Sum of eigenvalues            :        -180.92004768 Ha       -4923.08498106 eV
  | XC energy correction          :         -42.65033455 Ha       -1160.57465246 eV
  | XC potential correction       :          54.83449822 Ha        1492.12261497 eV
  | Free-atom electrostatic energy:        -146.82263169 Ha       -3995.24708425 eV
  | Hartree energy correction     :          -7.92227569 Ha        -215.57608988 eV
  | vdW energy correction         :           0.00000000 Ha           0.00000000 eV
  | Entropy correction            :           0.00000000 Ha           0.00000000 eV
  | ---------------------------
  | Total energy                  :        -323.48079138 Ha       -8802.36019269 eV
  | Total energy, T -> 0          :        -323.48079138 Ha       -8802.36019269 eV  <-- do not rely on this value for anything but (periodic) metals
  | Electronic free energy        :        -323.48079138 Ha       -8802.36019269 eV

  Derived energy quantities:
  | Kinetic energy                :         322.74854930 Ha        8782.43487173 eV
  | Electrostatic energy          :        -603.57900613 Ha      -16424.22041196 eV
  | Energy correction for multipole
  | error in Hartree potential    :           0.03989117 Ha           1.08549397 eV
  | Sum of eigenvalues per atom                           :        -378.69884470 eV
  | Total energy (T->0) per atom                          :        -677.10463021 eV  <-- do not rely on this value for anything but (periodic) metals
  | Electronic free energy per atom                       :        -677.10463021 eV

  Self-consistency convergence accuracy:
  | Change of charge density      :  0.2156E-01
  | Change of sum of eigenvalues  : -0.4648E+01 eV
  | Change of total energy        :  0.7854E-02 eV

  End self-consistency iteration #     5       :  max(cpu_time)    wall_clock(cpu1)
  | Time for this iteration                    :        1.193 s           1.193 s
  | Charge density update                      :        0.389 s           0.389 s
  | Density mixing                             :        0.011 s           0.011 s
  | Hartree multipole update                   :        0.009 s           0.009 s
  | Hartree multipole summation                :        0.284 s           0.284 s
  | Integration                                :        0.497 s           0.497 s
  | Solution of K.-S. eqns.                    :        0.002 s           0.003 s
  | Total energy evaluation                    :        0.000 s           0.000 s

  Partial memory accounting:
  | Current value for overall tracked memory usage on task 0  :           0.166 MB
  | Peak value for overall tracked memory usage on task 0     :           0.692 MB after allocating gradient_basis_wave
  | Largest tracked array allocation on task 0 so far         :           0.394 MB  when allocating gradient_basis_wave
  Note:  These values currently only include a subset of arrays which are explicitly tracked.
  The "true" memory usage will be greater.
------------------------------------------------------------

------------------------------------------------------------
          Begin self-consistency iteration #    6

  Date     :  20200710, Time     :  144653.441
------------------------------------------------------------
  Evaluating new KS density.
  Integration grid: deviation in total charge (<rho> - N_e) =   1.421085E-14
  Pulay mixing of updated and previous charge densities.

  Evaluating partitioned Hartree potential by multipole expansion.
  | Analytical far-field extrapolation by fixed multipoles:
  | Hartree multipole sum: apparent total charge =  -0.338229E-03
  Summing up the Hartree potential.
  Time summed over all CPUs for potential: real work        0.283 s, elapsed        0.283 s
  | RMS charge density error from multipole expansion :   0.257171E-01

  Integrating Hamiltonian matrix: batch-based integration.
  Time summed over all CPUs for integration: real work        0.500 s, elapsed        0.500 s

  Updating Kohn-Sham eigenvalues and eigenvectors using ELSI and the ELPA eigensolver.
  Finished Cholesky decomposition
  | Time :     0.000 s
  Finished transformation to standard eigenproblem
  | Time :     0.000 s
  Starting LAPACK eigensolver
  Finished solving standard eigenproblem
  | Time :     0.002 s
  Finished back-transformation of eigenvectors
  | Time :     0.000 s

  Obtaining occupation numbers and chemical potential using ELSI.
  | Chemical potential (Fermi level):    -2.78659806eV
  Highest occupied state (VBM) at     -5.88988633 eV
  | Occupation number:      2.00000000

  Lowest unoccupied state (CBM) at    -1.37215804 eV
  | Occupation number:      0.00000000

  Overall HOMO-LUMO gap:      4.51772829 eV.

  Total energy components:
  | Sum of eigenvalues            :        -180.94312014 Ha       -4923.71281472 eV
  | XC energy correction          :         -42.64761293 Ha       -1160.50059340 eV
  | XC potential correction       :          54.83092520 Ha        1492.02538810 eV
  | Free-atom electrostatic energy:        -146.82263169 Ha       -3995.24708425 eV
  | Hartree energy correction     :          -7.89829914 Ha        -214.92365468 eV
  | vdW energy correction         :           0.00000000 Ha           0.00000000 eV
  | Entropy correction            :           0.00000000 Ha           0.00000000 eV
  | ---------------------------
  | Total energy                  :        -323.48073869 Ha       -8802.35875896 eV
  | Total energy, T -> 0          :        -323.48073869 Ha       -8802.35875896 eV  <-- do not rely on this value for anything but (periodic) metals
  | Electronic free energy        :        -323.48073869 Ha       -8802.35875896 eV

  Derived energy quantities:
  | Kinetic energy                :         322.66506504 Ha        8780.16314950 eV
  | Electrostatic energy          :        -603.49819081 Ha      -16422.02131506 eV
  | Energy correction for multipole
  | error in Hartree potential    :           0.04016340 Ha           1.09290175 eV
  | Sum of eigenvalues per atom                           :        -378.74713959 eV
  | Total energy (T->0) per atom                          :        -677.10451992 eV  <-- do not rely on this value for anything but (periodic) metals
  | Electronic free energy per atom                       :        -677.10451992 eV

  Self-consistency convergence accuracy:
  | Change of charge density      :  0.1071E-01
  | Change of sum of eigenvalues  : -0.6278E+00 eV
  | Change of total energy        :  0.1434E-02 eV

  End self-consistency iteration #     6       :  max(cpu_time)    wall_clock(cpu1)
  | Time for this iteration                    :        1.200 s           1.200 s
  | Charge density update                      :        0.393 s           0.393 s
  | Density mixing                             :        0.012 s           0.012 s
  | Hartree multipole update                   :        0.009 s           0.009 s
  | Hartree multipole summation                :        0.283 s           0.283 s
  | Integration                                :        0.500 s           0.501 s
  | Solution of K.-S. eqns.                    :        0.002 s           0.002 s
  | Total energy evaluation                    :        0.000 s           0.000 s

  Partial memory accounting:
  | Current value for overall tracked memory usage on task 0  :           0.166 MB
  | Peak value for overall tracked memory usage on task 0     :           0.692 MB after allocating gradient_basis_wave
  | Largest tracked array allocation on task 0 so far         :           0.394 MB  when allocating gradient_basis_wave
  Note:  These values currently only include a subset of arrays which are explicitly tracked.
  The "true" memory usage will be greater.
------------------------------------------------------------

------------------------------------------------------------
          Begin self-consistency iteration #    7

  Date     :  20200710, Time     :  144654.642
------------------------------------------------------------
  Evaluating new KS density.
  Integration grid: deviation in total charge (<rho> - N_e) =   7.105427E-14
  Pulay mixing of updated and previous charge densities.

  Evaluating partitioned Hartree potential by multipole expansion.
  | Analytical far-field extrapolation by fixed multipoles:
  | Hartree multipole sum: apparent total charge =  -0.338800E-03
  Summing up the Hartree potential.
  Time summed over all CPUs for potential: real work        0.283 s, elapsed        0.283 s
  | RMS charge density error from multipole expansion :   0.258463E-01

  Integrating Hamiltonian matrix: batch-based integration.
  Time summed over all CPUs for integration: real work        0.496 s, elapsed        0.496 s

  Updating Kohn-Sham eigenvalues and eigenvectors using ELSI and the ELPA eigensolver.
  Finished Cholesky decomposition
  | Time :     0.000 s
  Finished transformation to standard eigenproblem
  | Time :     0.000 s
  Starting LAPACK eigensolver
  Finished solving standard eigenproblem
  | Time :     0.002 s
  Finished back-transformation of eigenvectors
  | Time :     0.000 s

[...]
  |   Hirshfeld dipole moment :      0.05764965
  |   Hirshfeld second moments:      0.00566585      -0.02999446      -0.01949277
  |                                 -0.02999446      -0.02074587       0.00992316
  |                                 -0.01949277       0.00992316      -0.01376325
  ----------------------------------------------------------------------
  | Atom    12: O
  |   Hirshfeld charge        :     -0.14313244
  |   Free atom volume        :     23.61338643
  |   Hirshfeld volume        :     20.87721280
  |   Hirshfeld dipole vector :      0.01181338       0.04194741      -0.00548604
  |   Hirshfeld dipole moment :      0.04392309
  |   Hirshfeld second moments:      0.09670219      -0.01802540       0.01606875
  |                                 -0.01802540       0.03169651       0.00673215
  |                                  0.01606875       0.00673215       0.05165579
  ----------------------------------------------------------------------
  | Atom    13: H
  |   Hirshfeld charge        :      0.16473620
  |   Free atom volume        :      9.95071624
  |   Hirshfeld volume        :      6.40833350
  |   Hirshfeld dipole vector :     -0.09516928       0.04761944      -0.02827612
  |   Hirshfeld dipole moment :      0.11011059
  |   Hirshfeld second moments:      0.11934165      -0.00347592       0.00225367
  |                                 -0.00347592       0.09097759       0.01915322
  |                                  0.00225367       0.01915322       0.10954760
  ----------------------------------------------------------------------


  Total energy components:
  | Sum of eigenvalues            :        -180.94114172 Ha       -4923.65897919 eV
  | XC energy correction          :         -42.64469371 Ha       -1160.42115749 eV
  | XC potential correction       :          54.82722178 Ha        1491.92461295 eV
  | Free-atom electrostatic energy:        -146.82263169 Ha       -3995.24708425 eV
  | Hartree energy correction     :          -7.89947015 Ha        -214.95551951 eV
  | vdW energy correction         :          -0.00331866 Ha          -0.09030540 eV
  | Entropy correction            :           0.00000000 Ha           0.00000000 eV
  | ---------------------------
  | Total energy                  :        -323.48403415 Ha       -8802.44843289 eV
  | Total energy, T -> 0          :        -323.48403415 Ha       -8802.44843289 eV  <-- do not rely on this value for anything but (periodic) metals
  | Electronic free energy        :        -323.48403415 Ha       -8802.44843289 eV

  Derived energy quantities:
  | Kinetic energy                :         322.62593320 Ha        8779.09831799 eV
  | Electrostatic energy          :        -603.46195498 Ha      -16421.03528799 eV
  | Energy correction for multipole
  | error in Hartree potential    :           0.04020056 Ha           1.09391283 eV
  | Sum of eigenvalues per atom                           :        -378.74299840 eV
  | Total energy (T->0) per atom                          :        -677.11141791 eV  <-- do not rely on this value for anything but (periodic) metals
  | Electronic free energy per atom                       :        -677.11141791 eV

  atomic forces [eV/Ang]:
  -----------------------
  atom #    1
   Hellmann-Feynman              :  0.325879E+00 -0.514175E-01  0.141426E+01
   Ionic forces                  :  0.000000E+00  0.000000E+00  0.000000E+00
   Multipole                     : -0.143511E+00  0.317071E+00 -0.256957E+00
   Pulay + GGA                   : -0.755448E+00  0.500918E-01 -0.152888E+01
   Van der Waals                 :  0.322860E-02  0.163106E-02 -0.133852E-02
   ----------------------------------------------------------------
   Total forces(   1)            : -0.569850E+00  0.317376E+00 -0.372910E+00
  atom #    2
   Hellmann-Feynman              :  0.354633E+00 -0.579966E-01  0.112248E+00
   Ionic forces                  :  0.000000E+00  0.000000E+00  0.000000E+00
   Multipole                     :  0.173941E+00  0.289656E-01 -0.367426E-01
   Pulay + GGA                   : -0.164010E+00  0.235015E-01 -0.209721E-01
   Van der Waals                 :  0.461270E-02 -0.386492E-02 -0.663252E-02
   ----------------------------------------------------------------
   Total forces(   2)            :  0.369177E+00 -0.939451E-02  0.479010E-01
  atom #    3
   Hellmann-Feynman              :  0.901712E+01  0.979601E+00 -0.539819E+01
   Ionic forces                  :  0.000000E+00  0.000000E+00  0.000000E+00
   Multipole                     : -0.340312E+00  0.167869E+00 -0.118489E+01
   Pulay + GGA                   : -0.838926E+01 -0.112190E+01  0.715812E+01
   Van der Waals                 :  0.449543E-02 -0.434732E-02 -0.909786E-02
   ----------------------------------------------------------------
   Total forces(   3)            :  0.292044E+00  0.212220E-01  0.565939E+00
  atom #    4
   Hellmann-Feynman              : -0.324124E-01  0.993511E-01 -0.396915E+00
   Ionic forces                  :  0.000000E+00  0.000000E+00  0.000000E+00
   Multipole                     : -0.626209E-01 -0.621502E-01 -0.677803E-01
   Pulay + GGA                   :  0.249684E+00  0.165166E+00 -0.694407E-01
   Van der Waals                 : -0.145490E-02  0.339259E-02  0.220133E-02
   ----------------------------------------------------------------
   Total forces(   4)            :  0.153196E+00  0.205760E+00 -0.531934E+00
  atom #    5
   Hellmann-Feynman              : -0.309376E+00  0.439961E-01 -0.101931E+00
   Ionic forces                  :  0.000000E+00  0.000000E+00  0.000000E+00
   Multipole                     : -0.793663E-01  0.366830E-01 -0.537424E-01
   Pulay + GGA                   :  0.203114E+00 -0.109595E+00 -0.303641E-01
   Van der Waals                 : -0.599287E-03 -0.545970E-02 -0.697022E-02
   ----------------------------------------------------------------
   Total forces(   5)            : -0.186227E+00 -0.343757E-01 -0.193007E+00
  atom #    6
   Hellmann-Feynman              :  0.190308E+00 -0.520555E+00  0.200115E+00
   Ionic forces                  :  0.000000E+00  0.000000E+00  0.000000E+00
   Multipole                     : -0.144499E+00  0.560616E+00  0.279790E+00
   Pulay + GGA                   :  0.246989E+00 -0.452017E+00 -0.380669E+00
   Van der Waals                 : -0.383081E-02  0.405871E-02 -0.300403E-02
   ----------------------------------------------------------------
   Total forces(   6)            :  0.288967E+00 -0.407897E+00  0.962317E-01
  atom #    7
   Hellmann-Feynman              : -0.257008E+00 -0.586002E-01 -0.262801E-01
   Ionic forces                  :  0.000000E+00  0.000000E+00  0.000000E+00
   Multipole                     : -0.116296E+00  0.505061E-01  0.266830E-01
   Pulay + GGA                   :  0.101547E+00  0.241906E-01  0.321461E-01
   Van der Waals                 : -0.306759E-02  0.127105E-03  0.680566E-02
   ----------------------------------------------------------------
   Total forces(   7)            : -0.274825E+00  0.162236E-01  0.393547E-01
  atom #    8
   Hellmann-Feynman              :  0.834116E-01 -0.978330E-02  0.155683E+00
   Ionic forces                  :  0.000000E+00  0.000000E+00  0.000000E+00
   Multipole                     :  0.111929E-01  0.647400E-01  0.122083E+00
   Pulay + GGA                   : -0.463636E-01 -0.453184E-01 -0.118710E+00
   Van der Waals                 : -0.332448E-02  0.110750E-01  0.477720E-03
   ----------------------------------------------------------------
   Total forces(   8)            :  0.449165E-01  0.207133E-01  0.159533E+00
  atom #    9
   Hellmann-Feynman              :  0.101678E+00  0.728143E-01 -0.173798E+00
   Ionic forces                  :  0.000000E+00  0.000000E+00  0.000000E+00
   Multipole                     :  0.186348E-01  0.132585E+00 -0.113271E-01
   Pulay + GGA                   : -0.270541E-01 -0.879449E-01  0.586366E-01
   Van der Waals                 : -0.286028E-03  0.686209E-02  0.840878E-02
   ----------------------------------------------------------------
   Total forces(   9)            :  0.929729E-01  0.124316E+00 -0.118080E+00
  atom #   10
   Hellmann-Feynman              :  0.277709E+01  0.495171E+01  0.244791E+01
   Ionic forces                  :  0.000000E+00  0.000000E+00  0.000000E+00
   Multipole                     :  0.542435E-01 -0.961581E-02  0.237306E+00
   Pulay + GGA                   : -0.964425E+00 -0.331461E+01 -0.449483E+00
   Van der Waals                 :  0.316668E-02 -0.129081E-01  0.933860E-03
   ----------------------------------------------------------------
   Total forces(  10)            :  0.187007E+01  0.161458E+01  0.223667E+01
  atom #   11
   Hellmann-Feynman              :  0.386088E+01 -0.240473E+01  0.141172E+02
   Ionic forces                  :  0.000000E+00  0.000000E+00  0.000000E+00
   Multipole                     :  0.776583E-02 -0.471160E+00  0.762626E+00
   Pulay + GGA                   : -0.282113E+01  0.334305E+01 -0.140969E+02
   Van der Waals                 : -0.124522E-03 -0.120890E-01  0.540799E-02
   ----------------------------------------------------------------
   Total forces(  11)            :  0.104739E+01  0.455077E+00  0.788425E+00
  atom #   12
   Hellmann-Feynman              : -0.100673E+01 -0.150081E+02 -0.277838E+01
   Ionic forces                  :  0.000000E+00  0.000000E+00  0.000000E+00
   Multipole                     : -0.806685E+00 -0.154137E+01 -0.100564E-01
   Pulay + GGA                   : -0.526034E+00  0.146359E+02  0.111483E+01
   Van der Waals                 :  0.599405E-04  0.813264E-02  0.329389E-02
   ----------------------------------------------------------------
   Total forces(  12)            : -0.233939E+01 -0.190542E+01 -0.167031E+01
  atom #   13
   Hellmann-Feynman              : -0.948380E+00 -0.192517E+00 -0.123379E+01
   Ionic forces                  :  0.000000E+00  0.000000E+00  0.000000E+00
   Multipole                     : -0.888428E-01  0.598554E-01 -0.142514E-01
   Pulay + GGA                   :  0.246832E+00 -0.287222E+00  0.196054E+00
   Van der Waals                 : -0.287572E-02  0.338982E-02 -0.486086E-03
   ----------------------------------------------------------------
   Total forces(  13)            : -0.793266E+00 -0.416494E+00 -0.105247E+01

  Timings for VdW correction (Tkatchenko-Scheffler 2009 or later):
  | CPU time:        0.091 s, Wall clock time:        0.091 s.
  Removing unitary transformations (pure translations, rotations) from forces on atoms.
  Atomic forces before filtering:
  | Net force on center of mass :  -0.482134E-02  0.168343E-02 -0.465886E-02 eV/A
  | Net torque on center of mass:  -0.172862E-03  0.128899E-02 -0.645739E-02 eV
  Atomic forces after filtering:
  | Net force on center of mass :  -0.892031E-16  0.000000E+00  0.178406E-15 eV/A
  | Net torque on center of mass:   0.873278E-15 -0.377634E-15 -0.944085E-15 eV

  Energy and forces in a compact form:
  | Total energy uncorrected      :         -0.880244843288992E+04 eV
  | Total energy corrected        :         -0.880244843288992E+04 eV  <-- do not rely on this value for anything but (periodic) metals
  | Electronic free energy        :         -0.880244843288992E+04 eV
  Total atomic forces (unitary forces cleaned) [eV/Ang]:
  |   1         -0.569486126521095E+00          0.317372536467042E+00         -0.372526754319686E+00
  |   2          0.369541083819374E+00         -0.915416409370099E-02          0.483321524659199E-01
  |   3          0.292469870019309E+00          0.211373576886749E-01          0.566301413299715E+00
  |   4          0.153828735470128E+00          0.205576136023255E+00         -0.531608357468907E+00
  |   5         -0.185967872680099E+00         -0.346048222967040E-01         -0.192659097727572E+00
  |   6          0.289017613696802E+00         -0.408025359886398E+00          0.966171005335019E-01
  |   7         -0.274781309962703E+00          0.158510347973165E-01          0.396929549450732E-01
  |   8          0.449192534837381E-01          0.206466570606733E-01          0.159934783064695E+00
  |   9          0.928445337122548E-01          0.124278458870090E+00         -0.117661645503773E+00
  |  10          0.187069176843458E+01          0.161447375062977E+01          0.223701110463523E+01
  |  11          0.104802293529320E+01          0.455014708919877E+00          0.788775135917786E+00
  |  12         -0.233855061944511E+01         -0.190567410507689E+01         -0.167001573625662E+01
  |  13         -0.792549865320388E+00         -0.416892189103005E+00         -0.105219305358536E+01

  ------------------------------------ 
  Start decomposition of the XC Energy 
  ------------------------------------ 
  X and C from original XC functional choice 
  Hartree-Fock Energy :          0.000000000 Ha              0.000000000 eV
  X Energy            :        -41.041944220 Ha          -1116.808124789 eV
  C Energy            :         -1.602749492 Ha            -43.613032696 eV
  Total XC Energy     :        -42.644693712 Ha          -1160.421157486 eV
  ------------------------------------ 
  LDA X and C from self-consistent density 
  X Energy LDA        :        -37.263620804 Ha          -1013.994713573 eV
  C Energy LDA        :         -3.139225501 Ha            -85.422672148 eV
  ------------------------------------ 
  End decomposition of the XC Energy 
  ------------------------------------ 

------------------------------------------------------------

------------------------------------------------------------------------------
  Final output of selected total energy values:

  The following output summarizes some interesting total energy values
  at the end of a run (AFTER all relaxation, molecular dynamics, etc.).

  | Total energy of the DFT / Hartree-Fock s.c.f. calculation      :          -8802.448432890 eV
  | Final zero-broadening corrected energy (caution - metals only) :          -8802.448432890 eV
  | For reference only, the value of 1 Hartree used in FHI-aims is :             27.211384500 eV

  Before relying on these values, please be sure to understand exactly which
  total energy value is referred to by a given number. Different objects may
  all carry the same name 'total energy'. Definitions:

  Total energy of the DFT / Hartree-Fock s.c.f. calculation:
  | Note that this energy does not include ANY quantities calculated after the
  | s.c.f. cycle, in particular not ANY RPA, MP2, etc. many-body perturbation terms.

  Final zero-broadening corrected energy:
  | For metallic systems only, a broadening of the occupation numbers at the Fermi
  | level can be extrapolated back to zero broadening by an electron-gas inspired
  | formula. For all systems that are not real metals, this value can be
  | meaningless and should be avoided.

------------------------------------------------------------------------------
  Methods described in the following list of references were used in this FHI-aims run.
  If you publish the results, please make sure to cite these reference if they apply.
  FHI-aims is an academic code, and for our developers (often, Ph.D. students
  and postdocs), scientific credit in the community is essential.
  Thank you for helping us!

  For any use of FHI-aims, please cite:

    Volker Blum, Ralf Gehrke, Felix Hanke, Paula Havu, Ville Havu,
    Xinguo Ren, Karsten Reuter, and Matthias Scheffler
    'Ab initio molecular simulations with numeric atom-centered orbitals'
    Computer Physics Communications 180, 2175-2196 (2009)
    http://dx.doi.org/10.1016/j.cpc.2009.06.022


  The scalable eigensolver library ELPA was used in your run.
  ELPA is essential especially for large systems on hundreds or thousands of CPUs.
  For ELPA, please cite:

    Andreas Marek, Volker Blum, Rainer Johanni, Ville Havu, Bruno Lang,
    Thomas Auckenthaler, Alexander Heinecke, Hans-Joachim Bungartz, and Hermann Lederer,
    'The ELPA Library - Scalable Parallel Eigenvalue Solutions
    for Electronic Structure Theory and Computational Science'
    The Journal of Physics: Condensed Matter 26, 213201 (2014).
    http://dx.doi.org/10.1088/0953-8984/26/21/213201


  The ELSI infrastructure was used in your run to solve the Kohn-Sham electronic structure.
  Please check out http://elsi-interchange.org to learn more.
  If scalability is important for your project, please acknowledge ELSI by citing:

    V. W-z. Yu, F. Corsetti, A. Garcia, W. P. Huhn, M. Jacquelin, W. Jia,
    B. Lange, L. Lin, J. Lu, W. Mi, A. Seifitokaldani, A. Vazquez-Mayagoitia,
    C. Yang, H. Yang, and V. Blum
    'ELSI: A unified software interface for Kohn-Sham electronic structure solvers'
    Computer Physics Communications 222, 267-285 (2018).
    http://dx.doi.org/10.1016/j.cpc.2017.09.007


  For the real-space grid partitioning and parallelization used in this calculation, please cite:

    Ville Havu, Volker Blum, Paula Havu, and Matthias Scheffler,
    'Efficient O(N) integration for all-electron electronic structure calculation'
    'using numerically tabulated basis functions'
    Journal of Computational Physics 228, 8367-8379 (2009).
    http://dx.doi.org/10.1016/j.jcp.2009.08.008

  Of course, there are many other important community references, e.g., those cited in the
  above references. Our list is limited to references that describe implementations in the
  FHI-aims code. The reason is purely practical (length of this list) - please credit others as well.

------------------------------------------------------------
          Leaving FHI-aims.
          Date     :  20200710, Time     :  144709.002

          Computational steps:
          | Number of self-consistency cycles          :           16
          | Number of SCF (re)initializations          :            1

          Detailed time accounting                     :  max(cpu_time)    wall_clock(cpu1)
          | Total time                                 :       22.801 s          22.846 s
          | Preparation time                           :        0.145 s           0.146 s
          | Boundary condition initalization           :        0.000 s           0.000 s
          | Grid partitioning                          :        0.111 s           0.112 s
          | Preloading free-atom quantities on grid    :        0.002 s           0.002 s
          | Free-atom superposition energy             :        0.085 s           0.085 s
          | Total time for integrations                :        8.660 s           8.673 s
          | Total time for solution of K.-S. equations :        0.037 s           0.042 s
          | Total time for density & force components  :        7.206 s           7.213 s
          | Total time for mixing                      :        0.217 s           0.219 s
          | Total time for Hartree multipole update    :        0.142 s           0.144 s
          | Total time for Hartree multipole sum       :        5.794 s           5.797 s
          | Total time for total energy evaluation     :        0.003 s           0.003 s
          | Total time for vdW correction              :        0.091 s           0.091 s

          Partial memory accounting:
          | Residual value for overall tracked memory usage across tasks :           0.000 MB (should be 0.000 MB)
          | Peak values for overall tracked memory usage (after allocating hessian_basis_wave):
          |   Minimum:        1.612 MB (on task 1)
          |   Maximum:        1.612 MB (on task 1)
          |   Average:        1.612 MB
          | Largest tracked array allocation (hessian_basis_wave):
          |   Minimum:        0.788 MB (on task 1)
          |   Maximum:        0.788 MB (on task 1)
          |   Average:        0.788 MB
          Note:  These values currently only include a subset of arrays which are explicitly tracked.
          The "true" memory usage will be greater.

          Have a nice day.
------------------------------------------------------------
