  MPI-parallelism will be employed.
------------------------------------------------------------
          Invoking FHI-aims ...
          Version 171221_1
          Compiled on 2019/09/09 at 14:39:39 on host puhti-login2.bullx.

          When using FHI-aims, please cite the following reference:

          Volker Blum, Ralf Gehrke, Felix Hanke, Paula Havu,
          Ville Havu, Xinguo Ren, Karsten Reuter, and Matthias Scheffler,
          'Ab Initio Molecular Simulations with Numeric Atom-Centered Orbitals',
          Computer Physics Communications 180, 2175-2196 (2009)

          For any questions about FHI-aims, please visit the aimsclub website
          with its forums and wiki. Contributions to both the forums and the
          wiki are warmly encouraged - they are for you, and everyone is welcome there.

------------------------------------------------------------



  Date     :  20200710, Time     :  151213.824
  Time zero on CPU 1             :   0.111910000000000E-01  s.
  Internal wall clock time zero  :           363625933.824  s.

  FHI-aims created a unique identifier for this run for later identification
  aims_uuid : 12D2E185-2BF9-4CDD-A0AE-33BC5F6BE2E8

  Using        1 parallel tasks.
  Task        0 on host r18c44.bullx reporting.

  Performing system and environment tests:
  | Environment variable OMP_NUM_THREADS correctly set to 1.
  | Stacksize not measured: no C compiler
  | Checking for scalapack...
  | Testing pdtran()...
  | All pdtran() tests passed.

  Obtaining array dimensions for all initial allocations:
  
  -----------------------------------------------------------------------
  Parsing control.in (first pass over file, find array dimensions only).
  The contents of control.in will be repeated verbatim below
  unless switched off by setting 'verbatim_writeout .false.' .
  in the first line of control.in .
  -----------------------------------------------------------------------
  
  #########################################################################################
  #
  #  Volker Blum, FHI 2009 : Test run input file control.in for simple H2O
  #
  #########################################################################################
  #
  #  Physical model
  #
    xc                 pbe
    vdw_correction_hirshfeld
    spin               none
    relativistic       none
    charge             0.
  #
  #  SCF convergence
  #
    occupation_type    gaussian 0.01
    mixer              pulay
      n_max_pulay        10
      charge_mix_param   0.2
    sc_accuracy_rho    1E-5
    sc_accuracy_eev    1E-3
    sc_accuracy_etot   1E-6
    sc_accuracy_forces 1E-4
    sc_iter_limit      100
  #
  #  Relaxation
  #
  #  relax_geometry   bfgs 1.e-3
  #
  ################################################################################
  #
  #  FHI-aims code project
  #  VB, Fritz-Haber Institut, 2009
  #
  #  Suggested "light" defaults for H atom (to be pasted into control.in file)
  #  Be sure to double-check any results obtained with these settings for post-processing,
  #  e.g., with the "tight" defaults and larger basis sets.
  #
  ################################################################################
    species        H
  #     global species definitions
      nucleus             1
      mass                1.00794
  #
      l_hartree           4
  #
      cut_pot             3.5  1.5  1.0
      basis_dep_cutoff    1e-4
  #
      radial_base         24 5.0
      radial_multiplier   1
      angular_grids       specified
        division   0.2421   50
        division   0.3822  110
        division   0.4799  194
        division   0.5341  302
  #      division   0.5626  434
  #      division   0.5922  590
  #      division   0.6542  770
  #      division   0.6868 1202
  #      outer_grid  770
        outer_grid  302
  ################################################################################
  #
  #  Definition of "minimal" basis
  #
  ################################################################################
  #     valence basis states
      valence      1  s   1.
  #     ion occupancy
      ion_occ      1  s   0.5
  ################################################################################
  #
  #  Suggested additional basis functions. For production calculations,
  #  uncomment them one after another (the most important basis functions are
  #  listed first).
  #
  #  Basis constructed for dimers: 0.5 A, 0.7 A, 1.0 A, 1.5 A, 2.5 A
  #
  ################################################################################
  #  "First tier" - improvements: -1014.90 meV to -62.69 meV
       hydro 2 s 2.1
       hydro 2 p 3.5
  #  "Second tier" - improvements: -12.89 meV to -1.83 meV
  #     hydro 1 s 0.85
  #     hydro 2 p 3.7
  #     hydro 2 s 1.2
  #     hydro 3 d 7
  #  "Third tier" - improvements: -0.25 meV to -0.12 meV
  #     hydro 4 f 11.2
  #     hydro 3 p 4.8
  #     hydro 4 d 9
  #     hydro 3 s 3.2
  ################################################################################
  #
  #  FHI-aims code project
  #  VB, Fritz-Haber Institut, 2009
  #
  #  Suggested "light" defaults for C atom (to be pasted into control.in file)
  #  Be sure to double-check any results obtained with these settings for post-processing,
  #  e.g., with the "tight" defaults and larger basis sets.
  #
  ################################################################################
    species        C
  #     global species definitions
      nucleus             6
      mass                12.0107
  #
      l_hartree           4
  #
      cut_pot             3.5  1.5  1.0
      basis_dep_cutoff    1e-4
  #
      radial_base         34 5.0
      radial_multiplier   1
      angular_grids specified
        division   0.3326   50
        division   0.5710  110
        division   0.7727  194
        division   0.8772  302
  #      division   0.9334  434
  #      division   0.9625  590
  #      division   0.9924  770
  #      division   1.0230  974
  #      division   1.4589 1202
  #     outer_grid  974
       outer_grid 302
  ################################################################################
  #
  #  Definition of "minimal" basis
  #
  ################################################################################
  #     valence basis states
      valence      2  s   2.
      valence      2  p   2.
  #     ion occupancy
      ion_occ      2  s   1.
      ion_occ      2  p   1.
  ################################################################################
  #
  #  Suggested additional basis functions. For production calculations,
  #  uncomment them one after another (the most important basis functions are
  #  listed first).
  #
  #  Constructed for dimers: 1.0 A, 1.25 A, 1.5 A, 2.0 A, 3.0 A
  #
  ################################################################################
  #  "First tier" - improvements: -1214.57 meV to -155.61 meV
       hydro 2 p 1.7
       hydro 3 d 6
       hydro 2 s 4.9
  #  "Second tier" - improvements: -67.75 meV to -5.23 meV
  #     hydro 4 f 9.8
  #     hydro 3 p 5.2
  #     hydro 3 s 4.3
  #     hydro 5 g 14.4
  #     hydro 3 d 6.2
  #  "Third tier" - improvements: -2.43 meV to -0.60 meV
  #     hydro 2 p 5.6
  #     hydro 2 s 1.4
  #     hydro 3 d 4.9
  #     hydro 4 f 11.2
  #  "Fourth tier" - improvements: -0.39 meV to -0.18 meV
  #     hydro 2 p 2.1
  #     hydro 5 g 16.4
  #     hydro 4 d 13.2
  #     hydro 3 s 13.6
  #     hydro 4 f 17.6
  #  Further basis functions - improvements: -0.08 meV and below
  #     hydro 3 s 2
  #     hydro 3 p 6
  #     hydro 4 d 20
  ################################################################################
  #
  #  FHI-aims code project
  #  VB, Fritz-Haber Institut, 2009
  #
  #  Suggested "light" defaults for N atom (to be pasted into control.in file)
  #  Be sure to double-check any results obtained with these settings for post-processing,
  #  e.g., with the "tight" defaults and larger basis sets.
  #
  ################################################################################
    species        N
  #     global species definitions
      nucleus             7
      mass                14.0067
  #
      l_hartree           4
  #
      cut_pot             3.5  1.5  1.0
      basis_dep_cutoff    1e-4
  #
      radial_base         35 5.0
      radial_multiplier   1
      angular_grids       specified
        division   0.2599   50
        division   0.4601  110
        division   0.5885  194
        division   0.6503  302
  #      division   0.6939  434
  #      division   0.7396  590
  #      division   0.7632  770
  #      division   0.8122  974
  #      division   1.1604 1202
  #      outer_grid  974
        outer_grid  302
  ################################################################################
  #
  #  Definition of "minimal" basis
  #
  ################################################################################
  #     valence basis states
      valence      2  s   2.
      valence      2  p   3.
  #     ion occupancy
      ion_occ      2  s   1.
      ion_occ      2  p   2.
  ################################################################################
  #
  #  Suggested additional basis functions. For production calculations,
  #  uncomment them one after another (the most important basis functions are
  #  listed first).
  #
  #  Constructed for dimers: 1.0 A, 1.1 A, 1.5 A, 2.0 A, 3.0 A
  #
  ################################################################################
  #  "First tier" - improvements: -1193.42 meV to -220.60 meV
       hydro 2 p 1.8
       hydro 3 d 6.8
       hydro 3 s 5.8
  #  "Second tier" - improvements: -80.21 meV to -6.86 meV
  #     hydro 4 f 10.8
  #     hydro 3 p 5.8
  #     hydro 1 s 0.8
  #     hydro 5 g 16
  #     hydro 3 d 4.9
  #  "Third tier" - improvements: -4.29 meV to -0.53 meV
  #     hydro 3 s 16
  #     ionic 2 p auto
  #     hydro 3 d 6.6
  #     hydro 4 f 11.6
  #  "Fourth tier" - improvements: -0.75 meV to -0.25 meV
  #     hydro 2 p 4.5
  #     hydro 2 s 2.4
  #     hydro 5 g 14.4
  #     hydro 4 d 14.4
  #     hydro 4 f 16.8
  # Further basis functions - -0.21 meV and below
  #     hydro 3 p 14.8
  #     hydro 3 s 4.4
  #     hydro 3 d 19.6
  #     hydro 5 g 12.8
  ################################################################################
  #
  #  FHI-aims code project
  #  VB, Fritz-Haber Institut, 2009
  #
  #  Suggested "light" defaults for O atom (to be pasted into control.in file)
  #  Be sure to double-check any results obtained with these settings for post-processing,
  #  e.g., with the "tight" defaults and larger basis sets.
  #
  ################################################################################
    species        O
  #     global species definitions
      nucleus             8
      mass                15.9994
  #
      l_hartree           4
  #
      cut_pot             3.5  1.5  1.0
      basis_dep_cutoff    1e-4
  #
      radial_base         36 5.0
      radial_multiplier   1
       angular_grids specified
        division   0.2659   50
        division   0.4451  110
        division   0.6052  194
        division   0.7543  302
  #      division   0.8014  434
  #      division   0.8507  590
  #      division   0.8762  770
  #      division   0.9023  974
  #      division   1.2339 1202
  #      outer_grid 974
        outer_grid 302
  ################################################################################
  #
  #  Definition of "minimal" basis
  #
  ################################################################################
  #     valence basis states
      valence      2  s   2.
      valence      2  p   4.
  #     ion occupancy
      ion_occ      2  s   1.
      ion_occ      2  p   3.
  ################################################################################
  #
  #  Suggested additional basis functions. For production calculations,
  #  uncomment them one after another (the most important basis functions are
  #  listed first).
  #
  #  Constructed for dimers: 1.0 A, 1.208 A, 1.5 A, 2.0 A, 3.0 A
  #
  ################################################################################
  #  "First tier" - improvements: -699.05 meV to -159.38 meV
       hydro 2 p 1.8
       hydro 3 d 7.6
       hydro 3 s 6.4
  #  "Second tier" - improvements: -49.91 meV to -5.39 meV
  #     hydro 4 f 11.6
  #     hydro 3 p 6.2
  #     hydro 3 d 5.6
  #     hydro 5 g 17.6
  #     hydro 1 s 0.75
  #  "Third tier" - improvements: -2.83 meV to -0.50 meV
  #     ionic 2 p auto
  #     hydro 4 f 10.8
  #     hydro 4 d 4.7
  #     hydro 2 s 6.8
  #  "Fourth tier" - improvements: -0.40 meV to -0.12 meV
  #     hydro 3 p 5
  #     hydro 3 s 3.3
  #     hydro 5 g 15.6
  #     hydro 4 f 17.6
  #     hydro 4 d 14
  # Further basis functions - -0.08 meV and below
  #     hydro 3 s 2.1
  #     hydro 4 d 11.6
  #     hydro 3 p 16
  #     hydro 2 s 17.2
  
  -----------------------------------------------------------------------
  Completed first pass over input file control.in .
  -----------------------------------------------------------------------
  
  
  -----------------------------------------------------------------------
  Parsing geometry.in (first pass over file, find array dimensions only).
  The contents of geometry.in will be repeated verbatim below
  unless switched off by setting 'verbatim_writeout .false.' .
  in the first line of geometry.in .
  -----------------------------------------------------------------------
  
  atom  0.00000 0.00000 0.00000 C
  atom  1.09300 0.00000 0.00000 H
  atom  -0.47961 0.00000 -1.41207 N
  atom  -0.85160 0.92491 -1.63116 H
  atom  0.30445 -0.21779 -2.02358 H
  atom  -0.49584 1.26211 0.72868 C
  atom  -1.58789 1.28919 0.74431 H
  atom  -0.13407 1.27425 1.75947 H
  atom  -0.13407 2.16087 0.22380 H
  atom  -0.39425 -1.28861 0.74398 C
  atom  -0.10189 -1.56493 1.88303 O
  atom  -1.10210 -2.13717 0.06896 O
  atom  -0.86416 -2.94213 0.55927 H
  
  -----------------------------------------------------------------------
  Completed first pass over input file geometry.in .
  -----------------------------------------------------------------------
  

  Basic array size parameters:
  | Number of species                 :        4
  | Number of atoms                   :       13
  | Max. basis fn. angular momentum   :        2
  | Max. atomic/ionic basis occupied n:        2
  | Max. number of basis fn. types    :        2
  | Max. radial fns per species/type  :        3
  | Max. logarithmic grid size        :     1301
  | Max. radial integration grid size :       36
  | Max. angular integration grid size:      302
  | Max. angular grid division number :        8
  | Radial grid for Hartree potential :     1301
  | Number of spin channels           :        1

------------------------------------------------------------
          Reading file control.in.
------------------------------------------------------------
  XC: Using PBE gradient-corrected functionals.
  Spin treatment: No spin polarisation.
  Non-relativistic treatment of kinetic energy.
  Charge =   0.000000E+00: Neutral system requested explicitly.
  Occupation type: Gaussian broadening, width =   0.100000E-01 eV.
  Using pulay charge density mixing.
  Pulay mixing - number of memorized iterations:   10
  Charge density mixing - mixing parameter:     0.2000
  Convergence accuracy of self-consistent charge density:  0.1000E-04
  Convergence accuracy of sum of eigenvalues:  0.1000E-02
  Convergence accuracy of total energy:  0.1000E-05
  Convergence accuracy of forces:  0.1000E-03
  Maximum number of s.-c. iterations  :   100
 
  Reading configuration options for species H                   .
  | Found nuclear charge :   1.0000
  | Found atomic mass :    1.00794000000000      amu
  | Found l_max for Hartree potential  :   4
  | Found cutoff potl. onset [A], width [A], scale factor :    3.50000    1.50000    1.00000
  | Threshold for basis-dependent cutoff potential is   0.100000E-03
  | Found data for basic radial integration grid :    24 points, outermost radius =    5.000 A
  | Found multiplier for basic radial grid :   1
  | Found angular grid specification: user-specified.
  | Specified grid contains     5 separate shells.
  | Check grid settings after all constraints further below.
  | Found free-atom valence shell :  1 s   1.000
  | No ionic wave fns used. Skipping ion_occ.
  | Found hydrogenic basis function :  2 s   2.100
  | Found hydrogenic basis function :  2 p   3.500
  Species H                   : Missing cutoff potential type.
  Defaulting to exp(1/x)/(1-x)^2 type cutoff potential.
  Species H : No 'logarithmic' tag. Using default grid for free atom:
  | Default logarithmic grid data [bohr] : 0.1000E-03 0.1000E+03 0.1012E+01
  Species H : On-site basis accuracy parameter (for Gram-Schmidt orthonormalisation) not specified.
  Using default value basis_acc =  0.1000000E-03.
  Species H                   : Using default innermost maximum threshold i_radial=  2 for radial functions.
  Species H                   : Default cutoff onset for free atom density etc. : 0.35000000E+01 AA.
  Species H                   : Basic radial grid will be enhanced according to radial_multiplier =   1, to contain    24 grid points.
 
  Reading configuration options for species C                   .
  | Found nuclear charge :   6.0000
  | Found atomic mass :    12.0107000000000      amu
  | Found l_max for Hartree potential  :   4
  | Found cutoff potl. onset [A], width [A], scale factor :    3.50000    1.50000    1.00000
  | Threshold for basis-dependent cutoff potential is   0.100000E-03
  | Found data for basic radial integration grid :    34 points, outermost radius =    5.000 A
  | Found multiplier for basic radial grid :   1
  | Found angular grid specification: user-specified.
  | Specified grid contains     5 separate shells.
  | Check grid settings after all constraints further below.
  | Found free-atom valence shell :  2 s   2.000
  | Found free-atom valence shell :  2 p   2.000
  | No ionic wave fns used. Skipping ion_occ.
  | No ionic wave fns used. Skipping ion_occ.
  | Found hydrogenic basis function :  2 p   1.700
  | Found hydrogenic basis function :  3 d   6.000
  | Found hydrogenic basis function :  2 s   4.900
  Species C                   : Missing cutoff potential type.
  Defaulting to exp(1/x)/(1-x)^2 type cutoff potential.
  Species C : No 'logarithmic' tag. Using default grid for free atom:
  | Default logarithmic grid data [bohr] : 0.1000E-03 0.1000E+03 0.1012E+01
  Species C : On-site basis accuracy parameter (for Gram-Schmidt orthonormalisation) not specified.
  Using default value basis_acc =  0.1000000E-03.
  Species C                   : Using default innermost maximum threshold i_radial=  2 for radial functions.
  Species C                   : Default cutoff onset for free atom density etc. : 0.35000000E+01 AA.
  Species C                   : Basic radial grid will be enhanced according to radial_multiplier =   1, to contain    34 grid points.
 
  Reading configuration options for species N                   .
  | Found nuclear charge :   7.0000
  | Found atomic mass :    14.0067000000000      amu
  | Found l_max for Hartree potential  :   4
  | Found cutoff potl. onset [A], width [A], scale factor :    3.50000    1.50000    1.00000
  | Threshold for basis-dependent cutoff potential is   0.100000E-03
  | Found data for basic radial integration grid :    35 points, outermost radius =    5.000 A
  | Found multiplier for basic radial grid :   1
  | Found angular grid specification: user-specified.
  | Specified grid contains     5 separate shells.
  | Check grid settings after all constraints further below.
  | Found free-atom valence shell :  2 s   2.000
  | Found free-atom valence shell :  2 p   3.000
  | No ionic wave fns used. Skipping ion_occ.
  | No ionic wave fns used. Skipping ion_occ.
  | Found hydrogenic basis function :  2 p   1.800
  | Found hydrogenic basis function :  3 d   6.800
  | Found hydrogenic basis function :  3 s   5.800
  Species N                   : Missing cutoff potential type.
  Defaulting to exp(1/x)/(1-x)^2 type cutoff potential.
  Species N : No 'logarithmic' tag. Using default grid for free atom:
  | Default logarithmic grid data [bohr] : 0.1000E-03 0.1000E+03 0.1012E+01
  Species N : On-site basis accuracy parameter (for Gram-Schmidt orthonormalisation) not specified.
  Using default value basis_acc =  0.1000000E-03.
  Species N                   : Using default innermost maximum threshold i_radial=  2 for radial functions.
  Species N                   : Default cutoff onset for free atom density etc. : 0.35000000E+01 AA.
  Species N                   : Basic radial grid will be enhanced according to radial_multiplier =   1, to contain    35 grid points.
 
  Reading configuration options for species O                   .
  | Found nuclear charge :   8.0000
  | Found atomic mass :    15.9994000000000      amu
  | Found l_max for Hartree potential  :   4
  | Found cutoff potl. onset [A], width [A], scale factor :    3.50000    1.50000    1.00000
  | Threshold for basis-dependent cutoff potential is   0.100000E-03
  | Found data for basic radial integration grid :    36 points, outermost radius =    5.000 A
  | Found multiplier for basic radial grid :   1
  | Found angular grid specification: user-specified.
  | Specified grid contains     5 separate shells.
  | Check grid settings after all constraints further below.
  | Found free-atom valence shell :  2 s   2.000
  | Found free-atom valence shell :  2 p   4.000
  | No ionic wave fns used. Skipping ion_occ.
  | No ionic wave fns used. Skipping ion_occ.
  | Found hydrogenic basis function :  2 p   1.800
  | Found hydrogenic basis function :  3 d   7.600
  | Found hydrogenic basis function :  3 s   6.400
  Species O                   : Missing cutoff potential type.
  Defaulting to exp(1/x)/(1-x)^2 type cutoff potential.
  Species O : No 'logarithmic' tag. Using default grid for free atom:
  | Default logarithmic grid data [bohr] : 0.1000E-03 0.1000E+03 0.1012E+01
  Species O : On-site basis accuracy parameter (for Gram-Schmidt orthonormalisation) not specified.
  Using default value basis_acc =  0.1000000E-03.
  Species O                   : Using default innermost maximum threshold i_radial=  2 for radial functions.
  Species O                   : Default cutoff onset for free atom density etc. : 0.35000000E+01 AA.
  Species O                   : Basic radial grid will be enhanced according to radial_multiplier =   1, to contain    36 grid points.
 
  Finished reading input file 'control.in'. Consistency checks are next.
 
  MPI_IN_PLACE appears to work with this MPI implementation.
  | Keeping use_mpi_in_place .true. (see manual).
  Target number of points in a grid batch is not set. Defaulting to  100
  Method for grid partitioning is not set. Defaulting to parallel hash+maxmin partitioning.
  Batch size limit is not set. Defaulting to    200
  By default, will store active basis functions for each batch.
  If in need of memory, prune_basis_once .false. can be used to disable this option.
  communication_type for Hartree potential was not specified.
  Defaulting to calc_hartree .
  Pulay mixer: Number of initial linear mixing iterations not set.
  Defaulting to    0 iterations.
  Work space size for distributed Hartree potential not set.
  Defaulting to   0.200000E+03 MB.
  Algorithm-dependent basis array size parameters:
  | n_max_pulay                         :       10
  Presetting      1001 iterations before the initial mixing cycle
  is restarted anyway using the sc_init_iter criterion / keyword.
  Presetting a factor      1.000 between actual scf density residual
  and density convergence criterion sc_accuracy_rho below which sc_init_iter
  takes no effect.
  Geometry relaxation not requested: no relaxation will be performed.
  Handling of forces: Unphysical translation and rotation will be removed from forces.
  No accuracy limit for integral partition fn. given. Defaulting to  0.1000E-14.
  No threshold value for u(r) in integrations given. Defaulting to  0.1000E-05.
  No accuracy for occupation numbers given. Defaulting to  0.1000E-12.
  No threshold value for occupation numbers given. Defaulting to  0.0000E+00.
  No accuracy for fermi level given. Defaulting to  0.1000E-19.
  Maximum # of iterations to find E_F not set. Defaulting to  200.
  Preferred method for the eigenvalue solver ('KS_method') not specified in 'control.in'.
  Defaulting to serial version, 'lapack_fast'.
  Will not use alltoall communication since running on < 1024 CPUs.
  Threshold for basis singularities not set.
  Default threshold for basis singularities:  0.1000E-04
  partition_type (choice of integration weights) for integrals was not specified.
  | Using a version of the partition function of Stratmann and coworkers ('stratmann_smoother').
  | At each grid point, the set of atoms used to build the partition table is smoothly restricted to
  | only those atoms whose free-atom density would be non-zero at that grid point.
  Partitioning for Hartree potential was not defined. Using partition_type for integrals.
  | Adjusted default value of keyword multip_moments_threshold to:       0.10000000E-11
  | This value may affect high angular momentum components of the Hartree potential in periodic systems.
  No q(lm)/r^(l+1) cutoff set for long-range Hartree potential.
  | Using default value of  0.100000E-09 .
  | Verify using the multipole_threshold keyword.
  Defaulting to new monopole extrapolation.
  Density update method: automatic selection selected.
------------------------------------------------------------


------------------------------------------------------------
          Reading geometry description geometry.in.
------------------------------------------------------------
  Input structure read successfully.
  The structure contains       13 atoms,  and a total of         48.000 electrons.

  Input geometry:
  | No unit cell requested.
  | Atomic structure:
  |       Atom                x [A]            y [A]            z [A]
  |    1: Species C             0.00000000        0.00000000        0.00000000
  |    2: Species H             1.09300000        0.00000000        0.00000000
  |    3: Species N            -0.47961000        0.00000000       -1.41207000
  |    4: Species H            -0.85160000        0.92491000       -1.63116000
  |    5: Species H             0.30445000       -0.21779000       -2.02358000
  |    6: Species C            -0.49584000        1.26211000        0.72868000
  |    7: Species H            -1.58789000        1.28919000        0.74431000
  |    8: Species H            -0.13407000        1.27425000        1.75947000
  |    9: Species H            -0.13407000        2.16087000        0.22380000
  |   10: Species C            -0.39425000       -1.28861000        0.74398000
  |   11: Species O            -0.10189000       -1.56493000        1.88303000
  |   12: Species O            -1.10210000       -2.13717000        0.06896000
  |   13: Species H            -0.86416000       -2.94213000        0.55927000
  |

  | The smallest distance between any two atoms is         0.97210079 AA.
  |
  | The first atom of this pair is atom number                     12 .
  | The second atom of this pair is atom number                    13 .

  Number of empty states per atom not set in control.in - providing a guess from actual geometry.
  | Total number of empty states used during s.c.f. cycle:       29
  If you use a very high smearing, use empty_states (per atom!) in control.in to increase this value.

  Structure-dependent array size parameters: 
  | Maximum number of distinct radial functions  :       21
  | Maximum number of basis functions            :      119
  | Number of Kohn-Sham states (occupied + empty):       53
------------------------------------------------------------

------------------------------------------------------------
          Preparing all fixed parts of the calculation.
------------------------------------------------------------
  Determining machine precision:
    2.225073858507201E-308
  Setting up grids for atomic and cluster calculations.

  Creating wave function, potential, and density for free atoms.

  Species: H

  List of occupied orbitals and eigenvalues:
    n    l              occ      energy [Ha]    energy [eV]
    1    0           1.0000        -0.237589        -6.4651


  Species: C

  List of occupied orbitals and eigenvalues:
    n    l              occ      energy [Ha]    energy [eV]
    1    0           2.0000       -10.038835      -273.1706
    2    0           2.0000        -0.502696       -13.6791
    2    1           2.0000        -0.191971        -5.2238


  Species: N

  List of occupied orbitals and eigenvalues:
    n    l              occ      energy [Ha]    energy [eV]
    1    0           2.0000       -14.128000      -384.4424
    2    0           2.0000        -0.681077       -18.5330
    2    1           3.0000        -0.259788        -7.0692


  Species: O

  List of occupied orbitals and eigenvalues:
    n    l              occ      energy [Ha]    energy [eV]
    1    0           2.0000       -18.898188      -514.2459
    2    0           2.0000        -0.878505       -23.9053
    2    1           4.0000        -0.331779        -9.0282

  Creating fixed part of basis set: Ionic, confined, hydrogenic.
 
  H                    hydrogenic:
 
  List of hydrogenic basis orbitals: 
    n    l      effective z      eigenvalue [eV]  inner max. [A]     outer max. [A]     outer radius [A]   
    2    0         2.100000       -14.9728           0.193243           1.317208           4.583499
    2    1         3.500000       -41.6669           0.602369           0.602369           3.723403
 
 
  C                    hydrogenic:
 
  List of hydrogenic basis orbitals: 
    n    l      effective z      eigenvalue [eV]  inner max. [A]     outer max. [A]     outer radius [A]   
    2    1         1.700000        -9.7616           1.230570           1.230570           4.607917
    3    2         6.000000       -54.4224           0.792453           0.792453           3.883070
    2    0         4.900000       -81.6679           0.082559           0.562749           3.078220
 
 
  N                    hydrogenic:
 
  List of hydrogenic basis orbitals: 
    n    l      effective z      eigenvalue [eV]  inner max. [A]     outer max. [A]     outer radius [A]   
    2    1         1.800000       -10.9749           1.177451           1.177451           4.573712
    3    2         6.800000       -69.9026           0.704619           0.704619           3.538137
    3    0         5.800000       -50.8545           0.067388           1.191934           4.250239
 
 
  O                    hydrogenic:
 
  List of hydrogenic basis orbitals: 
    n    l      effective z      eigenvalue [eV]  inner max. [A]     outer max. [A]     outer radius [A]   
    2    1         1.800000       -10.9749           1.164242           1.164242           4.578029
    3    2         7.600000       -87.3180           0.624125           0.624125           3.251020
    3    0         6.400000       -61.9207           0.061167           1.081902           4.001998
 

  Adding cutoff potential to free-atom effective potential.
  Creating atomic-like basis functions for current effective potential.

  Species H                   :

  List of atomic basis orbitals and eigenvalues:
    n    l      energy [Ha]    energy [eV]    outer radius [A]
    1    0        -0.237589        -6.4651       4.527807


  Species C                   :

  List of atomic basis orbitals and eigenvalues:
    n    l      energy [Ha]    energy [eV]    outer radius [A]
    1    0       -10.038835      -273.1706       1.934409
    2    0        -0.502696       -13.6791       4.496620
    2    1        -0.191971        -5.2238       4.551928


  Species N                   :

  List of atomic basis orbitals and eigenvalues:
    n    l      energy [Ha]    energy [eV]    outer radius [A]
    1    0       -14.128000      -384.4424       1.637919
    2    0        -0.681077       -18.5330       4.463241
    2    1        -0.259788        -7.0692       4.518138


  Species O                   :

  List of atomic basis orbitals and eigenvalues:
    n    l      energy [Ha]    energy [eV]    outer radius [A]
    1    0       -18.898188      -514.2459       1.415765
    2    0        -0.878505       -23.9053       4.413171
    2    1        -0.331779        -9.0282       4.522403

  Assembling full basis from fixed parts.
  | Species H :   atomic orbital   1 s accepted.
  | Species H :    hydro orbital   2 s accepted.
  | Species H :    hydro orbital   2 p accepted.
  | Species C :   atomic orbital   1 s accepted.
  | Species C :    hydro orbital   2 s accepted.
  | Species C :   atomic orbital   2 s accepted.
  | Species C :   atomic orbital   2 p accepted.
  | Species C :    hydro orbital   2 p accepted.
  | Species C :    hydro orbital   3 d accepted.
  | Species N :   atomic orbital   1 s accepted.
  | Species N :    hydro orbital   3 s accepted.
  | Species N :   atomic orbital   2 s accepted.
  | Species N :   atomic orbital   2 p accepted.
  | Species N :    hydro orbital   2 p accepted.
  | Species N :    hydro orbital   3 d accepted.
  | Species O :   atomic orbital   1 s accepted.
  | Species O :    hydro orbital   3 s accepted.
  | Species O :   atomic orbital   2 s accepted.
  | Species O :   atomic orbital   2 p accepted.
  | Species O :    hydro orbital   2 p accepted.
  | Species O :    hydro orbital   3 d accepted.
 
  Basis size parameters after reduction:
  | Total number of radial functions:       21
  | Total number of basis functions :      119
 
  Per-task memory consumption for arrays in subroutine allocate_ext:
  |           5.250512MB.
  Testing on-site integration grid accuracy.
  |  Species  Function  <phi|h_atom|phi> (log., in eV)  <phi|h_atom|phi> (rad., in eV)
           1        1                 -6.4663192853                 -6.4651273558
           1        2                 13.7111246313                 13.7170609718
           1        3                 25.2673269279                 25.2674696378
           2        4               -273.1705927641               -273.1705631568
           2        5                -10.7109323383                -10.7107120029
           2        6                 17.4381822266                 17.4352413244
           2        7                 -5.2255326521                 -5.2270484734
           2        8                  8.6835629259                  8.6603288385
           2        9                 27.4952418996                 27.4953360207
           3       10               -384.4424306495               -384.4423701208
           3       11                 12.5842251816                 12.5842222903
           3       12                -15.7264628251                -15.7264433455
           3       13                 -7.0696854293                 -7.0701769954
           3       14                  8.8090390882                  8.7901077751
           3       15                 35.9586762123                 35.9588528632
           4       16               -514.2458688638               -514.2457643834
           4       17                 15.1795651126                 15.1795290741
           4       18                -21.5359799773                -21.5360846186
           4       19                 -9.0283069236                 -9.0284644067
           4       20                  8.3027758564                  8.2834874195
           4       21                 45.8339351984                 45.8338762259

  Preparing densities etc. for the partition functions (integrals / Hartree potential).

  Preparations completed.
  max(cpu_time)          :      0.146 s.
  Wall clock time (cpu1) :      0.149 s.
------------------------------------------------------------

------------------------------------------------------------
          Begin self-consistency loop: Initialization.

          Date     :  20200710, Time     :  151213.986
------------------------------------------------------------

  Initializing index lists of integration centers etc. from given atomic structure:
  | Number of centers in hartree potential         :        13
  | Number of centers in hartree multipole         :        13
  | Number of centers in electron density summation:        13
  | Number of centers in basis integrals           :        13
  | Number of centers in integrals                 :        13
  | Number of centers in hamiltonian               :        13
  Partitioning the integration grid into batches with parallel hashing+maxmin method.
  | Number of batches:      950
  | Maximal batch size:     139
  | Minimal batch size:      66
  | Average batch size:      73.312
  | Standard deviation of batch sizes:      18.244

  Integration load balanced across     1 MPI tasks.
  Work distribution over tasks is as follows:
  Task     0 has      69646 integration points.
  Initializing partition tables, free-atom densities, potentials, etc. across the integration grid (initialize_grid_storage).
  | initialize_grid_storage: Actual outermost partition radius vs. multipole_radius_free
  | (-- VB: in principle, multipole_radius_free should be larger, hence this output)
  | Species        1: Confinement radius =              4.999999999999999 AA, multipole_radius_free =              5.054417573612229 AA.
  | Species        1: outer_partition_radius set to              5.054417573612229 AA .
  | Species        2: Confinement radius =              4.999999999999999 AA, multipole_radius_free =              5.019602836301480 AA.
  | Species        2: outer_partition_radius set to              5.019602836301480 AA .
  | Species        3: Confinement radius =              4.999999999999999 AA, multipole_radius_free =              5.043624274424571 AA.
  | Species        3: outer_partition_radius set to              5.043624274424571 AA .
  | Species        4: Confinement radius =              4.999999999999999 AA, multipole_radius_free =              5.048384829883283 AA.
  | Species        4: outer_partition_radius set to              5.048384829883283 AA .
  | Original list of interatomic distances with          13 x         13 entries is created.
  | Net number of integration points:    69646
  | of which are non-zero points    :    59625
  Renormalizing the initial density to the exact electron count on the 3D integration grid.
  | Initial density: Formal number of electrons (from input files) :      48.0000000000
  | Integrated number of electrons on 3D grid     :      47.9999839009
  | Charge integration error                      :      -0.0000160991
  | Normalization factor for density and gradient :       1.0000003354
  Obtaining max. number of non-zero basis functions in each batch (get_n_compute_maxes).
  | Maximal number of non-zero basis functions:      119 in task     0
  Selecting the method for density update.
  Loop over occupied states selected for charge density update.
  Allocating        0.050 MB for KS_eigenvector
  Integrating Hamiltonian matrix: batch-based integration.
  Time summed over all CPUs for integration: real work        0.489 s, elapsed        0.489 s
  Integrating overlap matrix.
  Time summed over all CPUs for integration: real work        0.209 s, elapsed        0.209 s

  Updating Kohn-Sham eigenvalues and eigenvectors using ELSI and the ELPA eigensolver.
  Overlap matrix is nonsingular
  | Lowest eigenvalue of overlap  :  0.45E-02
  | Highest eigenvalue of overlap :  0.61E+01
  Finished singularity check of overlap matrix
  | Time :     0.002 s
  Finished Cholesky decomposition
  | Time :     0.000 s
  Finished transformation to standard eigenproblem
  | Time :     0.000 s
  Starting LAPACK eigensolver
  Finished solving standard eigenproblem
  | Time :     0.002 s
  Finished back-transformation of eigenvectors
  | Time :     0.000 s

  Obtaining occupation numbers and chemical potential using ELSI.
  | Chemical potential (Fermi level):    -9.94617847eV
  Writing Kohn-Sham eigenvalues.

  State    Occupation    Eigenvalue [Ha]    Eigenvalue [eV]
      1       2.00000         -19.007490         -517.22011
      2       2.00000         -18.978179         -516.42252
      3       2.00000         -14.245787         -387.64759
      4       2.00000         -10.166884         -276.65499
      5       2.00000         -10.141238         -275.95712
      6       2.00000         -10.131888         -275.70270
      7       2.00000          -1.187465          -32.31257
      8       2.00000          -1.093090          -29.74450
      9       2.00000          -0.992035          -26.99465
     10       2.00000          -0.859875          -23.39839
     11       2.00000          -0.763385          -20.77276
     12       2.00000          -0.677712          -18.44148
     13       2.00000          -0.620785          -16.89242
     14       2.00000          -0.599906          -16.32427
     15       2.00000          -0.594490          -16.17690
     16       2.00000          -0.570944          -15.53618
     17       2.00000          -0.545377          -14.84047
     18       2.00000          -0.535474          -14.57099
     19       2.00000          -0.516986          -14.06790
     20       2.00000          -0.488783          -13.30046
     21       2.00000          -0.480112          -13.06450
     22       2.00000          -0.429337          -11.68284
     23       2.00000          -0.414463          -11.27811
     24       2.00000          -0.380285          -10.34807
     25       0.00000          -0.151043           -4.11010
     26       0.00000          -0.060603           -1.64909
     27       0.00000          -0.027975           -0.76124
     28       0.00000          -0.022624           -0.61563
     29       0.00000          -0.006477           -0.17624
     30       0.00000           0.007476            0.20344
     31       0.00000           0.020297            0.55231
     32       0.00000           0.027897            0.75912
     33       0.00000           0.035743            0.97260
     34       0.00000           0.081553            2.21917
     35       0.00000           0.095028            2.58585
     36       0.00000           0.134711            3.66568
     37       0.00000           0.149197            4.05985
     38       0.00000           0.195498            5.31978
     39       0.00000           0.207353            5.64236
     40       0.00000           0.236043            6.42306
     41       0.00000           0.252654            6.87506
     42       0.00000           0.265733            7.23096
     43       0.00000           0.297565            8.09715
     44       0.00000           0.309160            8.41267
     45       0.00000           0.341183            9.28406
     46       0.00000           0.360558            9.81129
     47       0.00000           0.380845           10.36332
     48       0.00000           0.404326           11.00226
     49       0.00000           0.446626           12.15331
     50       0.00000           0.484748           13.19067
     51       0.00000           0.496688           13.51557
     52       0.00000           0.514709           14.00593
     53       0.00000           0.551303           15.00172

  Highest occupied state (VBM) at    -10.34807116 eV
  | Occupation number:      2.00000000

  Lowest unoccupied state (CBM) at    -4.11009546 eV
  | Occupation number:      0.00000000

  Overall HOMO-LUMO gap:      6.23797570 eV.
  Calculating total energy contributions from superposition of free atom densities.

  Total energy components:
  | Sum of eigenvalues            :        -188.84393747 Ha       -5138.70499301 eV
  | XC energy correction          :         -41.78560015 Ha       -1137.04403220 eV
  | XC potential correction       :          53.71555530 Ha        1461.67462889 eV
  | Free-atom electrostatic energy:        -146.85650476 Ha       -3996.16881740 eV
  | Hartree energy correction     :           0.00000000 Ha           0.00000000 eV
  | vdW energy correction         :           0.00000000 Ha           0.00000000 eV
  | Entropy correction            :           0.00000000 Ha           0.00000000 eV
  | ---------------------------
  | Total energy                  :        -323.77048708 Ha       -8810.24321373 eV
  | Total energy, T -> 0          :        -323.77048708 Ha       -8810.24321373 eV  <-- do not rely on this value for anything but (periodic) metals
  | Electronic free energy        :        -323.77048708 Ha       -8810.24321373 eV

  Derived energy quantities:
  | Kinetic energy                :         320.48040432 Ha        8720.71550658 eV
  | Electrostatic energy          :        -602.46529125 Ha      -16393.91468811 eV
  | Energy correction for multipole
  | error in Hartree potential    :           0.00000000 Ha           0.00000000 eV
  | Sum of eigenvalues per atom                           :        -395.28499946 eV
  | Total energy (T->0) per atom                          :        -677.71101644 eV  <-- do not rely on this value for anything but (periodic) metals
  | Electronic free energy per atom                       :        -677.71101644 eV
  Initialize hartree_potential_storage
  Max. number of atoms included in rho_multipole:           13

  End scf initialization - timings             :  max(cpu_time)    wall_clock(cpu1)
  | Time for scf. initialization               :        1.140 s           1.141 s
  | Boundary condition initialization          :        0.000 s           0.000 s
  | Integration                                :        0.698 s           0.698 s
  | Solution of K.-S. eqns.                    :        0.004 s           0.005 s
  | Grid partitioning                          :        0.110 s           0.110 s
  | Preloading free-atom quantities on grid    :        0.002 s           0.003 s
  | Free-atom superposition energy             :        0.084 s           0.084 s
  | Total energy evaluation                    :        0.000 s           0.000 s

  Partial memory accounting:
  | Current value for overall tracked memory usage on task 0  :           0.165 MB
  | Peak value for overall tracked memory usage on task 0     :           0.678 MB after allocating wave
  | Largest tracked array allocation on task 0 so far         :           0.132 MB  when allocating H_times_psi
  Note:  These values currently only include a subset of arrays which are explicitly tracked.
  The "true" memory usage will be greater.
------------------------------------------------------------

------------------------------------------------------------
          Begin self-consistency iteration #    1

  Date     :  20200710, Time     :  151215.127
------------------------------------------------------------
  Evaluating new KS density.
  Integration grid: deviation in total charge (<rho> - N_e) =   7.105427E-15
  Pulay mixing of updated and previous charge densities.

  Evaluating partitioned Hartree potential by multipole expansion.
  | Analytical far-field extrapolation by fixed multipoles:
  | Hartree multipole sum: apparent total charge =  -0.123493E-03
  Summing up the Hartree potential.
  Time summed over all CPUs for potential: real work        0.284 s, elapsed        0.284 s
  | RMS charge density error from multipole expansion :   0.584933E-02

  Integrating Hamiltonian matrix: batch-based integration.
  Time summed over all CPUs for integration: real work        0.489 s, elapsed        0.489 s

  Updating Kohn-Sham eigenvalues and eigenvectors using ELSI and the ELPA eigensolver.
  Finished Cholesky decomposition
  | Time :     0.000 s
  Finished transformation to standard eigenproblem
  | Time :     0.000 s
  Starting LAPACK eigensolver
  Finished solving standard eigenproblem
  | Time :     0.002 s
  Finished back-transformation of eigenvectors
  | Time :     0.000 s

  Obtaining occupation numbers and chemical potential using ELSI.
  | Chemical potential (Fermi level):    -4.61007590eV
  Writing Kohn-Sham eigenvalues.

  State    Occupation    Eigenvalue [Ha]    Eigenvalue [eV]
      1       2.00000         -18.899974         -514.29446
      2       2.00000         -18.836846         -512.57665
      3       2.00000         -14.094406         -383.52829
      4       2.00000         -10.111637         -275.15163
      5       2.00000         -10.061931         -273.79906
      6       2.00000         -10.032584         -273.00050
      7       2.00000          -1.134908          -30.88243
      8       2.00000          -1.028321          -27.98205
      9       2.00000          -0.920836          -25.05722
     10       2.00000          -0.793580          -21.59442
     11       2.00000          -0.711553          -19.36235
     12       2.00000          -0.629652          -17.13371
     13       2.00000          -0.557519          -15.17087
     14       2.00000          -0.540313          -14.70267
     15       2.00000          -0.533240          -14.51021
     16       2.00000          -0.508320          -13.83210
     17       2.00000          -0.493304          -13.42350
     18       2.00000          -0.473623          -12.88793
     19       2.00000          -0.451797          -12.29402
     20       2.00000          -0.431200          -11.73356
     21       2.00000          -0.422107          -11.48610
     22       2.00000          -0.365234           -9.93853
     23       2.00000          -0.340631           -9.26904
     24       2.00000          -0.307247           -8.36062
     25       0.00000          -0.112178           -3.05251
     26       0.00000          -0.032430           -0.88247
     27       0.00000          -0.003558           -0.09682
     28       0.00000           0.014792            0.40251
     29       0.00000           0.025091            0.68277
     30       0.00000           0.046978            1.27834
     31       0.00000           0.058665            1.59635
     32       0.00000           0.068005            1.85051
     33       0.00000           0.076127            2.07153
     34       0.00000           0.123266            3.35424
     35       0.00000           0.137451            3.74024
     36       0.00000           0.163611            4.45207
     37       0.00000           0.178515            4.85764
     38       0.00000           0.223977            6.09473
     39       0.00000           0.236380            6.43222
     40       0.00000           0.273593            7.44484
     41       0.00000           0.289241            7.87064
     42       0.00000           0.301152            8.19476
     43       0.00000           0.335460            9.12832
     44       0.00000           0.348808            9.49154
     45       0.00000           0.384153           10.45332
     46       0.00000           0.401209           10.91745
     47       0.00000           0.419883           11.42558
     48       0.00000           0.441785           12.02159
     49       0.00000           0.483443           13.15517
     50       0.00000           0.521317           14.18576
     51       0.00000           0.534212           14.53665
     52       0.00000           0.549272           14.94645
     53       0.00000           0.591988           16.10880

  Highest occupied state (VBM) at     -8.36061571 eV
  | Occupation number:      2.00000000

  Lowest unoccupied state (CBM) at    -3.05251468 eV
  | Occupation number:      0.00000000

  Overall HOMO-LUMO gap:      5.30810103 eV.

  Total energy components:
  | Sum of eigenvalues            :        -185.36152942 Ha       -5043.94384849 eV
  | XC energy correction          :         -42.11506805 Ha       -1146.00930995 eV
  | XC potential correction       :          54.14412833 Ha        1473.33669440 eV
  | Free-atom electrostatic energy:        -146.85650476 Ha       -3996.16881740 eV
  | Hartree energy correction     :          -3.40051740 Ha         -92.53278641 eV
  | vdW energy correction         :           0.00000000 Ha           0.00000000 eV
  | Entropy correction            :           0.00000000 Ha           0.00000000 eV
  | ---------------------------
  | Total energy                  :        -323.58949130 Ha       -8805.31806784 eV
  | Total energy, T -> 0          :        -323.58949130 Ha       -8805.31806784 eV  <-- do not rely on this value for anything but (periodic) metals
  | Electronic free energy        :        -323.58949130 Ha       -8805.31806784 eV

  Derived energy quantities:
  | Kinetic energy                :         322.27346306 Ha        8769.50711759 eV
  | Electrostatic energy          :        -603.74788631 Ha      -16428.81587548 eV
  | Energy correction for multipole
  | error in Hartree potential    :           0.01226208 Ha           0.33366813 eV
  | Sum of eigenvalues per atom                           :        -387.99568065 eV
  | Total energy (T->0) per atom                          :        -677.33215906 eV  <-- do not rely on this value for anything but (periodic) metals
  | Electronic free energy per atom                       :        -677.33215906 eV

  Self-consistency convergence accuracy:
  | Change of charge density      :  0.5817E+00
  | Change of sum of eigenvalues  :  0.9476E+02 eV
  | Change of total energy        :  0.4925E+01 eV

  End self-consistency iteration #     1       :  max(cpu_time)    wall_clock(cpu1)
  | Time for this iteration                    :        1.179 s           1.182 s
  | Charge density update                      :        0.390 s           0.391 s
  | Density mixing                             :        0.005 s           0.006 s
  | Hartree multipole update                   :        0.009 s           0.008 s
  | Hartree multipole summation                :        0.284 s           0.285 s
  | Integration                                :        0.489 s           0.489 s
  | Solution of K.-S. eqns.                    :        0.002 s           0.003 s
  | Total energy evaluation                    :        0.000 s           0.000 s

  Partial memory accounting:
  | Current value for overall tracked memory usage on task 0  :           0.165 MB
  | Peak value for overall tracked memory usage on task 0     :           0.695 MB after allocating gradient_basis_wave
  | Largest tracked array allocation on task 0 so far         :           0.397 MB  when allocating gradient_basis_wave
  Note:  These values currently only include a subset of arrays which are explicitly tracked.
  The "true" memory usage will be greater.
------------------------------------------------------------

------------------------------------------------------------
          Begin self-consistency iteration #    2

  Date     :  20200710, Time     :  151216.312
------------------------------------------------------------
  Evaluating new KS density.
  Integration grid: deviation in total charge (<rho> - N_e) =   0.000000E+00
  Pulay mixing of updated and previous charge densities.

  Evaluating partitioned Hartree potential by multipole expansion.
  | Analytical far-field extrapolation by fixed multipoles:
  | Hartree multipole sum: apparent total charge =  -0.262381E-03
  Summing up the Hartree potential.
  Time summed over all CPUs for potential: real work        0.282 s, elapsed        0.282 s
  | RMS charge density error from multipole expansion :   0.139951E-01

  Integrating Hamiltonian matrix: batch-based integration.
  Time summed over all CPUs for integration: real work        0.489 s, elapsed        0.489 s

  Updating Kohn-Sham eigenvalues and eigenvectors using ELSI and the ELPA eigensolver.
  Finished Cholesky decomposition
  | Time :     0.000 s
  Finished transformation to standard eigenproblem
  | Time :     0.000 s
  Starting LAPACK eigensolver
  Finished solving standard eigenproblem
  | Time :     0.001 s
  Finished back-transformation of eigenvectors
  | Time :     0.000 s

  Obtaining occupation numbers and chemical potential using ELSI.
  | Chemical potential (Fermi level):    -3.20999914eV
  Highest occupied state (VBM) at     -6.32288690 eV
  | Occupation number:      2.00000000

  Lowest unoccupied state (CBM) at    -1.71805511 eV
  | Occupation number:      0.00000000

  Overall HOMO-LUMO gap:      4.60483180 eV.

  Checking to see if s.c.f. parameters should be adjusted.

  Total energy components:
  | Sum of eigenvalues            :        -181.67100278 Ha       -4943.51950909 eV
  | XC energy correction          :         -42.47950043 Ha       -1155.92601955 eV
  | XC potential correction       :          54.61664736 Ha        1486.19459134 eV
  | Free-atom electrostatic energy:        -146.85650476 Ha       -3996.16881740 eV
  | Hartree energy correction     :          -7.12084678 Ha        -193.76809963 eV
  | vdW energy correction         :           0.00000000 Ha           0.00000000 eV
  | Entropy correction            :           0.00000000 Ha           0.00000000 eV
  | ---------------------------
  | Total energy                  :        -323.51120739 Ha       -8803.18785433 eV
  | Total energy, T -> 0          :        -323.51120739 Ha       -8803.18785433 eV  <-- do not rely on this value for anything but (periodic) metals
  | Electronic free energy        :        -323.51120739 Ha       -8803.18785433 eV

  Derived energy quantities:
  | Kinetic energy                :         323.60899441 Ha        8805.84877460 eV
  | Electrostatic energy          :        -604.64070137 Ha      -16453.11060937 eV
  | Energy correction for multipole
  | error in Hartree potential    :           0.02729915 Ha           0.74284773 eV
  | Sum of eigenvalues per atom                           :        -380.27073147 eV
  | Total energy (T->0) per atom                          :        -677.16829649 eV  <-- do not rely on this value for anything but (periodic) metals
  | Electronic free energy per atom                       :        -677.16829649 eV

  Self-consistency convergence accuracy:
  | Change of charge density      :  0.3629E+00
  | Change of sum of eigenvalues  :  0.1004E+03 eV
  | Change of total energy        :  0.2130E+01 eV

  End self-consistency iteration #     2       :  max(cpu_time)    wall_clock(cpu1)
  | Time for this iteration                    :        1.171 s           1.172 s
  | Charge density update                      :        0.381 s           0.382 s
  | Density mixing                             :        0.007 s           0.007 s
  | Hartree multipole update                   :        0.009 s           0.009 s
  | Hartree multipole summation                :        0.283 s           0.282 s
  | Integration                                :        0.489 s           0.489 s
  | Solution of K.-S. eqns.                    :        0.002 s           0.002 s
  | Total energy evaluation                    :        0.000 s           0.000 s

  Partial memory accounting:
  | Current value for overall tracked memory usage on task 0  :           0.166 MB
  | Peak value for overall tracked memory usage on task 0     :           0.695 MB after allocating gradient_basis_wave
  | Largest tracked array allocation on task 0 so far         :           0.397 MB  when allocating gradient_basis_wave
  Note:  These values currently only include a subset of arrays which are explicitly tracked.
  The "true" memory usage will be greater.
------------------------------------------------------------

------------------------------------------------------------
          Begin self-consistency iteration #    3

  Date     :  20200710, Time     :  151217.485
------------------------------------------------------------
  Evaluating new KS density.
  Integration grid: deviation in total charge (<rho> - N_e) =   3.552714E-14
  Pulay mixing of updated and previous charge densities.

  Evaluating partitioned Hartree potential by multipole expansion.
  | Analytical far-field extrapolation by fixed multipoles:
  | Hartree multipole sum: apparent total charge =  -0.363181E-03
  Summing up the Hartree potential.
  Time summed over all CPUs for potential: real work        0.283 s, elapsed        0.283 s
  | RMS charge density error from multipole expansion :   0.223892E-01

  Integrating Hamiltonian matrix: batch-based integration.
  Time summed over all CPUs for integration: real work        0.492 s, elapsed        0.492 s

  Updating Kohn-Sham eigenvalues and eigenvectors using ELSI and the ELPA eigensolver.
  Finished Cholesky decomposition
  | Time :     0.000 s
  Finished transformation to standard eigenproblem
  | Time :     0.000 s
  Starting LAPACK eigensolver
  Finished solving standard eigenproblem
  | Time :     0.001 s
  Finished back-transformation of eigenvectors
  | Time :     0.000 s

  Obtaining occupation numbers and chemical potential using ELSI.
  | Chemical potential (Fermi level):    -2.46537585eV
  Highest occupied state (VBM) at     -5.65834973 eV
  | Occupation number:      2.00000000

  Lowest unoccupied state (CBM) at    -0.99076280 eV
  | Occupation number:      0.00000000

  Overall HOMO-LUMO gap:      4.66758694 eV.

  Total energy components:
  | Sum of eigenvalues            :        -180.37212937 Ha       -4908.17536540 eV
  | XC energy correction          :         -42.62897619 Ha       -1159.99346205 eV
  | XC potential correction       :          54.80707338 Ha        1491.37634710 eV
  | Free-atom electrostatic energy:        -146.85650476 Ha       -3996.16881740 eV
  | Hartree energy correction     :          -8.44820472 Ha        -229.88734688 eV
  | vdW energy correction         :           0.00000000 Ha           0.00000000 eV
  | Entropy correction            :           0.00000000 Ha           0.00000000 eV
  | ---------------------------
  | Total energy                  :        -323.49874166 Ha       -8802.84864464 eV
  | Total energy, T -> 0          :        -323.49874166 Ha       -8802.84864464 eV  <-- do not rely on this value for anything but (periodic) metals
  | Electronic free energy        :        -323.49874166 Ha       -8802.84864464 eV

  Derived energy quantities:
  | Kinetic energy                :         323.11612519 Ha        8792.43712073 eV
  | Electrostatic energy          :        -603.98589066 Ha      -16435.29230331 eV
  | Energy correction for multipole
  | error in Hartree potential    :           0.03915716 Ha           1.06552066 eV
  | Sum of eigenvalues per atom                           :        -377.55195118 eV
  | Total energy (T->0) per atom                          :        -677.14220343 eV  <-- do not rely on this value for anything but (periodic) metals
  | Electronic free energy per atom                       :        -677.14220343 eV

  Self-consistency convergence accuracy:
  | Change of charge density      :  0.2016E+00
  | Change of sum of eigenvalues  :  0.3534E+02 eV
  | Change of total energy        :  0.3392E+00 eV

  End self-consistency iteration #     3       :  max(cpu_time)    wall_clock(cpu1)
  | Time for this iteration                    :        1.176 s           1.177 s
  | Charge density update                      :        0.382 s           0.382 s
  | Density mixing                             :        0.008 s           0.009 s
  | Hartree multipole update                   :        0.009 s           0.009 s
  | Hartree multipole summation                :        0.283 s           0.283 s
  | Integration                                :        0.492 s           0.492 s
  | Solution of K.-S. eqns.                    :        0.002 s           0.002 s
  | Total energy evaluation                    :        0.000 s           0.000 s

  Partial memory accounting:
  | Current value for overall tracked memory usage on task 0  :           0.166 MB
  | Peak value for overall tracked memory usage on task 0     :           0.695 MB after allocating gradient_basis_wave
  | Largest tracked array allocation on task 0 so far         :           0.397 MB  when allocating gradient_basis_wave
  Note:  These values currently only include a subset of arrays which are explicitly tracked.
  The "true" memory usage will be greater.
------------------------------------------------------------

------------------------------------------------------------
          Begin self-consistency iteration #    4

  Date     :  20200710, Time     :  151218.663
------------------------------------------------------------
  Evaluating new KS density.
  Integration grid: deviation in total charge (<rho> - N_e) =   4.973799E-14
  Pulay mixing of updated and previous charge densities.

  Evaluating partitioned Hartree potential by multipole expansion.
  | Analytical far-field extrapolation by fixed multipoles:
  | Hartree multipole sum: apparent total charge =  -0.393510E-03
  Summing up the Hartree potential.
  Time summed over all CPUs for potential: real work        0.283 s, elapsed        0.283 s
  | RMS charge density error from multipole expansion :   0.254748E-01

  Integrating Hamiltonian matrix: batch-based integration.
  Time summed over all CPUs for integration: real work        0.490 s, elapsed        0.490 s

  Updating Kohn-Sham eigenvalues and eigenvectors using ELSI and the ELPA eigensolver.
  Finished Cholesky decomposition
  | Time :     0.000 s
  Finished transformation to standard eigenproblem
  | Time :     0.000 s
  Starting LAPACK eigensolver
  Finished solving standard eigenproblem
  | Time :     0.002 s
  Finished back-transformation of eigenvectors
  | Time :     0.000 s

  Obtaining occupation numbers and chemical potential using ELSI.
  | Chemical potential (Fermi level):    -2.37823688eV
  Highest occupied state (VBM) at     -5.46900736 eV
  | Occupation number:      2.00000000

  Lowest unoccupied state (CBM) at    -0.91499398 eV
  | Occupation number:      0.00000000

  Overall HOMO-LUMO gap:      4.55401338 eV.

  Total energy components:
  | Sum of eigenvalues            :        -180.21182936 Ha       -4903.81338014 eV
  | XC energy correction          :         -42.66490642 Ha       -1160.97117320 eV
  | XC potential correction       :          54.85246657 Ha        1492.61155872 eV
  | Free-atom electrostatic energy:        -146.85650476 Ha       -3996.16881740 eV
  | Hartree energy correction     :          -8.61723365 Ha        -234.48685819 eV
  | vdW energy correction         :           0.00000000 Ha           0.00000000 eV
  | Entropy correction            :           0.00000000 Ha           0.00000000 eV
  | ---------------------------
  | Total energy                  :        -323.49800762 Ha       -8802.82867022 eV
  | Total energy, T -> 0          :        -323.49800762 Ha       -8802.82867022 eV  <-- do not rely on this value for anything but (periodic) metals
  | Electronic free energy        :        -323.49800762 Ha       -8802.82867022 eV

  Derived energy quantities:
  | Kinetic energy                :         322.78582196 Ha        8783.44911242 eV
  | Electrostatic energy          :        -603.61892315 Ha      -16425.30660943 eV
  | Energy correction for multipole
  | error in Hartree potential    :           0.04312284 Ha           1.17343213 eV
  | Sum of eigenvalues per atom                           :        -377.21641386 eV
  | Total energy (T->0) per atom                          :        -677.14066694 eV  <-- do not rely on this value for anything but (periodic) metals
  | Electronic free energy per atom                       :        -677.14066694 eV

  Self-consistency convergence accuracy:
  | Change of charge density      :  0.5738E-01
  | Change of sum of eigenvalues  :  0.4362E+01 eV
  | Change of total energy        :  0.1997E-01 eV

  End self-consistency iteration #     4       :  max(cpu_time)    wall_clock(cpu1)
  | Time for this iteration                    :        1.177 s           1.178 s
  | Charge density update                      :        0.383 s           0.383 s
  | Density mixing                             :        0.010 s           0.010 s
  | Hartree multipole update                   :        0.009 s           0.009 s
  | Hartree multipole summation                :        0.283 s           0.283 s
  | Integration                                :        0.490 s           0.490 s
  | Solution of K.-S. eqns.                    :        0.002 s           0.002 s
  | Total energy evaluation                    :        0.000 s           0.000 s

  Partial memory accounting:
  | Current value for overall tracked memory usage on task 0  :           0.166 MB
  | Peak value for overall tracked memory usage on task 0     :           0.696 MB after allocating gradient_basis_wave
  | Largest tracked array allocation on task 0 so far         :           0.397 MB  when allocating gradient_basis_wave
  Note:  These values currently only include a subset of arrays which are explicitly tracked.
  The "true" memory usage will be greater.
------------------------------------------------------------

------------------------------------------------------------
          Begin self-consistency iteration #    5

  Date     :  20200710, Time     :  151219.841
------------------------------------------------------------
  Evaluating new KS density.
  Integration grid: deviation in total charge (<rho> - N_e) =  -2.842171E-14
  Pulay mixing of updated and previous charge densities.

  Evaluating partitioned Hartree potential by multipole expansion.
  | Analytical far-field extrapolation by fixed multipoles:
  | Hartree multipole sum: apparent total charge =  -0.387672E-03
  Summing up the Hartree potential.
  Time summed over all CPUs for potential: real work        0.282 s, elapsed        0.282 s
  | RMS charge density error from multipole expansion :   0.252241E-01

  Integrating Hamiltonian matrix: batch-based integration.
  Time summed over all CPUs for integration: real work        0.489 s, elapsed        0.489 s

  Updating Kohn-Sham eigenvalues and eigenvectors using ELSI and the ELPA eigensolver.
  Finished Cholesky decomposition
  | Time :     0.000 s
  Finished transformation to standard eigenproblem
  | Time :     0.000 s
  Starting LAPACK eigensolver
  Finished solving standard eigenproblem
  | Time :     0.001 s
  Finished back-transformation of eigenvectors
  | Time :     0.000 s

  Obtaining occupation numbers and chemical potential using ELSI.
  | Chemical potential (Fermi level):    -2.44924346eV
  Highest occupied state (VBM) at     -5.55484506 eV
  | Occupation number:      2.00000000

  Lowest unoccupied state (CBM) at    -0.99540091 eV
  | Occupation number:      0.00000000

  Overall HOMO-LUMO gap:      4.55944414 eV.

  Total energy components:
  | Sum of eigenvalues            :        -180.39899238 Ha       -4908.90634498 eV
  | XC energy correction          :         -42.64230321 Ha       -1160.35610872 eV
  | XC potential correction       :          54.82314643 Ha        1491.81371699 eV
  | Free-atom electrostatic energy:        -146.85650476 Ha       -3996.16881740 eV
  | Hartree energy correction     :          -8.42305546 Ha        -229.20300084 eV
  | vdW energy correction         :           0.00000000 Ha           0.00000000 eV
  | Entropy correction            :           0.00000000 Ha           0.00000000 eV
  | ---------------------------
  | Total energy                  :        -323.49770939 Ha       -8802.82055495 eV
  | Total energy, T -> 0          :        -323.49770939 Ha       -8802.82055495 eV  <-- do not rely on this value for anything but (periodic) metals
  | Electronic free energy        :        -323.49770939 Ha       -8802.82055495 eV

  Derived energy quantities:
  | Kinetic energy                :         322.68582264 Ha        8780.72799253 eV
  | Electrostatic energy          :        -603.54122881 Ha      -16423.19243876 eV
  | Energy correction for multipole
  | error in Hartree potential    :           0.04250648 Ha           1.15666026 eV
  | Sum of eigenvalues per atom                           :        -377.60818038 eV
  | Total energy (T->0) per atom                          :        -677.14004269 eV  <-- do not rely on this value for anything but (periodic) metals
  | Electronic free energy per atom                       :        -677.14004269 eV

  Self-consistency convergence accuracy:
  | Change of charge density      :  0.2036E-01
  | Change of sum of eigenvalues  : -0.5093E+01 eV
  | Change of total energy        :  0.8115E-02 eV

  End self-consistency iteration #     5       :  max(cpu_time)    wall_clock(cpu1)
  | Time for this iteration                    :        1.176 s           1.178 s
  | Charge density update                      :        0.383 s           0.383 s
  | Density mixing                             :        0.011 s           0.011 s
  | Hartree multipole update                   :        0.009 s           0.009 s
  | Hartree multipole summation                :        0.283 s           0.282 s
  | Integration                                :        0.489 s           0.490 s
  | Solution of K.-S. eqns.                    :        0.002 s           0.002 s
  | Total energy evaluation                    :        0.000 s           0.000 s

  Partial memory accounting:
  | Current value for overall tracked memory usage on task 0  :           0.166 MB
  | Peak value for overall tracked memory usage on task 0     :           0.696 MB after allocating gradient_basis_wave
  | Largest tracked array allocation on task 0 so far         :           0.397 MB  when allocating gradient_basis_wave
  Note:  These values currently only include a subset of arrays which are explicitly tracked.
  The "true" memory usage will be greater.
------------------------------------------------------------

------------------------------------------------------------
          Begin self-consistency iteration #    6

  Date     :  20200710, Time     :  151221.020
------------------------------------------------------------
  Evaluating new KS density.
  Integration grid: deviation in total charge (<rho> - N_e) =   1.421085E-14
  Pulay mixing of updated and previous charge densities.

  Evaluating partitioned Hartree potential by multipole expansion.
  | Analytical far-field extrapolation by fixed multipoles:
  | Hartree multipole sum: apparent total charge =  -0.390149E-03
  Summing up the Hartree potential.
  Time summed over all CPUs for potential: real work        0.283 s, elapsed        0.283 s
  | RMS charge density error from multipole expansion :   0.255659E-01

  Integrating Hamiltonian matrix: batch-based integration.
  Time summed over all CPUs for integration: real work        0.490 s, elapsed        0.490 s

  Updating Kohn-Sham eigenvalues and eigenvectors using ELSI and the ELPA eigensolver.
  Finished Cholesky decomposition
  | Time :     0.000 s
  Finished transformation to standard eigenproblem
  | Time :     0.000 s
  Starting LAPACK eigensolver
  Finished solving standard eigenproblem
  | Time :     0.001 s
  Finished back-transformation of eigenvectors
  | Time :     0.000 s

  Obtaining occupation numbers and chemical potential using ELSI.
  | Chemical potential (Fermi level):    -2.46247931eV
  Highest occupied state (VBM) at     -5.53975154 eV
  | Occupation number:      2.00000000

  Lowest unoccupied state (CBM) at    -1.01493505 eV
  | Occupation number:      0.00000000

  Overall HOMO-LUMO gap:      4.52481649 eV.

  Total energy components:
  | Sum of eigenvalues            :        -180.42396968 Ha       -4909.58601210 eV
  | XC energy correction          :         -42.63777528 Ha       -1160.23289743 eV
  | XC potential correction       :          54.81726370 Ha        1491.65363979 eV
  | Free-atom electrostatic energy:        -146.85650476 Ha       -3996.16881740 eV
  | Hartree energy correction     :          -8.39666683 Ha        -228.48492967 eV
  | vdW energy correction         :           0.00000000 Ha           0.00000000 eV
  | Entropy correction            :           0.00000000 Ha           0.00000000 eV
  | ---------------------------
  | Total energy                  :        -323.49765286 Ha       -8802.81901680 eV
  | Total energy, T -> 0          :        -323.49765286 Ha       -8802.81901680 eV  <-- do not rely on this value for anything but (periodic) metals
  | Electronic free energy        :        -323.49765286 Ha       -8802.81901680 eV

  Derived energy quantities:
  | Kinetic energy                :         322.60032698 Ha        8778.40153725 eV
  | Electrostatic energy          :        -603.46020456 Ha      -16420.98765663 eV
  | Energy correction for multipole
  | error in Hartree potential    :           0.04275551 Ha           1.16343671 eV
  | Sum of eigenvalues per atom                           :        -377.66046247 eV
  | Total energy (T->0) per atom                          :        -677.13992437 eV  <-- do not rely on this value for anything but (periodic) metals
  | Electronic free energy per atom                       :        -677.13992437 eV

  Self-consistency convergence accuracy:
  | Change of charge density      :  0.1013E-01
  | Change of sum of eigenvalues  : -0.6797E+00 eV
  | Change of total energy        :  0.1538E-02 eV

  End self-consistency iteration #     6       :  max(cpu_time)    wall_clock(cpu1)
  | Time for this iteration                    :        1.179 s           1.186 s
  | Charge density update                      :        0.382 s           0.389 s
  | Density mixing                             :        0.012 s           0.012 s
  | Hartree multipole update                   :        0.009 s           0.009 s
  | Hartree multipole summation                :        0.283 s           0.283 s
  | Integration                                :        0.490 s           0.490 s
  | Solution of K.-S. eqns.                    :        0.002 s           0.002 s
  | Total energy evaluation                    :        0.000 s           0.000 s

  Partial memory accounting:
  | Current value for overall tracked memory usage on task 0  :           0.166 MB
  | Peak value for overall tracked memory usage on task 0     :           0.696 MB after allocating gradient_basis_wave
  | Largest tracked array allocation on task 0 so far         :           0.397 MB  when allocating gradient_basis_wave
  Note:  These values currently only include a subset of arrays which are explicitly tracked.
  The "true" memory usage will be greater.
------------------------------------------------------------

------------------------------------------------------------
          Begin self-consistency iteration #    7

  Date     :  20200710, Time     :  151222.208
------------------------------------------------------------
  Evaluating new KS density.
  Integration grid: deviation in total charge (<rho> - N_e) =   4.973799E-14
  Pulay mixing of updated and previous charge densities.

  Evaluating partitioned Hartree potential by multipole expansion.
  | Analytical far-field extrapolation by fixed multipoles:
  | Hartree multipole sum: apparent total charge =  -0.391704E-03
  Summing up the Hartree potential.
  Time summed over all CPUs for potential: real work        0.282 s, elapsed        0.282 s
  | RMS charge density error from multipole expansion :   0.257227E-01

  Integrating Hamiltonian matrix: batch-based integration.
  Time summed over all CPUs for integration: real work        0.489 s, elapsed        0.489 s

  Updating Kohn-Sham eigenvalues and eigenvectors using ELSI and the ELPA eigensolver.
  Finished Cholesky decomposition
  | Time :     0.000 s
  Finished transformation to standard eigenproblem
  | Time :     0.000 s
  Starting LAPACK eigensolver
  Finished solving standard eigenproblem
  | Time :     0.002 s
  Finished back-transformation of eigenvectors
  | Time :     0.000 s

[...]
  |   Hirshfeld dipole moment :      0.06719872
  |   Hirshfeld second moments:     -0.00141302      -0.01955998      -0.01679237
  |                                 -0.01955998      -0.00992031       0.01017125
  |                                 -0.01679237       0.01017125      -0.02223431
  ----------------------------------------------------------------------
  | Atom    12: O
  |   Hirshfeld charge        :     -0.14643456
  |   Free atom volume        :     23.61338643
  |   Hirshfeld volume        :     21.06650961
  |   Hirshfeld dipole vector :      0.02309560      -0.00395496       0.04366199
  |   Hirshfeld dipole moment :      0.04955217
  |   Hirshfeld second moments:      0.04892702       0.00056298      -0.01580198
  |                                  0.00056298       0.09878328      -0.00032554
  |                                 -0.01580198      -0.00032554       0.01537717
  ----------------------------------------------------------------------
  | Atom    13: H
  |   Hirshfeld charge        :      0.17028369
  |   Free atom volume        :      9.95071624
  |   Hirshfeld volume        :      6.39496316
  |   Hirshfeld dipole vector :      0.01824889      -0.11098821       0.02989778
  |   Hirshfeld dipole moment :      0.11638420
  |   Hirshfeld second moments:      0.11550971       0.00172780      -0.01413772
  |                                  0.00172780       0.12262434       0.00127604
  |                                 -0.01413772       0.00127604       0.08405556
  ----------------------------------------------------------------------


  Total energy components:
  | Sum of eigenvalues            :        -180.41373903 Ha       -4909.30762173 eV
  | XC energy correction          :         -42.63557695 Ha       -1160.17307769 eV
  | XC potential correction       :          54.81449611 Ha        1491.57832969 eV
  | Free-atom electrostatic energy:        -146.85650476 Ha       -3996.16881740 eV
  | Hartree energy correction     :          -8.40630791 Ha        -228.74727668 eV
  | vdW energy correction         :          -0.00322681 Ha          -0.08780609 eV
  | Entropy correction            :           0.00000000 Ha           0.00000000 eV
  | ---------------------------
  | Total energy                  :        -323.50085935 Ha       -8802.90626989 eV
  | Total energy, T -> 0          :        -323.50085935 Ha       -8802.90626989 eV  <-- do not rely on this value for anything but (periodic) metals
  | Electronic free energy        :        -323.50085935 Ha       -8802.90626989 eV

  Derived energy quantities:
  | Kinetic energy                :         322.56159118 Ha        8777.34748247 eV
  | Electrostatic energy          :        -603.42364677 Ha      -16419.99286859 eV
  | Energy correction for multipole
  | error in Hartree potential    :           0.04286879 Ha           1.16651915 eV
  | Sum of eigenvalues per atom                           :        -377.63904783 eV
  | Total energy (T->0) per atom                          :        -677.14663615 eV  <-- do not rely on this value for anything but (periodic) metals
  | Electronic free energy per atom                       :        -677.14663615 eV

  atomic forces [eV/Ang]:
  -----------------------
  atom #    1
   Hellmann-Feynman              :  0.320614E+00  0.241180E+00  0.623798E+00
   Ionic forces                  :  0.000000E+00  0.000000E+00  0.000000E+00
   Multipole                     :  0.207737E+00  0.509333E+00 -0.307286E+00
   Pulay + GGA                   : -0.115592E+01 -0.397424E+00 -0.980890E+00
   Van der Waals                 :  0.191743E-02  0.145239E-02 -0.154663E-02
   ----------------------------------------------------------------
   Total forces(   1)            : -0.625647E+00  0.354541E+00 -0.665925E+00
  atom #    2
   Hellmann-Feynman              :  0.324350E+00 -0.842678E-01  0.256276E+00
   Ionic forces                  :  0.000000E+00  0.000000E+00  0.000000E+00
   Multipole                     :  0.169373E+00  0.462114E-01 -0.984753E-02
   Pulay + GGA                   : -0.121867E+00  0.215125E-01  0.312380E-01
   Van der Waals                 :  0.706870E-02 -0.537474E-02 -0.417058E-02
   ----------------------------------------------------------------
   Total forces(   2)            :  0.378925E+00 -0.219187E-01  0.273496E+00
  atom #    3
   Hellmann-Feynman              : -0.847888E+01 -0.792884E+01 -0.122318E+00
   Ionic forces                  :  0.000000E+00  0.000000E+00  0.000000E+00
   Multipole                     : -0.142087E+00  0.108186E+00 -0.865116E+00
   Pulay + GGA                   :  0.864406E+01  0.772449E+01  0.172901E+01
   Van der Waals                 :  0.312522E-02 -0.819689E-02 -0.648253E-02
   ----------------------------------------------------------------
   Total forces(   3)            :  0.262134E-01 -0.104360E+00  0.735089E+00
  atom #    4
   Hellmann-Feynman              :  0.214419E+00  0.970308E-01 -0.165245E+00
   Ionic forces                  :  0.000000E+00  0.000000E+00  0.000000E+00
   Multipole                     : -0.278979E-01  0.687153E-01 -0.886311E-01
   Pulay + GGA                   : -0.506519E-02 -0.226085E+00  0.459573E-01
   Van der Waals                 : -0.134820E-02 -0.704164E-02 -0.607233E-02
   ----------------------------------------------------------------
   Total forces(   4)            :  0.180108E+00 -0.673802E-01 -0.213991E+00
  atom #    5
   Hellmann-Feynman              :  0.477658E-01  0.156051E+00 -0.256713E+00
   Ionic forces                  :  0.000000E+00  0.000000E+00  0.000000E+00
   Multipole                     :  0.401393E-01  0.132276E-02 -0.116338E+00
   Pulay + GGA                   : -0.203575E+00 -0.282383E-01  0.124419E+00
   Van der Waals                 : -0.336036E-02  0.140243E-02  0.400518E-02
   ----------------------------------------------------------------
   Total forces(   5)            : -0.119031E+00  0.130538E+00 -0.244626E+00
  atom #    6
   Hellmann-Feynman              : -0.625959E-01 -0.512912E+00  0.244923E+00
   Ionic forces                  :  0.000000E+00  0.000000E+00  0.000000E+00
   Multipole                     : -0.306474E-01  0.616282E+00  0.270286E+00
   Pulay + GGA                   :  0.300783E+00 -0.565901E+00 -0.367475E+00
   Van der Waals                 : -0.182452E-02  0.509220E-02 -0.344892E-02
   ----------------------------------------------------------------
   Total forces(   6)            :  0.205716E+00 -0.457438E+00  0.144285E+00
  atom #    7
   Hellmann-Feynman              : -0.232798E+00 -0.516232E-01 -0.379102E-01
   Ionic forces                  :  0.000000E+00  0.000000E+00  0.000000E+00
   Multipole                     : -0.121023E+00  0.488327E-01  0.278698E-01
   Pulay + GGA                   :  0.112619E+00 -0.994109E-02  0.581147E-02
   Van der Waals                 : -0.352619E-02  0.361269E-02  0.973644E-02
   ----------------------------------------------------------------
   Total forces(   7)            : -0.244729E+00 -0.911895E-02  0.550749E-02
  atom #    8
   Hellmann-Feynman              :  0.243536E-01 -0.189251E-01  0.172961E+00
   Ionic forces                  :  0.000000E+00  0.000000E+00  0.000000E+00
   Multipole                     :  0.186396E-01  0.646408E-01  0.116763E+00
   Pulay + GGA                   : -0.492998E-01 -0.461780E-01 -0.113708E+00
   Van der Waals                 : -0.276899E-02  0.115563E-01  0.771874E-03
   ----------------------------------------------------------------
   Total forces(   8)            : -0.907552E-02  0.110940E-01  0.176787E+00
  atom #    9
   Hellmann-Feynman              :  0.135631E+00  0.612330E-01 -0.172240E+00
   Ionic forces                  :  0.000000E+00  0.000000E+00  0.000000E+00
   Multipole                     :  0.172614E-01  0.128347E+00 -0.951466E-02
   Pulay + GGA                   : -0.291739E-01 -0.795807E-01  0.642309E-01
   Van der Waals                 : -0.498140E-03  0.584444E-02  0.707615E-02
   ----------------------------------------------------------------
   Total forces(   9)            :  0.123220E+00  0.115844E+00 -0.110447E+00
  atom #   10
   Hellmann-Feynman              :  0.213976E+01  0.516793E+01  0.315330E+00
   Ionic forces                  :  0.000000E+00  0.000000E+00  0.000000E+00
   Multipole                     : -0.514211E-01 -0.229209E+00  0.281751E+00
   Pulay + GGA                   : -0.159415E+01 -0.282560E+01 -0.993691E-01
   Van der Waals                 :  0.143601E-02 -0.113497E-01 -0.542592E-03
   ----------------------------------------------------------------
   Total forces(  10)            :  0.495627E+00  0.210177E+01  0.497169E+00
  atom #   11
   Hellmann-Feynman              :  0.423277E+01 -0.236774E+01  0.143431E+02
   Ionic forces                  :  0.000000E+00  0.000000E+00  0.000000E+00
   Multipole                     :  0.117688E+00 -0.580041E+00  0.777953E+00
   Pulay + GGA                   : -0.310268E+01  0.334109E+01 -0.135084E+02
   Van der Waals                 : -0.305591E-02 -0.119180E-01  0.254150E-02
   ----------------------------------------------------------------
   Total forces(  11)            :  0.124472E+01  0.381387E+00  0.161524E+01
  atom #   12
   Hellmann-Feynman              : -0.815802E+01  0.961773E+00 -0.140838E+02
   Ionic forces                  :  0.000000E+00  0.000000E+00  0.000000E+00
   Multipole                     : -0.953736E+00 -0.911267E+00 -0.688348E+00
   Pulay + GGA                   :  0.824498E+01 -0.172044E+01  0.123412E+02
   Van der Waals                 :  0.204764E-02  0.101307E-01  0.687360E-03
   ----------------------------------------------------------------
   Total forces(  12)            : -0.864729E+00 -0.165980E+01 -0.243026E+01
  atom #   13
   Hellmann-Feynman              : -0.754873E+00 -0.102907E+01  0.325964E+00
   Ionic forces                  :  0.000000E+00  0.000000E+00  0.000000E+00
   Multipole                     :  0.343207E-01 -0.766691E-01  0.546746E-01
   Pulay + GGA                   : -0.706866E-01  0.322044E+00 -0.162558E+00
   Van der Waals                 :  0.787320E-03  0.478980E-02 -0.255493E-02
   ----------------------------------------------------------------
   Total forces(  13)            : -0.790451E+00 -0.778905E+00  0.215525E+00

  Timings for VdW correction (Tkatchenko-Scheffler 2009 or later):
  | CPU time:        0.088 s, Wall clock time:        0.089 s.
  Removing unitary transformations (pure translations, rotations) from forces on atoms.
  Atomic forces before filtering:
  | Net force on center of mass :   0.868566E-03 -0.375424E-02 -0.215822E-02 eV/A
  | Net torque on center of mass:  -0.832321E-02  0.446478E-02  0.247742E-02 eV
  Atomic forces after filtering:
  | Net force on center of mass :   0.892031E-16 -0.267609E-15  0.223008E-15 eV/A
  | Net torque on center of mass:   0.141613E-15  0.165215E-15 -0.377634E-15 eV

  Energy and forces in a compact form:
  | Total energy uncorrected      :         -0.880290626988933E+04 eV
  | Total energy corrected        :         -0.880290626988933E+04 eV  <-- do not rely on this value for anything but (periodic) metals
  | Electronic free energy        :         -0.880290626988933E+04 eV
  Total atomic forces (unitary forces cleaned) [eV/Ang]:
  |   1         -0.625683881459272E+00          0.354828238550116E+00         -0.665674891521465E+00
  |   2          0.378887839440432E+00         -0.217063366571861E-01          0.273944846707598E+00
  |   3          0.264333964008048E-01         -0.103782636151757E+00          0.735251832679518E+00
  |   4          0.180431224404667E+00         -0.667379506382111E-01         -0.213727960933337E+00
  |   5         -0.118714045601676E+00          0.131173107608997E+00         -0.244360760673137E+00
  |   6          0.205631578832754E+00         -0.457250463894617E+00          0.144674703593830E+00
  |   7         -0.244813893430562E+00         -0.885932372024744E-02          0.570299516401233E-02
  |   8         -0.934643399886536E-02          0.110694526766007E-01          0.177244700280768E+00
  |   9          0.123289693157196E+00          0.116099174571888E+00         -0.109828008338679E+00
  |  10          0.495366525805314E+00          0.210194344671050E+01          0.497111952694444E+00
  |  11          0.124423317669188E+01          0.381337704556447E+00          0.161518300651179E+01
  |  12         -0.864924165712435E+00         -0.165945315898420E+01         -0.243060428433492E+01
  |  13         -0.790791014530232E+00         -0.778661254628325E+00          0.215081868169583E+00

  ------------------------------------ 
  Start decomposition of the XC Energy 
  ------------------------------------ 
  X and C from original XC functional choice 
  Hartree-Fock Energy :          0.000000000 Ha              0.000000000 eV
  X Energy            :        -41.035544137 Ha          -1116.633969671 eV
  C Energy            :         -1.600032810 Ha            -43.539108018 eV
  Total XC Energy     :        -42.635576947 Ha          -1160.173077689 eV
  ------------------------------------ 
  LDA X and C from self-consistent density 
  X Energy LDA        :        -37.253675113 Ha          -1013.724077540 eV
  C Energy LDA        :         -3.138384550 Ha            -85.399788685 eV
  ------------------------------------ 
  End decomposition of the XC Energy 
  ------------------------------------ 

------------------------------------------------------------

------------------------------------------------------------------------------
  Final output of selected total energy values:

  The following output summarizes some interesting total energy values
  at the end of a run (AFTER all relaxation, molecular dynamics, etc.).

  | Total energy of the DFT / Hartree-Fock s.c.f. calculation      :          -8802.906269889 eV
  | Final zero-broadening corrected energy (caution - metals only) :          -8802.906269889 eV
  | For reference only, the value of 1 Hartree used in FHI-aims is :             27.211384500 eV

  Before relying on these values, please be sure to understand exactly which
  total energy value is referred to by a given number. Different objects may
  all carry the same name 'total energy'. Definitions:

  Total energy of the DFT / Hartree-Fock s.c.f. calculation:
  | Note that this energy does not include ANY quantities calculated after the
  | s.c.f. cycle, in particular not ANY RPA, MP2, etc. many-body perturbation terms.

  Final zero-broadening corrected energy:
  | For metallic systems only, a broadening of the occupation numbers at the Fermi
  | level can be extrapolated back to zero broadening by an electron-gas inspired
  | formula. For all systems that are not real metals, this value can be
  | meaningless and should be avoided.

------------------------------------------------------------------------------
  Methods described in the following list of references were used in this FHI-aims run.
  If you publish the results, please make sure to cite these reference if they apply.
  FHI-aims is an academic code, and for our developers (often, Ph.D. students
  and postdocs), scientific credit in the community is essential.
  Thank you for helping us!

  For any use of FHI-aims, please cite:

    Volker Blum, Ralf Gehrke, Felix Hanke, Paula Havu, Ville Havu,
    Xinguo Ren, Karsten Reuter, and Matthias Scheffler
    'Ab initio molecular simulations with numeric atom-centered orbitals'
    Computer Physics Communications 180, 2175-2196 (2009)
    http://dx.doi.org/10.1016/j.cpc.2009.06.022


  The scalable eigensolver library ELPA was used in your run.
  ELPA is essential especially for large systems on hundreds or thousands of CPUs.
  For ELPA, please cite:

    Andreas Marek, Volker Blum, Rainer Johanni, Ville Havu, Bruno Lang,
    Thomas Auckenthaler, Alexander Heinecke, Hans-Joachim Bungartz, and Hermann Lederer,
    'The ELPA Library - Scalable Parallel Eigenvalue Solutions
    for Electronic Structure Theory and Computational Science'
    The Journal of Physics: Condensed Matter 26, 213201 (2014).
    http://dx.doi.org/10.1088/0953-8984/26/21/213201


  The ELSI infrastructure was used in your run to solve the Kohn-Sham electronic structure.
  Please check out http://elsi-interchange.org to learn more.
  If scalability is important for your project, please acknowledge ELSI by citing:

    V. W-z. Yu, F. Corsetti, A. Garcia, W. P. Huhn, M. Jacquelin, W. Jia,
    B. Lange, L. Lin, J. Lu, W. Mi, A. Seifitokaldani, A. Vazquez-Mayagoitia,
    C. Yang, H. Yang, and V. Blum
    'ELSI: A unified software interface for Kohn-Sham electronic structure solvers'
    Computer Physics Communications 222, 267-285 (2018).
    http://dx.doi.org/10.1016/j.cpc.2017.09.007


  For the real-space grid partitioning and parallelization used in this calculation, please cite:

    Ville Havu, Volker Blum, Paula Havu, and Matthias Scheffler,
    'Efficient O(N) integration for all-electron electronic structure calculation'
    'using numerically tabulated basis functions'
    Journal of Computational Physics 228, 8367-8379 (2009).
    http://dx.doi.org/10.1016/j.jcp.2009.08.008

  Of course, there are many other important community references, e.g., those cited in the
  above references. Our list is limited to references that describe implementations in the
  FHI-aims code. The reason is purely practical (length of this list) - please credit others as well.

------------------------------------------------------------
          Leaving FHI-aims.
          Date     :  20200710, Time     :  151235.276

          Computational steps:
          | Number of self-consistency cycles          :           15
          | Number of SCF (re)initializations          :            1

          Detailed time accounting                     :  max(cpu_time)    wall_clock(cpu1)
          | Total time                                 :       21.380 s          21.452 s
          | Preparation time                           :        0.146 s           0.149 s
          | Boundary condition initalization           :        0.000 s           0.000 s
          | Grid partitioning                          :        0.110 s           0.110 s
          | Preloading free-atom quantities on grid    :        0.002 s           0.003 s
          | Free-atom superposition energy             :        0.084 s           0.084 s
          | Total time for integrations                :        8.035 s           8.038 s
          | Total time for solution of K.-S. equations :        0.034 s           0.036 s
          | Total time for density & force components  :        6.683 s           6.699 s
          | Total time for mixing                      :        0.197 s           0.201 s
          | Total time for Hartree multipole update    :        0.132 s           0.133 s
          | Total time for Hartree multipole sum       :        5.560 s           5.570 s
          | Total time for total energy evaluation     :        0.002 s           0.002 s
          | Total time for vdW correction              :        0.088 s           0.089 s

          Partial memory accounting:
          | Residual value for overall tracked memory usage across tasks :           0.000 MB (should be 0.000 MB)
          | Peak values for overall tracked memory usage (after allocating hessian_basis_wave):
          |   Minimum:        1.622 MB (on task 1)
          |   Maximum:        1.622 MB (on task 1)
          |   Average:        1.622 MB
          | Largest tracked array allocation (hessian_basis_wave):
          |   Minimum:        0.794 MB (on task 1)
          |   Maximum:        0.794 MB (on task 1)
          |   Average:        0.794 MB
          Note:  These values currently only include a subset of arrays which are explicitly tracked.
          The "true" memory usage will be greater.

          Have a nice day.
------------------------------------------------------------
