  MPI-parallelism will be employed.
------------------------------------------------------------
          Invoking FHI-aims ...
          Version 171221_1
          Compiled on 2019/09/09 at 14:39:39 on host puhti-login2.bullx.

          When using FHI-aims, please cite the following reference:

          Volker Blum, Ralf Gehrke, Felix Hanke, Paula Havu,
          Ville Havu, Xinguo Ren, Karsten Reuter, and Matthias Scheffler,
          'Ab Initio Molecular Simulations with Numeric Atom-Centered Orbitals',
          Computer Physics Communications 180, 2175-2196 (2009)

          For any questions about FHI-aims, please visit the aimsclub website
          with its forums and wiki. Contributions to both the forums and the
          wiki are warmly encouraged - they are for you, and everyone is welcome there.

------------------------------------------------------------



  Date     :  20200505, Time     :  083430.714
  Time zero on CPU 1             :   0.283770000000000E-01  s.
  Internal wall clock time zero  :           357899670.714  s.

  FHI-aims created a unique identifier for this run for later identification
  aims_uuid : FFDC5FC2-8CAB-4BAA-AB9B-ED062DBE831B

  Using       20 parallel tasks.
  Task        0 on host r05c54.bullx reporting.
  Task        1 on host r05c54.bullx reporting.
  Task        2 on host r05c54.bullx reporting.
  Task        3 on host r05c54.bullx reporting.
  Task        4 on host r05c54.bullx reporting.
  Task        5 on host r05c54.bullx reporting.
  Task        6 on host r05c54.bullx reporting.
  Task        7 on host r05c54.bullx reporting.
  Task        8 on host r05c54.bullx reporting.
  Task        9 on host r05c54.bullx reporting.
  Task       10 on host r05c54.bullx reporting.
  Task       11 on host r05c54.bullx reporting.
  Task       12 on host r05c54.bullx reporting.
  Task       13 on host r05c54.bullx reporting.
  Task       14 on host r05c54.bullx reporting.
  Task       15 on host r05c54.bullx reporting.
  Task       16 on host r05c54.bullx reporting.
  Task       17 on host r05c54.bullx reporting.
  Task       18 on host r05c54.bullx reporting.
  Task       19 on host r05c54.bullx reporting.

  Performing system and environment tests:
  | Environment variable OMP_NUM_THREADS correctly set to 1.
  | Stacksize not measured: no C compiler
  | Checking for scalapack...
  | Testing pdtran()...
  | All pdtran() tests passed.

  Obtaining array dimensions for all initial allocations:
  
  -----------------------------------------------------------------------
  Parsing control.in (first pass over file, find array dimensions only).
  The contents of control.in will be repeated verbatim below
  unless switched off by setting 'verbatim_writeout .false.' .
  in the first line of control.in .
  -----------------------------------------------------------------------
  
  #########################################################################################
  #
  #  Volker Blum, FHI 2009 : Test run input file control.in for simple H2O
  #
  #########################################################################################
  #
  #  Physical model
  #
    xc                 pbe
    vdw_correction_hirshfeld
    spin               none
    relativistic       none
    charge             0.
  #
  #  SCF convergence
  #
    occupation_type    gaussian 0.01
    mixer              pulay
      n_max_pulay        10
      charge_mix_param   0.2
    sc_accuracy_rho    1E-5
    sc_accuracy_eev    1E-3
    sc_accuracy_etot   1E-6
    sc_accuracy_forces 1E-4
    sc_iter_limit      100
  #
  #  Relaxation
  #
  #  relax_geometry   bfgs 1.e-3
  #
  ################################################################################
  #
  #  FHI-aims code project
  #  VB, Fritz-Haber Institut, 2009
  #
  #  Suggested "light" defaults for H atom (to be pasted into control.in file)
  #  Be sure to double-check any results obtained with these settings for post-processing,
  #  e.g., with the "tight" defaults and larger basis sets.
  #
  ################################################################################
    species        H
  #     global species definitions
      nucleus             1
      mass                1.00794
  #
      l_hartree           4
  #
      cut_pot             3.5  1.5  1.0
      basis_dep_cutoff    1e-4
  #
      radial_base         24 5.0
      radial_multiplier   1
      angular_grids       specified
        division   0.2421   50
        division   0.3822  110
        division   0.4799  194
        division   0.5341  302
  #      division   0.5626  434
  #      division   0.5922  590
  #      division   0.6542  770
  #      division   0.6868 1202
  #      outer_grid  770
        outer_grid  302
  ################################################################################
  #
  #  Definition of "minimal" basis
  #
  ################################################################################
  #     valence basis states
      valence      1  s   1.
  #     ion occupancy
      ion_occ      1  s   0.5
  ################################################################################
  #
  #  Suggested additional basis functions. For production calculations,
  #  uncomment them one after another (the most important basis functions are
  #  listed first).
  #
  #  Basis constructed for dimers: 0.5 A, 0.7 A, 1.0 A, 1.5 A, 2.5 A
  #
  ################################################################################
  #  "First tier" - improvements: -1014.90 meV to -62.69 meV
       hydro 2 s 2.1
       hydro 2 p 3.5
  #  "Second tier" - improvements: -12.89 meV to -1.83 meV
  #     hydro 1 s 0.85
  #     hydro 2 p 3.7
  #     hydro 2 s 1.2
  #     hydro 3 d 7
  #  "Third tier" - improvements: -0.25 meV to -0.12 meV
  #     hydro 4 f 11.2
  #     hydro 3 p 4.8
  #     hydro 4 d 9
  #     hydro 3 s 3.2
  ################################################################################
  #
  #  FHI-aims code project
  #  VB, Fritz-Haber Institut, 2009
  #
  #  Suggested "light" defaults for C atom (to be pasted into control.in file)
  #  Be sure to double-check any results obtained with these settings for post-processing,
  #  e.g., with the "tight" defaults and larger basis sets.
  #
  ################################################################################
    species        C
  #     global species definitions
      nucleus             6
      mass                12.0107
  #
      l_hartree           4
  #
      cut_pot             3.5  1.5  1.0
      basis_dep_cutoff    1e-4
  #
      radial_base         34 5.0
      radial_multiplier   1
      angular_grids specified
        division   0.3326   50
        division   0.5710  110
        division   0.7727  194
        division   0.8772  302
  #      division   0.9334  434
  #      division   0.9625  590
  #      division   0.9924  770
  #      division   1.0230  974
  #      division   1.4589 1202
  #     outer_grid  974
       outer_grid 302
  ################################################################################
  #
  #  Definition of "minimal" basis
  #
  ################################################################################
  #     valence basis states
      valence      2  s   2.
      valence      2  p   2.
  #     ion occupancy
      ion_occ      2  s   1.
      ion_occ      2  p   1.
  ################################################################################
  #
  #  Suggested additional basis functions. For production calculations,
  #  uncomment them one after another (the most important basis functions are
  #  listed first).
  #
  #  Constructed for dimers: 1.0 A, 1.25 A, 1.5 A, 2.0 A, 3.0 A
  #
  ################################################################################
  #  "First tier" - improvements: -1214.57 meV to -155.61 meV
       hydro 2 p 1.7
       hydro 3 d 6
       hydro 2 s 4.9
  #  "Second tier" - improvements: -67.75 meV to -5.23 meV
  #     hydro 4 f 9.8
  #     hydro 3 p 5.2
  #     hydro 3 s 4.3
  #     hydro 5 g 14.4
  #     hydro 3 d 6.2
  #  "Third tier" - improvements: -2.43 meV to -0.60 meV
  #     hydro 2 p 5.6
  #     hydro 2 s 1.4
  #     hydro 3 d 4.9
  #     hydro 4 f 11.2
  #  "Fourth tier" - improvements: -0.39 meV to -0.18 meV
  #     hydro 2 p 2.1
  #     hydro 5 g 16.4
  #     hydro 4 d 13.2
  #     hydro 3 s 13.6
  #     hydro 4 f 17.6
  #  Further basis functions - improvements: -0.08 meV and below
  #     hydro 3 s 2
  #     hydro 3 p 6
  #     hydro 4 d 20
  ################################################################################
  #
  #  FHI-aims code project
  #  VB, Fritz-Haber Institut, 2009
  #
  #  Suggested "light" defaults for N atom (to be pasted into control.in file)
  #  Be sure to double-check any results obtained with these settings for post-processing,
  #  e.g., with the "tight" defaults and larger basis sets.
  #
  ################################################################################
    species        N
  #     global species definitions
      nucleus             7
      mass                14.0067
  #
      l_hartree           4
  #
      cut_pot             3.5  1.5  1.0
      basis_dep_cutoff    1e-4
  #
      radial_base         35 5.0
      radial_multiplier   1
      angular_grids       specified
        division   0.2599   50
        division   0.4601  110
        division   0.5885  194
        division   0.6503  302
  #      division   0.6939  434
  #      division   0.7396  590
  #      division   0.7632  770
  #      division   0.8122  974
  #      division   1.1604 1202
  #      outer_grid  974
        outer_grid  302
  ################################################################################
  #
  #  Definition of "minimal" basis
  #
  ################################################################################
  #     valence basis states
      valence      2  s   2.
      valence      2  p   3.
  #     ion occupancy
      ion_occ      2  s   1.
      ion_occ      2  p   2.
  ################################################################################
  #
  #  Suggested additional basis functions. For production calculations,
  #  uncomment them one after another (the most important basis functions are
  #  listed first).
  #
  #  Constructed for dimers: 1.0 A, 1.1 A, 1.5 A, 2.0 A, 3.0 A
  #
  ################################################################################
  #  "First tier" - improvements: -1193.42 meV to -220.60 meV
       hydro 2 p 1.8
       hydro 3 d 6.8
       hydro 3 s 5.8
  #  "Second tier" - improvements: -80.21 meV to -6.86 meV
  #     hydro 4 f 10.8
  #     hydro 3 p 5.8
  #     hydro 1 s 0.8
  #     hydro 5 g 16
  #     hydro 3 d 4.9
  #  "Third tier" - improvements: -4.29 meV to -0.53 meV
  #     hydro 3 s 16
  #     ionic 2 p auto
  #     hydro 3 d 6.6
  #     hydro 4 f 11.6
  #  "Fourth tier" - improvements: -0.75 meV to -0.25 meV
  #     hydro 2 p 4.5
  #     hydro 2 s 2.4
  #     hydro 5 g 14.4
  #     hydro 4 d 14.4
  #     hydro 4 f 16.8
  # Further basis functions - -0.21 meV and below
  #     hydro 3 p 14.8
  #     hydro 3 s 4.4
  #     hydro 3 d 19.6
  #     hydro 5 g 12.8
  ################################################################################
  #
  #  FHI-aims code project
  #  VB, Fritz-Haber Institut, 2009
  #
  #  Suggested "light" defaults for O atom (to be pasted into control.in file)
  #  Be sure to double-check any results obtained with these settings for post-processing,
  #  e.g., with the "tight" defaults and larger basis sets.
  #
  ################################################################################
    species        O
  #     global species definitions
      nucleus             8
      mass                15.9994
  #
      l_hartree           4
  #
      cut_pot             3.5  1.5  1.0
      basis_dep_cutoff    1e-4
  #
      radial_base         36 5.0
      radial_multiplier   1
       angular_grids specified
        division   0.2659   50
        division   0.4451  110
        division   0.6052  194
        division   0.7543  302
  #      division   0.8014  434
  #      division   0.8507  590
  #      division   0.8762  770
  #      division   0.9023  974
  #      division   1.2339 1202
  #      outer_grid 974
        outer_grid 302
  ################################################################################
  #
  #  Definition of "minimal" basis
  #
  ################################################################################
  #     valence basis states
      valence      2  s   2.
      valence      2  p   4.
  #     ion occupancy
      ion_occ      2  s   1.
      ion_occ      2  p   3.
  ################################################################################
  #
  #  Suggested additional basis functions. For production calculations,
  #  uncomment them one after another (the most important basis functions are
  #  listed first).
  #
  #  Constructed for dimers: 1.0 A, 1.208 A, 1.5 A, 2.0 A, 3.0 A
  #
  ################################################################################
  #  "First tier" - improvements: -699.05 meV to -159.38 meV
       hydro 2 p 1.8
       hydro 3 d 7.6
       hydro 3 s 6.4
  #  "Second tier" - improvements: -49.91 meV to -5.39 meV
  #     hydro 4 f 11.6
  #     hydro 3 p 6.2
  #     hydro 3 d 5.6
  #     hydro 5 g 17.6
  #     hydro 1 s 0.75
  #  "Third tier" - improvements: -2.83 meV to -0.50 meV
  #     ionic 2 p auto
  #     hydro 4 f 10.8
  #     hydro 4 d 4.7
  #     hydro 2 s 6.8
  #  "Fourth tier" - improvements: -0.40 meV to -0.12 meV
  #     hydro 3 p 5
  #     hydro 3 s 3.3
  #     hydro 5 g 15.6
  #     hydro 4 f 17.6
  #     hydro 4 d 14
  # Further basis functions - -0.08 meV and below
  #     hydro 3 s 2.1
  #     hydro 4 d 11.6
  #     hydro 3 p 16
  #     hydro 2 s 17.2
  
  -----------------------------------------------------------------------
  Completed first pass over input file control.in .
  -----------------------------------------------------------------------
  
  
  -----------------------------------------------------------------------
  Parsing geometry.in (first pass over file, find array dimensions only).
  The contents of geometry.in will be repeated verbatim below
  unless switched off by setting 'verbatim_writeout .false.' .
  in the first line of geometry.in .
  -----------------------------------------------------------------------
  
  atom  0.00000 0.00000 0.00000 C
  atom  1.09300 0.00000 0.00000 H
  atom  -0.47961 0.00000 -1.41207 N
  atom  -1.47898 0.20747 -1.41807 H
  atom  0.03066 0.71197 -1.93058 H
  atom  -0.49584 1.26211 0.72868 C
  atom  -1.58789 1.28919 0.74431 H
  atom  -0.13407 1.27425 1.75947 H
  atom  -0.13407 2.16087 0.22380 H
  atom  -0.39425 -1.28861 0.74398 C
  atom  -0.10189 -1.56493 1.88303 O
  atom  -1.10210 -2.13717 0.06896 O
  atom  -0.94812 -2.92182 0.62177 H
  
  -----------------------------------------------------------------------
  Completed first pass over input file geometry.in .
  -----------------------------------------------------------------------
  

  Basic array size parameters:
  | Number of species                 :        4
  | Number of atoms                   :       13
  | Max. basis fn. angular momentum   :        2
  | Max. atomic/ionic basis occupied n:        2
  | Max. number of basis fn. types    :        2
  | Max. radial fns per species/type  :        3
  | Max. logarithmic grid size        :     1301
  | Max. radial integration grid size :       36
  | Max. angular integration grid size:      302
  | Max. angular grid division number :        8
  | Radial grid for Hartree potential :     1301
  | Number of spin channels           :        1

------------------------------------------------------------
          Reading file control.in.
------------------------------------------------------------
  XC: Using PBE gradient-corrected functionals.
  Spin treatment: No spin polarisation.
  Non-relativistic treatment of kinetic energy.
  Charge =   0.000000E+00: Neutral system requested explicitly.
  Occupation type: Gaussian broadening, width =   0.100000E-01 eV.
  Using pulay charge density mixing.
  Pulay mixing - number of memorized iterations:   10
  Charge density mixing - mixing parameter:     0.2000
  Convergence accuracy of self-consistent charge density:  0.1000E-04
  Convergence accuracy of sum of eigenvalues:  0.1000E-02
  Convergence accuracy of total energy:  0.1000E-05
  Convergence accuracy of forces:  0.1000E-03
  Maximum number of s.-c. iterations  :   100
 
  Reading configuration options for species H                   .
  | Found nuclear charge :   1.0000
  | Found atomic mass :    1.00794000000000      amu
  | Found l_max for Hartree potential  :   4
  | Found cutoff potl. onset [A], width [A], scale factor :    3.50000    1.50000    1.00000
  | Threshold for basis-dependent cutoff potential is   0.100000E-03
  | Found data for basic radial integration grid :    24 points, outermost radius =    5.000 A
  | Found multiplier for basic radial grid :   1
  | Found angular grid specification: user-specified.
  | Specified grid contains     5 separate shells.
  | Check grid settings after all constraints further below.
  | Found free-atom valence shell :  1 s   1.000
  | No ionic wave fns used. Skipping ion_occ.
  | Found hydrogenic basis function :  2 s   2.100
  | Found hydrogenic basis function :  2 p   3.500
  Species H                   : Missing cutoff potential type.
  Defaulting to exp(1/x)/(1-x)^2 type cutoff potential.
  Species H : No 'logarithmic' tag. Using default grid for free atom:
  | Default logarithmic grid data [bohr] : 0.1000E-03 0.1000E+03 0.1012E+01
  Species H : On-site basis accuracy parameter (for Gram-Schmidt orthonormalisation) not specified.
  Using default value basis_acc =  0.1000000E-03.
  Species H                   : Using default innermost maximum threshold i_radial=  2 for radial functions.
  Species H                   : Default cutoff onset for free atom density etc. : 0.35000000E+01 AA.
  Species H                   : Basic radial grid will be enhanced according to radial_multiplier =   1, to contain    24 grid points.
 
  Reading configuration options for species C                   .
  | Found nuclear charge :   6.0000
  | Found atomic mass :    12.0107000000000      amu
  | Found l_max for Hartree potential  :   4
  | Found cutoff potl. onset [A], width [A], scale factor :    3.50000    1.50000    1.00000
  | Threshold for basis-dependent cutoff potential is   0.100000E-03
  | Found data for basic radial integration grid :    34 points, outermost radius =    5.000 A
  | Found multiplier for basic radial grid :   1
  | Found angular grid specification: user-specified.
  | Specified grid contains     5 separate shells.
  | Check grid settings after all constraints further below.
  | Found free-atom valence shell :  2 s   2.000
  | Found free-atom valence shell :  2 p   2.000
  | No ionic wave fns used. Skipping ion_occ.
  | No ionic wave fns used. Skipping ion_occ.
  | Found hydrogenic basis function :  2 p   1.700
  | Found hydrogenic basis function :  3 d   6.000
  | Found hydrogenic basis function :  2 s   4.900
  Species C                   : Missing cutoff potential type.
  Defaulting to exp(1/x)/(1-x)^2 type cutoff potential.
  Species C : No 'logarithmic' tag. Using default grid for free atom:
  | Default logarithmic grid data [bohr] : 0.1000E-03 0.1000E+03 0.1012E+01
  Species C : On-site basis accuracy parameter (for Gram-Schmidt orthonormalisation) not specified.
  Using default value basis_acc =  0.1000000E-03.
  Species C                   : Using default innermost maximum threshold i_radial=  2 for radial functions.
  Species C                   : Default cutoff onset for free atom density etc. : 0.35000000E+01 AA.
  Species C                   : Basic radial grid will be enhanced according to radial_multiplier =   1, to contain    34 grid points.
 
  Reading configuration options for species N                   .
  | Found nuclear charge :   7.0000
  | Found atomic mass :    14.0067000000000      amu
  | Found l_max for Hartree potential  :   4
  | Found cutoff potl. onset [A], width [A], scale factor :    3.50000    1.50000    1.00000
  | Threshold for basis-dependent cutoff potential is   0.100000E-03
  | Found data for basic radial integration grid :    35 points, outermost radius =    5.000 A
  | Found multiplier for basic radial grid :   1
  | Found angular grid specification: user-specified.
  | Specified grid contains     5 separate shells.
  | Check grid settings after all constraints further below.
  | Found free-atom valence shell :  2 s   2.000
  | Found free-atom valence shell :  2 p   3.000
  | No ionic wave fns used. Skipping ion_occ.
  | No ionic wave fns used. Skipping ion_occ.
  | Found hydrogenic basis function :  2 p   1.800
  | Found hydrogenic basis function :  3 d   6.800
  | Found hydrogenic basis function :  3 s   5.800
  Species N                   : Missing cutoff potential type.
  Defaulting to exp(1/x)/(1-x)^2 type cutoff potential.
  Species N : No 'logarithmic' tag. Using default grid for free atom:
  | Default logarithmic grid data [bohr] : 0.1000E-03 0.1000E+03 0.1012E+01
  Species N : On-site basis accuracy parameter (for Gram-Schmidt orthonormalisation) not specified.
  Using default value basis_acc =  0.1000000E-03.
  Species N                   : Using default innermost maximum threshold i_radial=  2 for radial functions.
  Species N                   : Default cutoff onset for free atom density etc. : 0.35000000E+01 AA.
  Species N                   : Basic radial grid will be enhanced according to radial_multiplier =   1, to contain    35 grid points.
 
  Reading configuration options for species O                   .
  | Found nuclear charge :   8.0000
  | Found atomic mass :    15.9994000000000      amu
  | Found l_max for Hartree potential  :   4
  | Found cutoff potl. onset [A], width [A], scale factor :    3.50000    1.50000    1.00000
  | Threshold for basis-dependent cutoff potential is   0.100000E-03
  | Found data for basic radial integration grid :    36 points, outermost radius =    5.000 A
  | Found multiplier for basic radial grid :   1
  | Found angular grid specification: user-specified.
  | Specified grid contains     5 separate shells.
  | Check grid settings after all constraints further below.
  | Found free-atom valence shell :  2 s   2.000
  | Found free-atom valence shell :  2 p   4.000
  | No ionic wave fns used. Skipping ion_occ.
  | No ionic wave fns used. Skipping ion_occ.
  | Found hydrogenic basis function :  2 p   1.800
  | Found hydrogenic basis function :  3 d   7.600
  | Found hydrogenic basis function :  3 s   6.400
  Species O                   : Missing cutoff potential type.
  Defaulting to exp(1/x)/(1-x)^2 type cutoff potential.
  Species O : No 'logarithmic' tag. Using default grid for free atom:
  | Default logarithmic grid data [bohr] : 0.1000E-03 0.1000E+03 0.1012E+01
  Species O : On-site basis accuracy parameter (for Gram-Schmidt orthonormalisation) not specified.
  Using default value basis_acc =  0.1000000E-03.
  Species O                   : Using default innermost maximum threshold i_radial=  2 for radial functions.
  Species O                   : Default cutoff onset for free atom density etc. : 0.35000000E+01 AA.
  Species O                   : Basic radial grid will be enhanced according to radial_multiplier =   1, to contain    36 grid points.
 
  Finished reading input file 'control.in'. Consistency checks are next.
 
  MPI_IN_PLACE appears to work with this MPI implementation.
  | Keeping use_mpi_in_place .true. (see manual).
  Target number of points in a grid batch is not set. Defaulting to  100
  Method for grid partitioning is not set. Defaulting to parallel hash+maxmin partitioning.
  Batch size limit is not set. Defaulting to    200
  By default, will store active basis functions for each batch.
  If in need of memory, prune_basis_once .false. can be used to disable this option.
  communication_type for Hartree potential was not specified.
  Defaulting to calc_hartree .
  Pulay mixer: Number of initial linear mixing iterations not set.
  Defaulting to    0 iterations.
  Work space size for distributed Hartree potential not set.
  Defaulting to   0.200000E+03 MB.
  Algorithm-dependent basis array size parameters:
  | n_max_pulay                         :       10
  Presetting      1001 iterations before the initial mixing cycle
  is restarted anyway using the sc_init_iter criterion / keyword.
  Presetting a factor      1.000 between actual scf density residual
  and density convergence criterion sc_accuracy_rho below which sc_init_iter
  takes no effect.
  Geometry relaxation not requested: no relaxation will be performed.
  Handling of forces: Unphysical translation and rotation will be removed from forces.
  No accuracy limit for integral partition fn. given. Defaulting to  0.1000E-14.
  No threshold value for u(r) in integrations given. Defaulting to  0.1000E-05.
  No accuracy for occupation numbers given. Defaulting to  0.1000E-12.
  No threshold value for occupation numbers given. Defaulting to  0.0000E+00.
  No accuracy for fermi level given. Defaulting to  0.1000E-19.
  Maximum # of iterations to find E_F not set. Defaulting to  200.
  Preferred method for the eigenvalue solver ('KS_method') not specified in 'control.in'.
  Calling BLACS routine to test compilation state
  Since ScaLAPACK support is enabled, defaulting to 'elsi'.
  Will not use alltoall communication since running on < 1024 CPUs.
  Threshold for basis singularities not set.
  Default threshold for basis singularities:  0.1000E-04
  partition_type (choice of integration weights) for integrals was not specified.
  | Using a version of the partition function of Stratmann and coworkers ('stratmann_smoother').
  | At each grid point, the set of atoms used to build the partition table is smoothly restricted to
  | only those atoms whose free-atom density would be non-zero at that grid point.
  Partitioning for Hartree potential was not defined. Using partition_type for integrals.
  | Adjusted default value of keyword multip_moments_threshold to:       0.10000000E-11
  | This value may affect high angular momentum components of the Hartree potential in periodic systems.
  No q(lm)/r^(l+1) cutoff set for long-range Hartree potential.
  | Using default value of  0.100000E-09 .
  | Verify using the multipole_threshold keyword.
  Defaulting to new monopole extrapolation.
  Density update method: automatic selection selected.
------------------------------------------------------------


------------------------------------------------------------
          Reading geometry description geometry.in.
------------------------------------------------------------
  Input structure read successfully.
  The structure contains       13 atoms,  and a total of         48.000 electrons.

  Input geometry:
  | No unit cell requested.
  | Atomic structure:
  |       Atom                x [A]            y [A]            z [A]
  |    1: Species C             0.00000000        0.00000000        0.00000000
  |    2: Species H             1.09300000        0.00000000        0.00000000
  |    3: Species N            -0.47961000        0.00000000       -1.41207000
  |    4: Species H            -1.47898000        0.20747000       -1.41807000
  |    5: Species H             0.03066000        0.71197000       -1.93058000
  |    6: Species C            -0.49584000        1.26211000        0.72868000
  |    7: Species H            -1.58789000        1.28919000        0.74431000
  |    8: Species H            -0.13407000        1.27425000        1.75947000
  |    9: Species H            -0.13407000        2.16087000        0.22380000
  |   10: Species C            -0.39425000       -1.28861000        0.74398000
  |   11: Species O            -0.10189000       -1.56493000        1.88303000
  |   12: Species O            -1.10210000       -2.13717000        0.06896000
  |   13: Species H            -0.94812000       -2.92182000        0.62177000
  |

  | The smallest distance between any two atoms is         0.97210306 AA.
  |
  | The first atom of this pair is atom number                     12 .
  | The second atom of this pair is atom number                    13 .

  Number of empty states per atom not set in control.in - providing a guess from actual geometry.
  | Total number of empty states used during s.c.f. cycle:       29
  If you use a very high smearing, use empty_states (per atom!) in control.in to increase this value.

  Structure-dependent array size parameters: 
  | Maximum number of distinct radial functions  :       21
  | Maximum number of basis functions            :      119
  | Number of Kohn-Sham states (occupied + empty):       53
------------------------------------------------------------

------------------------------------------------------------
          Preparing all fixed parts of the calculation.
------------------------------------------------------------
  Determining machine precision:
    2.225073858507201E-308
  Setting up grids for atomic and cluster calculations.

  Creating wave function, potential, and density for free atoms.

  Species: H

  List of occupied orbitals and eigenvalues:
    n    l              occ      energy [Ha]    energy [eV]
    1    0           1.0000        -0.237589        -6.4651


  Species: C

  List of occupied orbitals and eigenvalues:
    n    l              occ      energy [Ha]    energy [eV]
    1    0           2.0000       -10.038835      -273.1706
    2    0           2.0000        -0.502696       -13.6791
    2    1           2.0000        -0.191971        -5.2238


  Species: N

  List of occupied orbitals and eigenvalues:
    n    l              occ      energy [Ha]    energy [eV]
    1    0           2.0000       -14.128000      -384.4424
    2    0           2.0000        -0.681077       -18.5330
    2    1           3.0000        -0.259788        -7.0692


  Species: O

  List of occupied orbitals and eigenvalues:
    n    l              occ      energy [Ha]    energy [eV]
    1    0           2.0000       -18.898188      -514.2459
    2    0           2.0000        -0.878505       -23.9053
    2    1           4.0000        -0.331779        -9.0282

  Creating fixed part of basis set: Ionic, confined, hydrogenic.
 
  H                    hydrogenic:
 
  List of hydrogenic basis orbitals: 
    n    l      effective z      eigenvalue [eV]  inner max. [A]     outer max. [A]     outer radius [A]   
    2    0         2.100000       -14.9728           0.193243           1.317208           4.583499
    2    1         3.500000       -41.6669           0.602369           0.602369           3.723403
 
 
  C                    hydrogenic:
 
  List of hydrogenic basis orbitals: 
    n    l      effective z      eigenvalue [eV]  inner max. [A]     outer max. [A]     outer radius [A]   
    2    1         1.700000        -9.7616           1.230570           1.230570           4.607917
    3    2         6.000000       -54.4224           0.792453           0.792453           3.883070
    2    0         4.900000       -81.6679           0.082559           0.562749           3.078220
 
 
  N                    hydrogenic:
 
  List of hydrogenic basis orbitals: 
    n    l      effective z      eigenvalue [eV]  inner max. [A]     outer max. [A]     outer radius [A]   
    2    1         1.800000       -10.9749           1.177451           1.177451           4.573712
    3    2         6.800000       -69.9026           0.704619           0.704619           3.538137
    3    0         5.800000       -50.8545           0.067388           1.191934           4.250239
 
 
  O                    hydrogenic:
 
  List of hydrogenic basis orbitals: 
    n    l      effective z      eigenvalue [eV]  inner max. [A]     outer max. [A]     outer radius [A]   
    2    1         1.800000       -10.9749           1.164242           1.164242           4.578029
    3    2         7.600000       -87.3180           0.624125           0.624125           3.251020
    3    0         6.400000       -61.9207           0.061167           1.081902           4.001998
 

  Adding cutoff potential to free-atom effective potential.
  Creating atomic-like basis functions for current effective potential.

  Species H                   :

  List of atomic basis orbitals and eigenvalues:
    n    l      energy [Ha]    energy [eV]    outer radius [A]
    1    0        -0.237589        -6.4651       4.527807


  Species C                   :

  List of atomic basis orbitals and eigenvalues:
    n    l      energy [Ha]    energy [eV]    outer radius [A]
    1    0       -10.038835      -273.1706       1.934409
    2    0        -0.502696       -13.6791       4.496620
    2    1        -0.191971        -5.2238       4.551928


  Species N                   :

  List of atomic basis orbitals and eigenvalues:
    n    l      energy [Ha]    energy [eV]    outer radius [A]
    1    0       -14.128000      -384.4424       1.637919
    2    0        -0.681077       -18.5330       4.463241
    2    1        -0.259788        -7.0692       4.518138


  Species O                   :

  List of atomic basis orbitals and eigenvalues:
    n    l      energy [Ha]    energy [eV]    outer radius [A]
    1    0       -18.898188      -514.2459       1.415765
    2    0        -0.878505       -23.9053       4.413171
    2    1        -0.331779        -9.0282       4.522403

  Assembling full basis from fixed parts.
  | Species H :   atomic orbital   1 s accepted.
  | Species H :    hydro orbital   2 s accepted.
  | Species H :    hydro orbital   2 p accepted.
  | Species C :   atomic orbital   1 s accepted.
  | Species C :    hydro orbital   2 s accepted.
  | Species C :   atomic orbital   2 s accepted.
  | Species C :   atomic orbital   2 p accepted.
  | Species C :    hydro orbital   2 p accepted.
  | Species C :    hydro orbital   3 d accepted.
  | Species N :   atomic orbital   1 s accepted.
  | Species N :    hydro orbital   3 s accepted.
  | Species N :   atomic orbital   2 s accepted.
  | Species N :   atomic orbital   2 p accepted.
  | Species N :    hydro orbital   2 p accepted.
  | Species N :    hydro orbital   3 d accepted.
  | Species O :   atomic orbital   1 s accepted.
  | Species O :    hydro orbital   3 s accepted.
  | Species O :   atomic orbital   2 s accepted.
  | Species O :   atomic orbital   2 p accepted.
  | Species O :    hydro orbital   2 p accepted.
  | Species O :    hydro orbital   3 d accepted.
 
  Basis size parameters after reduction:
  | Total number of radial functions:       21
  | Total number of basis functions :      119
 
  Per-task memory consumption for arrays in subroutine allocate_ext:
  |           5.250512MB.
  Testing on-site integration grid accuracy.
  |  Species  Function  <phi|h_atom|phi> (log., in eV)  <phi|h_atom|phi> (rad., in eV)
           1        1                 -6.4663192853                 -6.4651273558
           1        2                 13.7111246313                 13.7170609718
           1        3                 25.2673269279                 25.2674696378
           2        4               -273.1705927641               -273.1705631568
           2        5                -10.7109323383                -10.7107120029
           2        6                 17.4381822266                 17.4352413244
           2        7                 -5.2255326521                 -5.2270484734
           2        8                  8.6835629259                  8.6603288385
           2        9                 27.4952418996                 27.4953360207
           3       10               -384.4424306495               -384.4423701208
           3       11                 12.5842251816                 12.5842222903
           3       12                -15.7264628251                -15.7264433455
           3       13                 -7.0696854293                 -7.0701769954
           3       14                  8.8090390882                  8.7901077751
           3       15                 35.9586762123                 35.9588528632
           4       16               -514.2458688638               -514.2457643834
           4       17                 15.1795651126                 15.1795290741
           4       18                -21.5359799773                -21.5360846186
           4       19                 -9.0283069236                 -9.0284644067
           4       20                  8.3027758564                  8.2834874195
           4       21                 45.8339351984                 45.8338762259

  Preparing densities etc. for the partition functions (integrals / Hartree potential).

  Preparations completed.
  max(cpu_time)          :      0.166 s.
  Wall clock time (cpu1) :      0.166 s.
------------------------------------------------------------

------------------------------------------------------------
          Begin self-consistency loop: Initialization.

          Date     :  20200505, Time     :  083430.914
------------------------------------------------------------

  Initializing index lists of integration centers etc. from given atomic structure:
  | Number of centers in hartree potential         :        13
  | Number of centers in hartree multipole         :        13
  | Number of centers in electron density summation:        13
  | Number of centers in basis integrals           :        13
  | Number of centers in integrals                 :        13
  | Number of centers in hamiltonian               :        13
  * Using 20 tasks for Scalapack Eigenvalue solver.
  Detailed listing of tasks and assigned k-points:
  (for non-periodic systems, the "k-point" denotes an internal label only)
   Task     0 k-point     1 on r05c54.bullx
   Task     1 k-point     1 on r05c54.bullx
   Task     2 k-point     1 on r05c54.bullx
   Task     3 k-point     1 on r05c54.bullx
   Task     4 k-point     1 on r05c54.bullx
   Task     5 k-point     1 on r05c54.bullx
   Task     6 k-point     1 on r05c54.bullx
   Task     7 k-point     1 on r05c54.bullx
   Task     8 k-point     1 on r05c54.bullx
   Task     9 k-point     1 on r05c54.bullx
   Task    10 k-point     1 on r05c54.bullx
   Task    11 k-point     1 on r05c54.bullx
   Task    12 k-point     1 on r05c54.bullx
   Task    13 k-point     1 on r05c54.bullx
   Task    14 k-point     1 on r05c54.bullx
   Task    15 k-point     1 on r05c54.bullx
   Task    16 k-point     1 on r05c54.bullx
   Task    17 k-point     1 on r05c54.bullx
   Task    18 k-point     1 on r05c54.bullx
   Task    19 k-point     1 on r05c54.bullx
  Tasks:    20 split into      5 X      4 BLACS grid
  Calculating block size based on n_basis =          119  max_nprow =            5  max_npcol =            4
  ScaLAPACK block size set to:           16
  Allocating        0.008 MB for ovlp
  Allocating        0.008 MB for ham
  Allocating        0.008 MB for eigenvec
  Required Scalapack workspace - INTEGER:            1  REAL:             1
  Partitioning the integration grid into batches with parallel hashing+maxmin method.
  | Number of batches:      809
  | Maximal batch size:     192
  | Minimal batch size:      49
  | Average batch size:      86.089
  | Standard deviation of batch sizes:      21.724

  Integration load balanced across    20 MPI tasks.
  Work distribution over tasks is as follows:
  Task     0 has       3473 integration points.
  Task     1 has       3522 integration points.
  Task     2 has       3582 integration points.
  Task     3 has       3451 integration points.
  Task     4 has       3469 integration points.
  Task     5 has       3445 integration points.
  Task     6 has       3450 integration points.
  Task     7 has       3476 integration points.
  Task     8 has       3500 integration points.
  Task     9 has       3523 integration points.
  Task    10 has       3434 integration points.
  Task    11 has       3526 integration points.
  Task    12 has       3435 integration points.
  Task    13 has       3437 integration points.
  Task    14 has       3591 integration points.
  Task    15 has       3439 integration points.
  Task    16 has       3484 integration points.
  Task    17 has       3441 integration points.
  Task    18 has       3465 integration points.
  Task    19 has       3503 integration points.
  Initializing partition tables, free-atom densities, potentials, etc. across the integration grid (initialize_grid_storage).
  | initialize_grid_storage: Actual outermost partition radius vs. multipole_radius_free
  | (-- VB: in principle, multipole_radius_free should be larger, hence this output)
  | Species        1: Confinement radius =              4.999999999999999 AA, multipole_radius_free =              5.054417573612229 AA.
  | Species        1: outer_partition_radius set to              5.054417573612229 AA .
  | Species        2: Confinement radius =              4.999999999999999 AA, multipole_radius_free =              5.019602836301480 AA.
  | Species        2: outer_partition_radius set to              5.019602836301480 AA .
  | Species        3: Confinement radius =              4.999999999999999 AA, multipole_radius_free =              5.043624274424571 AA.
  | Species        3: outer_partition_radius set to              5.043624274424571 AA .
  | Species        4: Confinement radius =              4.999999999999999 AA, multipole_radius_free =              5.048384829883283 AA.
  | Species        4: outer_partition_radius set to              5.048384829883283 AA .
  | Original list of interatomic distances with          13 x         13 entries is created.
  | Net number of integration points:    69646
  | of which are non-zero points    :    59567
  Renormalizing the initial density to the exact electron count on the 3D integration grid.
  | Initial density: Formal number of electrons (from input files) :      48.0000000000
  | Integrated number of electrons on 3D grid     :      47.9999842786
  | Charge integration error                      :      -0.0000157214
  | Normalization factor for density and gradient :       1.0000003275
  Obtaining max. number of non-zero basis functions in each batch (get_n_compute_maxes).
  | Maximal number of non-zero basis functions:      118 in task     0
  | Maximal number of non-zero basis functions:      117 in task     1
  | Maximal number of non-zero basis functions:      118 in task     2
  | Maximal number of non-zero basis functions:      119 in task     3
  | Maximal number of non-zero basis functions:      118 in task     4
  | Maximal number of non-zero basis functions:      118 in task     5
  | Maximal number of non-zero basis functions:      118 in task     6
  | Maximal number of non-zero basis functions:      117 in task     7
  | Maximal number of non-zero basis functions:      118 in task     8
  | Maximal number of non-zero basis functions:      117 in task     9
  | Maximal number of non-zero basis functions:      118 in task    10
  | Maximal number of non-zero basis functions:      118 in task    11
  | Maximal number of non-zero basis functions:      117 in task    12
  | Maximal number of non-zero basis functions:      117 in task    13
  | Maximal number of non-zero basis functions:      117 in task    14
  | Maximal number of non-zero basis functions:      118 in task    15
  | Maximal number of non-zero basis functions:      119 in task    16
  | Maximal number of non-zero basis functions:      118 in task    17
  | Maximal number of non-zero basis functions:      118 in task    18
  | Maximal number of non-zero basis functions:      118 in task    19
  Selecting the method for density update.
  Loop over occupied states selected for charge density update.
  Allocating        0.050 MB for KS_eigenvector
  Integrating Hamiltonian matrix: batch-based integration.
  Time summed over all CPUs for integration: real work        0.519 s, elapsed        0.555 s
  Integrating overlap matrix.
  Time summed over all CPUs for integration: real work        0.213 s, elapsed        0.225 s
  Deallocating overlap matrix.

  Updating Kohn-Sham eigenvalues and eigenvectors using ELSI and the ELPA eigensolver.
  ELPA settings:
  | ELPA solver          1
  | Time full => band           :     0.001 s
  | Time band => tridiagonal    :     0.001 s
  | Time solve tridiagonal      :     0.001 s
  Overlap matrix is nonsingular
  | Lowest eigenvalue of overlap  :  0.56E-02
  | Highest eigenvalue of overlap :  0.61E+01
  Finished singularity check of overlap matrix
  | Time :     0.003 s
  Finished Cholesky decomposition
  | Time :     0.001 s
  Finished transformation to standard eigenproblem
  | Time :     0.001 s
  Starting ELPA eigensolver
  | Time full => tridiagonal    :     0.002 s
  | Time solve tridiagonal      :     0.000 s
  | Time ev tridiagonal => full :     0.001 s
  Finished solving standard eigenproblem
  | Time :     0.003 s
  Finished back-transformation of eigenvectors
  | Time :     0.000 s

  Obtaining occupation numbers and chemical potential using ELSI.
  | Chemical potential (Fermi level):    -8.81806062eV
  Writing Kohn-Sham eigenvalues.

  State    Occupation    Eigenvalue [Ha]    Eigenvalue [eV]
      1       2.00000         -19.007542         -517.22154
      2       2.00000         -18.978261         -516.42476
      3       2.00000         -14.245788         -387.64761
      4       2.00000         -10.166798         -276.65266
      5       2.00000         -10.141236         -275.95708
      6       2.00000         -10.131920         -275.70356
      7       2.00000          -1.187837          -32.32269
      8       2.00000          -1.092982          -29.74157
      9       2.00000          -0.992198          -26.99908
     10       2.00000          -0.858659          -23.36531
     11       2.00000          -0.763776          -20.78340
     12       2.00000          -0.681394          -18.54168
     13       2.00000          -0.619679          -16.86231
     14       2.00000          -0.602066          -16.38306
     15       2.00000          -0.587325          -15.98193
     16       2.00000          -0.559842          -15.23407
     17       2.00000          -0.554882          -15.09910
     18       2.00000          -0.534466          -14.54355
     19       2.00000          -0.525832          -14.30862
     20       2.00000          -0.489818          -13.32862
     21       2.00000          -0.477041          -12.98094
     22       2.00000          -0.427677          -11.63769
     23       2.00000          -0.409440          -11.14143
     24       2.00000          -0.387219          -10.53677
     25       0.00000          -0.149619           -4.07133
     26       0.00000          -0.059673           -1.62378
     27       0.00000          -0.026943           -0.73316
     28       0.00000          -0.020136           -0.54793
     29       0.00000          -0.006800           -0.18504
     30       0.00000           0.009599            0.26121
     31       0.00000           0.020870            0.56791
     32       0.00000           0.039796            1.08292
     33       0.00000           0.045566            1.23991
     34       0.00000           0.061714            1.67932
     35       0.00000           0.080750            2.19732
     36       0.00000           0.134798            3.66804
     37       0.00000           0.149366            4.06445
     38       0.00000           0.201126            5.47291
     39       0.00000           0.208754            5.68048
     40       0.00000           0.225257            6.12955
     41       0.00000           0.258642            7.03800
     42       0.00000           0.273040            7.42980
     43       0.00000           0.289569            7.87958
     44       0.00000           0.306384            8.33713
     45       0.00000           0.327164            8.90259
     46       0.00000           0.346794            9.43674
     47       0.00000           0.378024           10.28655
     48       0.00000           0.394858           10.74464
     49       0.00000           0.439943           11.97147
     50       0.00000           0.460319           12.52592
     51       0.00000           0.514201           13.99211
     52       0.00000           0.536728           14.60511
     53       0.00000           0.594802           16.18539

  Highest occupied state (VBM) at    -10.53676501 eV
  | Occupation number:      2.00000000

  Lowest unoccupied state (CBM) at    -4.07133384 eV
  | Occupation number:      0.00000000

  Overall HOMO-LUMO gap:      6.46543117 eV.
  Calculating total energy contributions from superposition of free atom densities.

  Total energy components:
  | Sum of eigenvalues            :        -188.84735801 Ha       -5138.79807068 eV
  | XC energy correction          :         -41.78567914 Ha       -1137.04618159 eV
  | XC potential correction       :          53.71575622 Ha        1461.68009613 eV
  | Free-atom electrostatic energy:        -146.85656251 Ha       -3996.17038892 eV
  | Hartree energy correction     :           0.00000000 Ha           0.00000000 eV
  | vdW energy correction         :           0.00000000 Ha           0.00000000 eV
  | Entropy correction            :           0.00000000 Ha           0.00000000 eV
  | ---------------------------
  | Total energy                  :        -323.77384345 Ha       -8810.33454508 eV
  | Total energy, T -> 0          :        -323.77384345 Ha       -8810.33454508 eV  <-- do not rely on this value for anything but (periodic) metals
  | Electronic free energy        :        -323.77384345 Ha       -8810.33454508 eV

  Derived energy quantities:
  | Kinetic energy                :         320.47726209 Ha        8720.63000233 eV
  | Electrostatic energy          :        -602.46542640 Ha      -16393.91836581 eV
  | Energy correction for multipole
  | error in Hartree potential    :           0.00000000 Ha           0.00000000 eV
  | Sum of eigenvalues per atom                           :        -395.29215928 eV
  | Total energy (T->0) per atom                          :        -677.71804193 eV  <-- do not rely on this value for anything but (periodic) metals
  | Electronic free energy per atom                       :        -677.71804193 eV
  Initialize hartree_potential_storage
  Max. number of atoms included in rho_multipole:           13

  End scf initialization - timings             :  max(cpu_time)    wall_clock(cpu1)
  | Time for scf. initialization               :        0.094 s           0.094 s
  | Boundary condition initialization          :        0.000 s           0.000 s
  | Integration                                :        0.040 s           0.040 s
  | Solution of K.-S. eqns.                    :        0.009 s           0.009 s
  | Grid partitioning                          :        0.022 s           0.022 s
  | Preloading free-atom quantities on grid    :        0.003 s           0.002 s
  | Free-atom superposition energy             :        0.005 s           0.005 s
  | Total energy evaluation                    :        0.000 s           0.000 s

  Partial memory accounting:
  | Current value for overall tracked memory usage on task 0  :           0.133 MB
  | Peak value for overall tracked memory usage on task 0     :           0.848 MB after allocating wave
  | Largest tracked array allocation on task 0 so far         :           0.181 MB  when allocating H_times_psi
  Note:  These values currently only include a subset of arrays which are explicitly tracked.
  The "true" memory usage will be greater.
------------------------------------------------------------

------------------------------------------------------------
          Begin self-consistency iteration #    1

  Date     :  20200505, Time     :  083431.009
------------------------------------------------------------
  Evaluating new KS density.
  Integration grid: deviation in total charge (<rho> - N_e) =   0.000000E+00
  Pulay mixing of updated and previous charge densities.

  Evaluating partitioned Hartree potential by multipole expansion.
  | Analytical far-field extrapolation by fixed multipoles:
  | Hartree multipole sum: apparent total charge =  -0.128665E-03
  Summing up the Hartree potential.
  Time summed over all CPUs for potential: real work        0.419 s, elapsed        0.432 s
  | RMS charge density error from multipole expansion :   0.588922E-02

  Integrating Hamiltonian matrix: batch-based integration.
  Time summed over all CPUs for integration: real work        0.510 s, elapsed        0.550 s

  Updating Kohn-Sham eigenvalues and eigenvectors using ELSI and the ELPA eigensolver.
  ELPA settings:
  | ELPA solver          1
  Finished transformation to standard eigenproblem
  | Time :     0.000 s
  Starting ELPA eigensolver
  | Time full => tridiagonal    :     0.002 s
  | Time solve tridiagonal      :     0.000 s
  | Time ev tridiagonal => full :     0.000 s
  Finished solving standard eigenproblem
  | Time :     0.003 s
  Finished back-transformation of eigenvectors
  | Time :     0.000 s

  Obtaining occupation numbers and chemical potential using ELSI.
  | Chemical potential (Fermi level):    -7.69996865eV
  Writing Kohn-Sham eigenvalues.

  State    Occupation    Eigenvalue [Ha]    Eigenvalue [eV]
      1       2.00000         -18.902907         -514.37427
      2       2.00000         -18.837695         -512.59977
      3       2.00000         -14.094801         -383.53904
      4       2.00000         -10.113442         -275.20075
      5       2.00000         -10.062124         -273.80433
      6       2.00000         -10.031022         -272.95800
      7       2.00000          -1.136899          -30.93659
      8       2.00000          -1.029455          -28.01291
      9       2.00000          -0.920977          -25.06106
     10       2.00000          -0.792307          -21.55976
     11       2.00000          -0.712242          -19.38110
     12       2.00000          -0.633499          -17.23839
     13       2.00000          -0.562584          -15.30868
     14       2.00000          -0.537504          -14.62623
     15       2.00000          -0.525756          -14.30655
     16       2.00000          -0.504117          -13.71773
     17       2.00000          -0.493379          -13.42553
     18       2.00000          -0.473377          -12.88124
     19       2.00000          -0.463970          -12.62526
     20       2.00000          -0.432598          -11.77158
     21       2.00000          -0.424489          -11.55094
     22       2.00000          -0.365348           -9.94162
     23       2.00000          -0.336622           -9.15994
     24       2.00000          -0.311022           -8.46334
     25       0.00000          -0.111634           -3.03772
     26       0.00000          -0.031528           -0.85793
     27       0.00000          -0.000907           -0.02467
     28       0.00000           0.017613            0.47926
     29       0.00000           0.022353            0.60824
     30       0.00000           0.048523            1.32037
     31       0.00000           0.058239            1.58475
     32       0.00000           0.076776            2.08919
     33       0.00000           0.088940            2.42019
     34       0.00000           0.102909            2.80030
     35       0.00000           0.124302            3.38243
     36       0.00000           0.162968            4.43458
     37       0.00000           0.176629            4.80633
     38       0.00000           0.226222            6.15581
     39       0.00000           0.239259            6.51057
     40       0.00000           0.265553            7.22607
     41       0.00000           0.291696            7.93747
     42       0.00000           0.311133            8.46636
     43       0.00000           0.322368            8.77207
     44       0.00000           0.344052            9.36212
     45       0.00000           0.368589           10.02981
     46       0.00000           0.387411           10.54200
     47       0.00000           0.417398           11.35798
     48       0.00000           0.432257           11.76231
     49       0.00000           0.479487           13.04750
     50       0.00000           0.496273           13.50426
     51       0.00000           0.554512           15.08904
     52       0.00000           0.570614           15.52719
     53       0.00000           0.632766           17.21844

  Highest occupied state (VBM) at     -8.46333783 eV
  | Occupation number:      2.00000000

  Lowest unoccupied state (CBM) at    -3.03771815 eV
  | Occupation number:      0.00000000

  Overall HOMO-LUMO gap:      5.42561967 eV.

  Total energy components:
  | Sum of eigenvalues            :        -185.39627059 Ha       -5044.88920395 eV
  | XC energy correction          :         -42.11463768 Ha       -1145.99759887 eV
  | XC potential correction       :          54.14363736 Ha        1473.32333431 eV
  | Free-atom electrostatic energy:        -146.85656251 Ha       -3996.17038892 eV
  | Hartree energy correction     :          -3.36905954 Ha         -91.67677449 eV
  | vdW energy correction         :           0.00000000 Ha           0.00000000 eV
  | Entropy correction            :           0.00000000 Ha           0.00000000 eV
  | ---------------------------
  | Total energy                  :        -323.59289296 Ha       -8805.41063193 eV
  | Total energy, T -> 0          :        -323.59289296 Ha       -8805.41063193 eV  <-- do not rely on this value for anything but (periodic) metals
  | Electronic free energy        :        -323.59289296 Ha       -8805.41063193 eV

  Derived energy quantities:
  | Kinetic energy                :         322.26784319 Ha        8769.35419308 eV
  | Electrostatic energy          :        -603.74609848 Ha      -16428.76722614 eV
  | Energy correction for multipole
  | error in Hartree potential    :           0.01208676 Ha           0.32889740 eV
  | Sum of eigenvalues per atom                           :        -388.06840030 eV
  | Total energy (T->0) per atom                          :        -677.33927938 eV  <-- do not rely on this value for anything but (periodic) metals
  | Electronic free energy per atom                       :        -677.33927938 eV

  Self-consistency convergence accuracy:
  | Change of charge density      :  0.5810E+00
  | Change of sum of eigenvalues  :  0.9391E+02 eV
  | Change of total energy        :  0.4924E+01 eV

  End self-consistency iteration #     1       :  max(cpu_time)    wall_clock(cpu1)
  | Time for this iteration                    :        0.078 s           0.078 s
  | Charge density update                      :        0.022 s           0.021 s
  | Density mixing                             :        0.000 s           0.001 s
  | Hartree multipole update                   :        0.001 s           0.001 s
  | Hartree multipole summation                :        0.022 s           0.022 s
  | Integration                                :        0.028 s           0.028 s
  | Solution of K.-S. eqns.                    :        0.004 s           0.004 s
  | Total energy evaluation                    :        0.000 s           0.001 s

  Partial memory accounting:
  | Current value for overall tracked memory usage on task 0  :           0.133 MB
  | Peak value for overall tracked memory usage on task 0     :           0.858 MB after allocating gradient_basis_wave
  | Largest tracked array allocation on task 0 so far         :           0.544 MB  when allocating gradient_basis_wave
  Note:  These values currently only include a subset of arrays which are explicitly tracked.
  The "true" memory usage will be greater.
------------------------------------------------------------

------------------------------------------------------------
          Begin self-consistency iteration #    2

  Date     :  20200505, Time     :  083431.091
------------------------------------------------------------
  Evaluating new KS density.
  Integration grid: deviation in total charge (<rho> - N_e) =  -7.105427E-15
  Pulay mixing of updated and previous charge densities.

  Evaluating partitioned Hartree potential by multipole expansion.
  | Analytical far-field extrapolation by fixed multipoles:
  | Hartree multipole sum: apparent total charge =  -0.275024E-03
  Summing up the Hartree potential.
  Time summed over all CPUs for potential: real work        0.418 s, elapsed        0.429 s
  | RMS charge density error from multipole expansion :   0.141181E-01

  Integrating Hamiltonian matrix: batch-based integration.
  Time summed over all CPUs for integration: real work        0.510 s, elapsed        0.542 s

  Updating Kohn-Sham eigenvalues and eigenvectors using ELSI and the ELPA eigensolver.
  ELPA settings:
  | ELPA solver          1
  Finished transformation to standard eigenproblem
  | Time :     0.000 s
  Starting ELPA eigensolver
  | Time full => tridiagonal    :     0.002 s
  | Time solve tridiagonal      :     0.000 s
  | Time ev tridiagonal => full :     0.000 s
  Finished solving standard eigenproblem
  | Time :     0.003 s
  Finished back-transformation of eigenvectors
  | Time :     0.000 s

  Obtaining occupation numbers and chemical potential using ELSI.
  | Chemical potential (Fermi level):    -2.22558393eV
  Highest occupied state (VBM) at     -6.33630735 eV
  | Occupation number:      2.00000000

  Lowest unoccupied state (CBM) at    -1.72859137 eV
  | Occupation number:      0.00000000

  Overall HOMO-LUMO gap:      4.60771598 eV.

  Checking to see if s.c.f. parameters should be adjusted.

  Total energy components:
  | Sum of eigenvalues            :        -181.72783290 Ha       -4945.06593549 eV
  | XC energy correction          :         -42.47999853 Ha       -1155.93957344 eV
  | XC potential correction       :          54.61732621 Ha        1486.21306378 eV
  | Free-atom electrostatic energy:        -146.85656251 Ha       -3996.17038892 eV
  | Hartree energy correction     :          -7.06731559 Ha        -192.31144177 eV
  | vdW energy correction         :           0.00000000 Ha           0.00000000 eV
  | Entropy correction            :           0.00000000 Ha           0.00000000 eV
  | ---------------------------
  | Total energy                  :        -323.51438332 Ha       -8803.27427584 eV
  | Total energy, T -> 0          :        -323.51438332 Ha       -8803.27427584 eV  <-- do not rely on this value for anything but (periodic) metals
  | Electronic free energy        :        -323.51438332 Ha       -8803.27427584 eV

  Derived energy quantities:
  | Kinetic energy                :         323.60917107 Ha        8805.85358179 eV
  | Electrostatic energy          :        -604.64355587 Ha      -16453.18828420 eV
  | Energy correction for multipole
  | error in Hartree potential    :           0.02702783 Ha           0.73546477 eV
  | Sum of eigenvalues per atom                           :        -380.38968735 eV
  | Total energy (T->0) per atom                          :        -677.17494430 eV  <-- do not rely on this value for anything but (periodic) metals
  | Electronic free energy per atom                       :        -677.17494430 eV

  Self-consistency convergence accuracy:
  | Change of charge density      :  0.3626E+00
  | Change of sum of eigenvalues  :  0.9982E+02 eV
  | Change of total energy        :  0.2136E+01 eV

  End self-consistency iteration #     2       :  max(cpu_time)    wall_clock(cpu1)
  | Time for this iteration                    :        0.077 s           0.076 s
  | Charge density update                      :        0.021 s           0.020 s
  | Density mixing                             :        0.001 s           0.001 s
  | Hartree multipole update                   :        0.001 s           0.001 s
  | Hartree multipole summation                :        0.022 s           0.022 s
  | Integration                                :        0.027 s           0.028 s
  | Solution of K.-S. eqns.                    :        0.004 s           0.003 s
  | Total energy evaluation                    :        0.000 s           0.000 s

  Partial memory accounting:
  | Current value for overall tracked memory usage on task 0  :           0.134 MB
  | Peak value for overall tracked memory usage on task 0     :           0.858 MB after allocating gradient_basis_wave
  | Largest tracked array allocation on task 0 so far         :           0.544 MB  when allocating gradient_basis_wave
  Note:  These values currently only include a subset of arrays which are explicitly tracked.
  The "true" memory usage will be greater.
------------------------------------------------------------

------------------------------------------------------------
          Begin self-consistency iteration #    3

  Date     :  20200505, Time     :  083431.172
------------------------------------------------------------
  Evaluating new KS density.
  Integration grid: deviation in total charge (<rho> - N_e) =   1.421085E-14
  Pulay mixing of updated and previous charge densities.

  Evaluating partitioned Hartree potential by multipole expansion.
  | Analytical far-field extrapolation by fixed multipoles:
  | Hartree multipole sum: apparent total charge =  -0.379768E-03
  Summing up the Hartree potential.
  Time summed over all CPUs for potential: real work        0.418 s, elapsed        0.431 s
  | RMS charge density error from multipole expansion :   0.225164E-01

  Integrating Hamiltonian matrix: batch-based integration.
  Time summed over all CPUs for integration: real work        0.510 s, elapsed        0.540 s

  Updating Kohn-Sham eigenvalues and eigenvectors using ELSI and the ELPA eigensolver.
  ELPA settings:
  | ELPA solver          1
  Finished transformation to standard eigenproblem
  | Time :     0.000 s
  Starting ELPA eigensolver
  | Time full => tridiagonal    :     0.002 s
  | Time solve tridiagonal      :     0.000 s
  | Time ev tridiagonal => full :     0.000 s
  Finished solving standard eigenproblem
  | Time :     0.003 s
  Finished back-transformation of eigenvectors
  | Time :     0.000 s

  Obtaining occupation numbers and chemical potential using ELSI.
  | Chemical potential (Fermi level):    -1.50397569eV
  Highest occupied state (VBM) at     -5.67400551 eV
  | Occupation number:      2.00000000

  Lowest unoccupied state (CBM) at    -1.03176365 eV
  | Occupation number:      0.00000000

  Overall HOMO-LUMO gap:      4.64224186 eV.

  Total energy components:
  | Sum of eigenvalues            :        -180.46506514 Ha       -4910.70427625 eV
  | XC energy correction          :         -42.62774404 Ha       -1159.95993352 eV
  | XC potential correction       :          54.80548759 Ha        1491.33319545 eV
  | Free-atom electrostatic energy:        -146.85656251 Ha       -3996.17038892 eV
  | Hartree energy correction     :          -8.35834584 Ha        -227.44216248 eV
  | vdW energy correction         :           0.00000000 Ha           0.00000000 eV
  | Entropy correction            :           0.00000000 Ha           0.00000000 eV
  | ---------------------------
  | Total energy                  :        -323.50222995 Ha       -8802.94356571 eV
  | Total energy, T -> 0          :        -323.50222995 Ha       -8802.94356571 eV  <-- do not rely on this value for anything but (periodic) metals
  | Electronic free energy        :        -323.50222995 Ha       -8802.94356571 eV

  Derived energy quantities:
  | Kinetic energy                :         323.12108893 Ha        8792.57219101 eV
  | Electrostatic energy          :        -603.99557484 Ha      -16435.55582320 eV
  | Energy correction for multipole
  | error in Hartree potential    :           0.03885764 Ha           1.05737026 eV
  | Sum of eigenvalues per atom                           :        -377.74648279 eV
  | Total energy (T->0) per atom                          :        -677.14950505 eV  <-- do not rely on this value for anything but (periodic) metals
  | Electronic free energy per atom                       :        -677.14950505 eV

  Self-consistency convergence accuracy:
  | Change of charge density      :  0.2009E+00
  | Change of sum of eigenvalues  :  0.3436E+02 eV
  | Change of total energy        :  0.3307E+00 eV

  End self-consistency iteration #     3       :  max(cpu_time)    wall_clock(cpu1)
  | Time for this iteration                    :        0.077 s           0.076 s
  | Charge density update                      :        0.022 s           0.020 s
  | Density mixing                             :        0.001 s           0.001 s
  | Hartree multipole update                   :        0.001 s           0.001 s
  | Hartree multipole summation                :        0.022 s           0.022 s
  | Integration                                :        0.027 s           0.027 s
  | Solution of K.-S. eqns.                    :        0.004 s           0.004 s
  | Total energy evaluation                    :        0.000 s           0.000 s

  Partial memory accounting:
  | Current value for overall tracked memory usage on task 0  :           0.134 MB
  | Peak value for overall tracked memory usage on task 0     :           0.859 MB after allocating gradient_basis_wave
  | Largest tracked array allocation on task 0 so far         :           0.544 MB  when allocating gradient_basis_wave
  Note:  These values currently only include a subset of arrays which are explicitly tracked.
  The "true" memory usage will be greater.
------------------------------------------------------------

------------------------------------------------------------
          Begin self-consistency iteration #    4

  Date     :  20200505, Time     :  083431.252
------------------------------------------------------------
  Evaluating new KS density.
  Integration grid: deviation in total charge (<rho> - N_e) =   1.421085E-14
  Pulay mixing of updated and previous charge densities.

  Evaluating partitioned Hartree potential by multipole expansion.
  | Analytical far-field extrapolation by fixed multipoles:
  | Hartree multipole sum: apparent total charge =  -0.412050E-03
  Summing up the Hartree potential.
  Time summed over all CPUs for potential: real work        0.410 s, elapsed        0.421 s
  | RMS charge density error from multipole expansion :   0.256928E-01

  Integrating Hamiltonian matrix: batch-based integration.
  Time summed over all CPUs for integration: real work        0.510 s, elapsed        0.543 s

  Updating Kohn-Sham eigenvalues and eigenvectors using ELSI and the ELPA eigensolver.
  ELPA settings:
  | ELPA solver          1
  Finished transformation to standard eigenproblem
  | Time :     0.000 s
  Starting ELPA eigensolver
  | Time full => tridiagonal    :     0.002 s
  | Time solve tridiagonal      :     0.000 s
  | Time ev tridiagonal => full :     0.000 s
  Finished solving standard eigenproblem
  | Time :     0.003 s
  Finished back-transformation of eigenvectors
  | Time :     0.000 s

  Obtaining occupation numbers and chemical potential using ELSI.
  | Chemical potential (Fermi level):    -1.42807910eV
  Highest occupied state (VBM) at     -5.49944492 eV
  | Occupation number:      2.00000000

  Lowest unoccupied state (CBM) at    -0.95728944 eV
  | Occupation number:      0.00000000

  Overall HOMO-LUMO gap:      4.54215548 eV.

  Total energy components:
  | Sum of eigenvalues            :        -180.30956442 Ha       -4906.47288642 eV
  | XC energy correction          :         -42.66437989 Ha       -1160.95684567 eV
  | XC potential correction       :          54.85174170 Ha        1492.59183388 eV
  | Free-atom electrostatic energy:        -146.85656251 Ha       -3996.17038892 eV
  | Hartree energy correction     :          -8.52273620 Ha        -231.91545169 eV
  | vdW energy correction         :           0.00000000 Ha           0.00000000 eV
  | Entropy correction            :           0.00000000 Ha           0.00000000 eV
  | ---------------------------
  | Total energy                  :        -323.50150132 Ha       -8802.92373883 eV
  | Total energy, T -> 0          :        -323.50150132 Ha       -8802.92373883 eV  <-- do not rely on this value for anything but (periodic) metals
  | Electronic free energy        :        -323.50150132 Ha       -8802.92373883 eV

  Derived energy quantities:
  | Kinetic energy                :         322.78462734 Ha        8783.41660511 eV
  | Electrostatic energy          :        -603.62174877 Ha      -16425.38349827 eV
  | Energy correction for multipole
  | error in Hartree potential    :           0.04295068 Ha           1.16874738 eV
  | Sum of eigenvalues per atom                           :        -377.42099126 eV
  | Total energy (T->0) per atom                          :        -677.14797991 eV  <-- do not rely on this value for anything but (periodic) metals
  | Electronic free energy per atom                       :        -677.14797991 eV

  Self-consistency convergence accuracy:
  | Change of charge density      :  0.5822E-01
  | Change of sum of eigenvalues  :  0.4231E+01 eV
  | Change of total energy        :  0.1983E-01 eV

  End self-consistency iteration #     4       :  max(cpu_time)    wall_clock(cpu1)
  | Time for this iteration                    :        0.076 s           0.075 s
  | Charge density update                      :        0.021 s           0.020 s
  | Density mixing                             :        0.001 s           0.001 s
  | Hartree multipole update                   :        0.001 s           0.001 s
  | Hartree multipole summation                :        0.021 s           0.022 s
  | Integration                                :        0.027 s           0.027 s
  | Solution of K.-S. eqns.                    :        0.003 s           0.004 s
  | Total energy evaluation                    :        0.000 s           0.000 s

  Partial memory accounting:
  | Current value for overall tracked memory usage on task 0  :           0.134 MB
  | Peak value for overall tracked memory usage on task 0     :           0.859 MB after allocating gradient_basis_wave
  | Largest tracked array allocation on task 0 so far         :           0.544 MB  when allocating gradient_basis_wave
  Note:  These values currently only include a subset of arrays which are explicitly tracked.
  The "true" memory usage will be greater.
------------------------------------------------------------

------------------------------------------------------------
          Begin self-consistency iteration #    5

  Date     :  20200505, Time     :  083431.332
------------------------------------------------------------
  Evaluating new KS density.
  Integration grid: deviation in total charge (<rho> - N_e) =   1.421085E-14
  Pulay mixing of updated and previous charge densities.

  Evaluating partitioned Hartree potential by multipole expansion.
  | Analytical far-field extrapolation by fixed multipoles:
  | Hartree multipole sum: apparent total charge =  -0.405908E-03
  Summing up the Hartree potential.
  Time summed over all CPUs for potential: real work        0.410 s, elapsed        0.421 s
  | RMS charge density error from multipole expansion :   0.254272E-01

  Integrating Hamiltonian matrix: batch-based integration.
  Time summed over all CPUs for integration: real work        0.510 s, elapsed        0.541 s

  Updating Kohn-Sham eigenvalues and eigenvectors using ELSI and the ELPA eigensolver.
  ELPA settings:
  | ELPA solver          1
  Finished transformation to standard eigenproblem
  | Time :     0.000 s
  Starting ELPA eigensolver
  | Time full => tridiagonal    :     0.002 s
  | Time solve tridiagonal      :     0.000 s
  | Time ev tridiagonal => full :     0.000 s
  Finished solving standard eigenproblem
  | Time :     0.003 s
  Finished back-transformation of eigenvectors
  | Time :     0.000 s

  Obtaining occupation numbers and chemical potential using ELSI.
  | Chemical potential (Fermi level):    -1.48944103eV
  Highest occupied state (VBM) at     -5.57934251 eV
  | Occupation number:      2.00000000

  Lowest unoccupied state (CBM) at    -1.03353519 eV
  | Occupation number:      0.00000000

  Overall HOMO-LUMO gap:      4.54580732 eV.

  Total energy components:
  | Sum of eigenvalues            :        -180.48654257 Ha       -4911.28870690 eV
  | XC energy correction          :         -42.64271761 Ha       -1160.36738501 eV
  | XC potential correction       :          54.82365214 Ha        1491.82747810 eV
  | Free-atom electrostatic energy:        -146.85656251 Ha       -3996.17038892 eV
  | Hartree energy correction     :          -8.33903481 Ha        -226.91668252 eV
  | vdW energy correction         :           0.00000000 Ha           0.00000000 eV
  | Entropy correction            :           0.00000000 Ha           0.00000000 eV
  | ---------------------------
  | Total energy                  :        -323.50120536 Ha       -8802.91568526 eV
  | Total energy, T -> 0          :        -323.50120536 Ha       -8802.91568526 eV  <-- do not rely on this value for anything but (periodic) metals
  | Electronic free energy        :        -323.50120536 Ha       -8802.91568526 eV

  Derived energy quantities:
  | Kinetic energy                :         322.69269968 Ha        8780.91512646 eV
  | Electrostatic energy          :        -603.55118743 Ha      -16423.46342671 eV
  | Energy correction for multipole
  | error in Hartree potential    :           0.04234673 Ha           1.15231318 eV
  | Sum of eigenvalues per atom                           :        -377.79143899 eV
  | Total energy (T->0) per atom                          :        -677.14736040 eV  <-- do not rely on this value for anything but (periodic) metals
  | Electronic free energy per atom                       :        -677.14736040 eV

  Self-consistency convergence accuracy:
  | Change of charge density      :  0.2038E-01
  | Change of sum of eigenvalues  : -0.4816E+01 eV
  | Change of total energy        :  0.8054E-02 eV

  End self-consistency iteration #     5       :  max(cpu_time)    wall_clock(cpu1)
  | Time for this iteration                    :        0.076 s           0.074 s
  | Charge density update                      :        0.021 s           0.020 s
  | Density mixing                             :        0.001 s           0.001 s
  | Hartree multipole update                   :        0.001 s           0.001 s
  | Hartree multipole summation                :        0.021 s           0.021 s
  | Integration                                :        0.027 s           0.028 s
  | Solution of K.-S. eqns.                    :        0.004 s           0.003 s
  | Total energy evaluation                    :        0.000 s           0.000 s

  Partial memory accounting:
  | Current value for overall tracked memory usage on task 0  :           0.134 MB
  | Peak value for overall tracked memory usage on task 0     :           0.859 MB after allocating gradient_basis_wave
  | Largest tracked array allocation on task 0 so far         :           0.544 MB  when allocating gradient_basis_wave
  Note:  These values currently only include a subset of arrays which are explicitly tracked.
  The "true" memory usage will be greater.
------------------------------------------------------------

------------------------------------------------------------
          Begin self-consistency iteration #    6

  Date     :  20200505, Time     :  083431.411
------------------------------------------------------------
  Evaluating new KS density.
  Integration grid: deviation in total charge (<rho> - N_e) =  -7.105427E-15
  Pulay mixing of updated and previous charge densities.

[...]
  |   Hirshfeld dipole moment :      0.06591733
  |   Hirshfeld second moments:      0.00175382      -0.01798363      -0.01625754
  |                                 -0.01798363      -0.00738363       0.00930910
  |                                 -0.01625754       0.00930910      -0.02090055
  ----------------------------------------------------------------------
  | Atom    12: O
  |   Hirshfeld charge        :     -0.14227668
  |   Free atom volume        :     23.61338643
  |   Hirshfeld volume        :     20.91471631
  |   Hirshfeld dipole vector :      0.01864407      -0.00143406       0.04074415
  |   Hirshfeld dipole moment :      0.04483016
  |   Hirshfeld second moments:      0.05209681      -0.00068176      -0.00820748
  |                                 -0.00068176       0.10421145      -0.00880973
  |                                 -0.00820748      -0.00880973       0.01975330
  ----------------------------------------------------------------------
  | Atom    13: H
  |   Hirshfeld charge        :      0.17126887
  |   Free atom volume        :      9.95071624
  |   Hirshfeld volume        :      6.41040878
  |   Hirshfeld dipole vector :      0.00646015      -0.10896898       0.03660612
  |   Hirshfeld dipole moment :      0.11513462
  |   Hirshfeld second moments:      0.11573033       0.00098489      -0.01389750
  |                                  0.00098489       0.12308510       0.00082740
  |                                 -0.01389750       0.00082740       0.08238369
  ----------------------------------------------------------------------


  Total energy components:
  | Sum of eigenvalues            :        -180.51051890 Ha       -4911.94113608 eV
  | XC energy correction          :         -42.63514192 Ha       -1160.16124004 eV
  | XC potential correction       :          54.81389788 Ha        1491.56205107 eV
  | Free-atom electrostatic energy:        -146.85656251 Ha       -3996.17038892 eV
  | Hartree energy correction     :          -8.31279830 Ha        -226.20275079 eV
  | vdW energy correction         :          -0.00322577 Ha          -0.08777759 eV
  | Entropy correction            :           0.00000000 Ha           0.00000000 eV
  | ---------------------------
  | Total energy                  :        -323.50434953 Ha       -8803.00124235 eV
  | Total energy, T -> 0          :        -323.50434953 Ha       -8803.00124235 eV  <-- do not rely on this value for anything but (periodic) metals
  | Electronic free energy        :        -323.50434953 Ha       -8803.00124235 eV

  Derived energy quantities:
  | Kinetic energy                :         322.56578722 Ha        8777.46166265 eV
  | Electrostatic energy          :        -603.43176906 Ha      -16420.21388737 eV
  | Energy correction for multipole
  | error in Hartree potential    :           0.04271470 Ha           1.16232602 eV
  | Sum of eigenvalues per atom                           :        -377.84162585 eV
  | Total energy (T->0) per atom                          :        -677.15394172 eV  <-- do not rely on this value for anything but (periodic) metals
  | Electronic free energy per atom                       :        -677.15394172 eV

  atomic forces [eV/Ang]:
  -----------------------
  atom #    1
   Hellmann-Feynman              : -0.222465E+00  0.783239E+00  0.694214E+00
   Ionic forces                  :  0.000000E+00  0.000000E+00  0.000000E+00
   Multipole                     :  0.510046E-01  0.470441E+00 -0.287560E+00
   Pulay + GGA                   : -0.815878E+00 -0.777314E+00 -0.108359E+01
   Van der Waals                 :  0.198182E-02  0.880316E-03 -0.153635E-02
   ----------------------------------------------------------------
   Total forces(   1)            : -0.985357E+00  0.477246E+00 -0.678476E+00
  atom #    2
   Hellmann-Feynman              :  0.225389E+00 -0.911658E-01 -0.923313E-01
   Ionic forces                  :  0.000000E+00  0.000000E+00  0.000000E+00
   Multipole                     :  0.185863E+00  0.290174E-01 -0.986287E-02
   Pulay + GGA                   : -0.142530E+00 -0.132553E-02  0.288434E-01
   Van der Waals                 :  0.381918E-02 -0.557929E-02 -0.588635E-02
   ----------------------------------------------------------------
   Total forces(   2)            :  0.272541E+00 -0.690531E-01 -0.792371E-01
  atom #    3
   Hellmann-Feynman              :  0.227248E+01 -0.110528E+02 -0.391243E+01
   Ionic forces                  :  0.000000E+00  0.000000E+00  0.000000E+00
   Multipole                     : -0.172829E+00  0.485818E-01 -0.872848E+00
   Pulay + GGA                   : -0.151317E+01  0.102845E+02  0.538059E+01
   Van der Waals                 :  0.307204E-02 -0.800285E-02 -0.636625E-02
   ----------------------------------------------------------------
   Total forces(   3)            :  0.589559E+00 -0.727691E+00  0.588941E+00
  atom #    4
   Hellmann-Feynman              : -0.105065E+00  0.255536E+00 -0.871120E-01
   Ionic forces                  :  0.000000E+00  0.000000E+00  0.000000E+00
   Multipole                     : -0.851028E-01  0.418415E-01 -0.530519E-01
   Pulay + GGA                   :  0.210148E+00 -0.144024E+00 -0.388906E-01
   Van der Waals                 : -0.120164E-02  0.522875E-02 -0.114451E-01
   ----------------------------------------------------------------
   Total forces(   4)            :  0.187786E-01  0.158582E+00 -0.190500E+00
  atom #    5
   Hellmann-Feynman              : -0.114626E+00  0.332030E+00 -0.209118E-01
   Ionic forces                  :  0.000000E+00  0.000000E+00  0.000000E+00
   Multipole                     :  0.580086E-02  0.615692E-01 -0.956642E-01
   Pulay + GGA                   : -0.689808E-01 -0.211165E+00  0.552608E-01
   Van der Waals                 : -0.230226E-02 -0.656412E-02 -0.563240E-02
   ----------------------------------------------------------------
   Total forces(   5)            : -0.180108E+00  0.175870E+00 -0.669476E-01
  atom #    6
   Hellmann-Feynman              :  0.456081E+00 -0.894128E+00  0.706283E+00
   Ionic forces                  :  0.000000E+00  0.000000E+00  0.000000E+00
   Multipole                     : -0.116584E+00  0.635870E+00  0.196587E+00
   Pulay + GGA                   : -0.122436E-01 -0.145652E+00 -0.461160E+00
   Van der Waals                 : -0.278919E-02  0.961336E-02  0.814786E-02
   ----------------------------------------------------------------
   Total forces(   6)            :  0.324465E+00 -0.394297E+00  0.449858E+00
  atom #    7
   Hellmann-Feynman              : -0.227141E+00 -0.601553E-01 -0.581428E-01
   Ionic forces                  :  0.000000E+00  0.000000E+00  0.000000E+00
   Multipole                     : -0.123056E+00  0.482618E-01  0.349278E-01
   Pulay + GGA                   :  0.114507E+00  0.152585E-01  0.293109E-01
   Van der Waals                 : -0.138503E-02  0.474679E-02  0.740683E-02
   ----------------------------------------------------------------
   Total forces(   7)            : -0.237075E+00  0.811182E-02  0.135027E-01
  atom #    8
   Hellmann-Feynman              :  0.323584E-01  0.618929E-01  0.260247E+00
   Ionic forces                  :  0.000000E+00  0.000000E+00  0.000000E+00
   Multipole                     :  0.167690E-01  0.616032E-01  0.124019E+00
   Pulay + GGA                   : -0.471762E-01 -0.406424E-01 -0.101187E+00
   Van der Waals                 : -0.293539E-02  0.113600E-01  0.642922E-03
   ----------------------------------------------------------------
   Total forces(   8)            : -0.984146E-03  0.942138E-01  0.283723E+00
  atom #    9
   Hellmann-Feynman              :  0.114181E+00  0.407732E-01 -0.181272E+00
   Ionic forces                  :  0.000000E+00  0.000000E+00  0.000000E+00
   Multipole                     :  0.186428E-01  0.129895E+00 -0.769848E-02
   Pulay + GGA                   : -0.466362E-01 -0.795673E-01  0.584319E-01
   Van der Waals                 : -0.323318E-02  0.596381E-02  0.750691E-02
   ----------------------------------------------------------------
   Total forces(   9)            :  0.829550E-01  0.970650E-01 -0.123031E+00
  atom #   10
   Hellmann-Feynman              :  0.231770E+01  0.514371E+01  0.170678E+00
   Ionic forces                  :  0.000000E+00  0.000000E+00  0.000000E+00
   Multipole                     : -0.327244E-01 -0.291161E+00  0.292001E+00
   Pulay + GGA                   : -0.154733E+01 -0.278578E+01 -0.161407E+00
   Van der Waals                 :  0.598994E-02 -0.136835E-01  0.110779E-02
   ----------------------------------------------------------------
   Total forces(  10)            :  0.743629E+00  0.205309E+01  0.302380E+00
  atom #   11
   Hellmann-Feynman              :  0.415548E+01 -0.238452E+01  0.143292E+02
   Ionic forces                  :  0.000000E+00  0.000000E+00  0.000000E+00
   Multipole                     :  0.142468E+00 -0.557690E+00  0.799128E+00
   Pulay + GGA                   : -0.317153E+01  0.336176E+01 -0.135215E+02
   Van der Waals                 : -0.348218E-02 -0.118071E-01  0.236613E-02
   ----------------------------------------------------------------
   Total forces(  11)            :  0.112294E+01  0.407742E+00  0.160920E+01
  atom #   12
   Hellmann-Feynman              : -0.751400E+01  0.121027E+01 -0.143637E+02
   Ionic forces                  :  0.000000E+00  0.000000E+00  0.000000E+00
   Multipole                     : -0.940431E+00 -0.925544E+00 -0.750483E+00
   Pulay + GGA                   :  0.741917E+01 -0.179232E+01  0.128371E+02
   Van der Waals                 :  0.174512E-02  0.237651E-02  0.635482E-02
   ----------------------------------------------------------------
   Total forces(  12)            : -0.103352E+01 -0.150522E+01 -0.227066E+01
  atom #   13
   Hellmann-Feynman              : -0.717575E+00 -0.101802E+01  0.274513E+00
   Ionic forces                  :  0.000000E+00  0.000000E+00  0.000000E+00
   Multipole                     :  0.277379E-01 -0.736604E-01  0.772909E-01
   Pulay + GGA                   : -0.284307E-01  0.307625E+00 -0.188461E+00
   Van der Waals                 :  0.720787E-03  0.546732E-02 -0.266685E-02
   ----------------------------------------------------------------
   Total forces(  13)            : -0.717547E+00 -0.778585E+00  0.160675E+00

  Timings for VdW correction (Tkatchenko-Scheffler 2009 or later):
  | CPU time:        0.009 s, Wall clock time:        0.006 s.
  Removing unitary transformations (pure translations, rotations) from forces on atoms.
  Atomic forces before filtering:
  | Net force on center of mass :   0.275369E-03 -0.292487E-02 -0.571430E-03 eV/A
  | Net torque on center of mass:  -0.814019E-02  0.439180E-02 -0.114839E-02 eV
  Atomic forces after filtering:
  | Net force on center of mass :   0.892031E-16 -0.178406E-15  0.735925E-15 eV/A
  | Net torque on center of mass:  -0.136892E-14 -0.165215E-15 -0.377634E-15 eV

  Energy and forces in a compact form:
  | Total energy uncorrected      :         -0.880300124235301E+04 eV
  | Total energy corrected        :         -0.880300124235301E+04 eV  <-- do not rely on this value for anything but (periodic) metals
  | Electronic free energy        :         -0.880300124235301E+04 eV
  Total atomic forces (unitary forces cleaned) [eV/Ang]:
  |   1         -0.985353294344500E+00          0.477522552554957E+00         -0.678334798658194E+00
  |   2          0.272544537689546E+00         -0.687182265536858E-01         -0.788909154022835E-01
  |   3          0.589828110955548E+00         -0.727186074847838E+00          0.588991786643318E+00
  |   4          0.190378252527455E-01          0.159034438411065E+00         -0.190599403292377E+00
  |   5         -0.179779249346723E+00          0.176495739733479E+00         -0.666728153874470E-01
  |   6          0.324263862951325E+00         -0.394177894479385E+00          0.450132566427581E+00
  |   7         -0.237279554305499E+00          0.816931897826417E-02          0.135772317922688E-01
  |   8         -0.137917798229655E-02          0.941662139103714E-01          0.284067727450966E+00
  |   9          0.828011483765480E-01          0.972939616498282E-01         -0.122526612159166E+00
  |  10          0.743561611249586E+00          0.205321128977367E+01          0.302214475244495E+00
  |  11          0.112267307341178E+01          0.407673550460480E+00          0.160904057430626E+01
  |  12         -0.103341503342411E+01         -0.150501384839983E+01         -0.227111132932443E+01
  |  13         -0.717503860483942E+00         -0.778471021191382E+00          0.160111512359004E+00

  ------------------------------------ 
  Start decomposition of the XC Energy 
  ------------------------------------ 
  X and C from original XC functional choice 
  Hartree-Fock Energy :          0.000000000 Ha              0.000000000 eV
  X Energy            :        -41.035312100 Ha          -1116.627655626 eV
  C Energy            :         -1.599829822 Ha            -43.533584415 eV
  Total XC Energy     :        -42.635141922 Ha          -1160.161240041 eV
  ------------------------------------ 
  LDA X and C from self-consistent density 
  X Energy LDA        :        -37.253353964 Ha          -1013.715338636 eV
  C Energy LDA        :         -3.138306999 Ha            -85.397678425 eV
  ------------------------------------ 
  End decomposition of the XC Energy 
  ------------------------------------ 

------------------------------------------------------------

------------------------------------------------------------------------------
  Final output of selected total energy values:

  The following output summarizes some interesting total energy values
  at the end of a run (AFTER all relaxation, molecular dynamics, etc.).

  | Total energy of the DFT / Hartree-Fock s.c.f. calculation      :          -8803.001242353 eV
  | Final zero-broadening corrected energy (caution - metals only) :          -8803.001242353 eV
  | For reference only, the value of 1 Hartree used in FHI-aims is :             27.211384500 eV

  Before relying on these values, please be sure to understand exactly which
  total energy value is referred to by a given number. Different objects may
  all carry the same name 'total energy'. Definitions:

  Total energy of the DFT / Hartree-Fock s.c.f. calculation:
  | Note that this energy does not include ANY quantities calculated after the
  | s.c.f. cycle, in particular not ANY RPA, MP2, etc. many-body perturbation terms.

  Final zero-broadening corrected energy:
  | For metallic systems only, a broadening of the occupation numbers at the Fermi
  | level can be extrapolated back to zero broadening by an electron-gas inspired
  | formula. For all systems that are not real metals, this value can be
  | meaningless and should be avoided.

------------------------------------------------------------------------------
  Methods described in the following list of references were used in this FHI-aims run.
  If you publish the results, please make sure to cite these reference if they apply.
  FHI-aims is an academic code, and for our developers (often, Ph.D. students
  and postdocs), scientific credit in the community is essential.
  Thank you for helping us!

  For any use of FHI-aims, please cite:

    Volker Blum, Ralf Gehrke, Felix Hanke, Paula Havu, Ville Havu,
    Xinguo Ren, Karsten Reuter, and Matthias Scheffler
    'Ab initio molecular simulations with numeric atom-centered orbitals'
    Computer Physics Communications 180, 2175-2196 (2009)
    http://dx.doi.org/10.1016/j.cpc.2009.06.022


  The scalable eigensolver library ELPA was used in your run.
  ELPA is essential especially for large systems on hundreds or thousands of CPUs.
  For ELPA, please cite:

    Andreas Marek, Volker Blum, Rainer Johanni, Ville Havu, Bruno Lang,
    Thomas Auckenthaler, Alexander Heinecke, Hans-Joachim Bungartz, and Hermann Lederer,
    'The ELPA Library - Scalable Parallel Eigenvalue Solutions
    for Electronic Structure Theory and Computational Science'
    The Journal of Physics: Condensed Matter 26, 213201 (2014).
    http://dx.doi.org/10.1088/0953-8984/26/21/213201


  The ELSI infrastructure was used in your run to solve the Kohn-Sham electronic structure.
  Please check out http://elsi-interchange.org to learn more.
  If scalability is important for your project, please acknowledge ELSI by citing:

    V. W-z. Yu, F. Corsetti, A. Garcia, W. P. Huhn, M. Jacquelin, W. Jia,
    B. Lange, L. Lin, J. Lu, W. Mi, A. Seifitokaldani, A. Vazquez-Mayagoitia,
    C. Yang, H. Yang, and V. Blum
    'ELSI: A unified software interface for Kohn-Sham electronic structure solvers'
    Computer Physics Communications 222, 267-285 (2018).
    http://dx.doi.org/10.1016/j.cpc.2017.09.007


  For the real-space grid partitioning and parallelization used in this calculation, please cite:

    Ville Havu, Volker Blum, Paula Havu, and Matthias Scheffler,
    'Efficient O(N) integration for all-electron electronic structure calculation'
    'using numerically tabulated basis functions'
    Journal of Computational Physics 228, 8367-8379 (2009).
    http://dx.doi.org/10.1016/j.jcp.2009.08.008

  Of course, there are many other important community references, e.g., those cited in the
  above references. Our list is limited to references that describe implementations in the
  FHI-aims code. The reason is purely practical (length of this list) - please credit others as well.

------------------------------------------------------------
          Leaving FHI-aims.
          Date     :  20200505, Time     :  083432.364

          Computational steps:
          | Number of self-consistency cycles          :           15
          | Number of SCF (re)initializations          :            1

          Detailed time accounting                     :  max(cpu_time)    wall_clock(cpu1)
          | Total time                                 :        1.593 s           1.650 s
          | Preparation time                           :        0.166 s           0.166 s
          | Boundary condition initalization           :        0.000 s           0.000 s
          | Grid partitioning                          :        0.022 s           0.022 s
          | Preloading free-atom quantities on grid    :        0.003 s           0.002 s
          | Free-atom superposition energy             :        0.005 s           0.005 s
          | Total time for integrations                :        0.452 s           0.456 s
          | Total time for solution of K.-S. equations :        0.062 s           0.059 s
          | Total time for density & force components  :        0.373 s           0.354 s
          | Total time for mixing                      :        0.018 s           0.022 s
          | Total time for Hartree multipole update    :        0.018 s           0.017 s
          | Total time for Hartree multipole sum       :        0.404 s           0.402 s
          | Total time for total energy evaluation     :        0.003 s           0.005 s
          | Total time for vdW correction              :        0.009 s           0.006 s

          Partial memory accounting:
          | Residual value for overall tracked memory usage across tasks :           0.000 MB (should be 0.000 MB)
          | Peak values for overall tracked memory usage (after allocating hessian_basis_wave):
          |   Minimum:        2.102 MB (on task 13)
          |   Maximum:        2.138 MB (on task  4)
          |   Average:        2.119 MB
          | Largest tracked array allocation (hessian_basis_wave):
          |   Minimum:        1.078 MB (on task  2)
          |   Maximum:        1.097 MB (on task  4)
          |   Average:        1.086 MB
          Note:  These values currently only include a subset of arrays which are explicitly tracked.
          The "true" memory usage will be greater.

          Have a nice day.
------------------------------------------------------------
