  MPI-parallelism will be employed.
------------------------------------------------------------
          Invoking FHI-aims ...
          Version 171221_1
          Compiled on 2019/09/09 at 14:39:39 on host puhti-login2.bullx.

          When using FHI-aims, please cite the following reference:

          Volker Blum, Ralf Gehrke, Felix Hanke, Paula Havu,
          Ville Havu, Xinguo Ren, Karsten Reuter, and Matthias Scheffler,
          'Ab Initio Molecular Simulations with Numeric Atom-Centered Orbitals',
          Computer Physics Communications 180, 2175-2196 (2009)

          For any questions about FHI-aims, please visit the aimsclub website
          with its forums and wiki. Contributions to both the forums and the
          wiki are warmly encouraged - they are for you, and everyone is welcome there.

------------------------------------------------------------



  Date     :  20200815, Time     :  004140.525
  Time zero on CPU 1             :   0.117480000000000E-01  s.
  Internal wall clock time zero  :           366684100.525  s.

  FHI-aims created a unique identifier for this run for later identification
  aims_uuid : 7E3235FC-D332-47CA-AF9D-9CE5A3B10F9C

  Using        1 parallel tasks.
  Task        0 on host r18c41.bullx reporting.

  Performing system and environment tests:
  | Environment variable OMP_NUM_THREADS correctly set to 1.
  | Stacksize not measured: no C compiler
  | Checking for scalapack...
  | Testing pdtran()...
  | All pdtran() tests passed.

  Obtaining array dimensions for all initial allocations:
  
  -----------------------------------------------------------------------
  Parsing control.in (first pass over file, find array dimensions only).
  The contents of control.in will be repeated verbatim below
  unless switched off by setting 'verbatim_writeout .false.' .
  in the first line of control.in .
  -----------------------------------------------------------------------
  
  #########################################################################################
  #
  #  Volker Blum, FHI 2009 : Test run input file control.in for simple H2O
  #
  #########################################################################################
  #
  #  Physical model
  #
    xc                 pbe
    vdw_correction_hirshfeld
    spin               none
    relativistic       none
    charge             0.
  #
  #  SCF convergence
  #
    occupation_type    gaussian 0.01
    mixer              pulay
      n_max_pulay        10
      charge_mix_param   0.2
    sc_accuracy_rho    1E-5
    sc_accuracy_eev    1E-3
    sc_accuracy_etot   1E-6
    sc_accuracy_forces 1E-4
    sc_iter_limit      100
  #
  #  Relaxation
  #
  #  relax_geometry   bfgs 1.e-3
  #
  ################################################################################
  #
  #  FHI-aims code project
  #  VB, Fritz-Haber Institut, 2009
  #
  #  Suggested "light" defaults for H atom (to be pasted into control.in file)
  #  Be sure to double-check any results obtained with these settings for post-processing,
  #  e.g., with the "tight" defaults and larger basis sets.
  #
  ################################################################################
    species        H
  #     global species definitions
      nucleus             1
      mass                1.00794
  #
      l_hartree           4
  #
      cut_pot             3.5  1.5  1.0
      basis_dep_cutoff    1e-4
  #
      radial_base         24 5.0
      radial_multiplier   1
      angular_grids       specified
        division   0.2421   50
        division   0.3822  110
        division   0.4799  194
        division   0.5341  302
  #      division   0.5626  434
  #      division   0.5922  590
  #      division   0.6542  770
  #      division   0.6868 1202
  #      outer_grid  770
        outer_grid  302
  ################################################################################
  #
  #  Definition of "minimal" basis
  #
  ################################################################################
  #     valence basis states
      valence      1  s   1.
  #     ion occupancy
      ion_occ      1  s   0.5
  ################################################################################
  #
  #  Suggested additional basis functions. For production calculations,
  #  uncomment them one after another (the most important basis functions are
  #  listed first).
  #
  #  Basis constructed for dimers: 0.5 A, 0.7 A, 1.0 A, 1.5 A, 2.5 A
  #
  ################################################################################
  #  "First tier" - improvements: -1014.90 meV to -62.69 meV
       hydro 2 s 2.1
       hydro 2 p 3.5
  #  "Second tier" - improvements: -12.89 meV to -1.83 meV
  #     hydro 1 s 0.85
  #     hydro 2 p 3.7
  #     hydro 2 s 1.2
  #     hydro 3 d 7
  #  "Third tier" - improvements: -0.25 meV to -0.12 meV
  #     hydro 4 f 11.2
  #     hydro 3 p 4.8
  #     hydro 4 d 9
  #     hydro 3 s 3.2
  ################################################################################
  #
  #  FHI-aims code project
  #  VB, Fritz-Haber Institut, 2009
  #
  #  Suggested "light" defaults for C atom (to be pasted into control.in file)
  #  Be sure to double-check any results obtained with these settings for post-processing,
  #  e.g., with the "tight" defaults and larger basis sets.
  #
  ################################################################################
    species        C
  #     global species definitions
      nucleus             6
      mass                12.0107
  #
      l_hartree           4
  #
      cut_pot             3.5  1.5  1.0
      basis_dep_cutoff    1e-4
  #
      radial_base         34 5.0
      radial_multiplier   1
      angular_grids specified
        division   0.3326   50
        division   0.5710  110
        division   0.7727  194
        division   0.8772  302
  #      division   0.9334  434
  #      division   0.9625  590
  #      division   0.9924  770
  #      division   1.0230  974
  #      division   1.4589 1202
  #     outer_grid  974
       outer_grid 302
  ################################################################################
  #
  #  Definition of "minimal" basis
  #
  ################################################################################
  #     valence basis states
      valence      2  s   2.
      valence      2  p   2.
  #     ion occupancy
      ion_occ      2  s   1.
      ion_occ      2  p   1.
  ################################################################################
  #
  #  Suggested additional basis functions. For production calculations,
  #  uncomment them one after another (the most important basis functions are
  #  listed first).
  #
  #  Constructed for dimers: 1.0 A, 1.25 A, 1.5 A, 2.0 A, 3.0 A
  #
  ################################################################################
  #  "First tier" - improvements: -1214.57 meV to -155.61 meV
       hydro 2 p 1.7
       hydro 3 d 6
       hydro 2 s 4.9
  #  "Second tier" - improvements: -67.75 meV to -5.23 meV
  #     hydro 4 f 9.8
  #     hydro 3 p 5.2
  #     hydro 3 s 4.3
  #     hydro 5 g 14.4
  #     hydro 3 d 6.2
  #  "Third tier" - improvements: -2.43 meV to -0.60 meV
  #     hydro 2 p 5.6
  #     hydro 2 s 1.4
  #     hydro 3 d 4.9
  #     hydro 4 f 11.2
  #  "Fourth tier" - improvements: -0.39 meV to -0.18 meV
  #     hydro 2 p 2.1
  #     hydro 5 g 16.4
  #     hydro 4 d 13.2
  #     hydro 3 s 13.6
  #     hydro 4 f 17.6
  #  Further basis functions - improvements: -0.08 meV and below
  #     hydro 3 s 2
  #     hydro 3 p 6
  #     hydro 4 d 20
  ################################################################################
  #
  #  FHI-aims code project
  #  VB, Fritz-Haber Institut, 2009
  #
  #  Suggested "light" defaults for N atom (to be pasted into control.in file)
  #  Be sure to double-check any results obtained with these settings for post-processing,
  #  e.g., with the "tight" defaults and larger basis sets.
  #
  ################################################################################
    species        N
  #     global species definitions
      nucleus             7
      mass                14.0067
  #
      l_hartree           4
  #
      cut_pot             3.5  1.5  1.0
      basis_dep_cutoff    1e-4
  #
      radial_base         35 5.0
      radial_multiplier   1
      angular_grids       specified
        division   0.2599   50
        division   0.4601  110
        division   0.5885  194
        division   0.6503  302
  #      division   0.6939  434
  #      division   0.7396  590
  #      division   0.7632  770
  #      division   0.8122  974
  #      division   1.1604 1202
  #      outer_grid  974
        outer_grid  302
  ################################################################################
  #
  #  Definition of "minimal" basis
  #
  ################################################################################
  #     valence basis states
      valence      2  s   2.
      valence      2  p   3.
  #     ion occupancy
      ion_occ      2  s   1.
      ion_occ      2  p   2.
  ################################################################################
  #
  #  Suggested additional basis functions. For production calculations,
  #  uncomment them one after another (the most important basis functions are
  #  listed first).
  #
  #  Constructed for dimers: 1.0 A, 1.1 A, 1.5 A, 2.0 A, 3.0 A
  #
  ################################################################################
  #  "First tier" - improvements: -1193.42 meV to -220.60 meV
       hydro 2 p 1.8
       hydro 3 d 6.8
       hydro 3 s 5.8
  #  "Second tier" - improvements: -80.21 meV to -6.86 meV
  #     hydro 4 f 10.8
  #     hydro 3 p 5.8
  #     hydro 1 s 0.8
  #     hydro 5 g 16
  #     hydro 3 d 4.9
  #  "Third tier" - improvements: -4.29 meV to -0.53 meV
  #     hydro 3 s 16
  #     ionic 2 p auto
  #     hydro 3 d 6.6
  #     hydro 4 f 11.6
  #  "Fourth tier" - improvements: -0.75 meV to -0.25 meV
  #     hydro 2 p 4.5
  #     hydro 2 s 2.4
  #     hydro 5 g 14.4
  #     hydro 4 d 14.4
  #     hydro 4 f 16.8
  # Further basis functions - -0.21 meV and below
  #     hydro 3 p 14.8
  #     hydro 3 s 4.4
  #     hydro 3 d 19.6
  #     hydro 5 g 12.8
  ################################################################################
  #
  #  FHI-aims code project
  #  VB, Fritz-Haber Institut, 2009
  #
  #  Suggested "light" defaults for O atom (to be pasted into control.in file)
  #  Be sure to double-check any results obtained with these settings for post-processing,
  #  e.g., with the "tight" defaults and larger basis sets.
  #
  ################################################################################
    species        O
  #     global species definitions
      nucleus             8
      mass                15.9994
  #
      l_hartree           4
  #
      cut_pot             3.5  1.5  1.0
      basis_dep_cutoff    1e-4
  #
      radial_base         36 5.0
      radial_multiplier   1
       angular_grids specified
        division   0.2659   50
        division   0.4451  110
        division   0.6052  194
        division   0.7543  302
  #      division   0.8014  434
  #      division   0.8507  590
  #      division   0.8762  770
  #      division   0.9023  974
  #      division   1.2339 1202
  #      outer_grid 974
        outer_grid 302
  ################################################################################
  #
  #  Definition of "minimal" basis
  #
  ################################################################################
  #     valence basis states
      valence      2  s   2.
      valence      2  p   4.
  #     ion occupancy
      ion_occ      2  s   1.
      ion_occ      2  p   3.
  ################################################################################
  #
  #  Suggested additional basis functions. For production calculations,
  #  uncomment them one after another (the most important basis functions are
  #  listed first).
  #
  #  Constructed for dimers: 1.0 A, 1.208 A, 1.5 A, 2.0 A, 3.0 A
  #
  ################################################################################
  #  "First tier" - improvements: -699.05 meV to -159.38 meV
       hydro 2 p 1.8
       hydro 3 d 7.6
       hydro 3 s 6.4
  #  "Second tier" - improvements: -49.91 meV to -5.39 meV
  #     hydro 4 f 11.6
  #     hydro 3 p 6.2
  #     hydro 3 d 5.6
  #     hydro 5 g 17.6
  #     hydro 1 s 0.75
  #  "Third tier" - improvements: -2.83 meV to -0.50 meV
  #     ionic 2 p auto
  #     hydro 4 f 10.8
  #     hydro 4 d 4.7
  #     hydro 2 s 6.8
  #  "Fourth tier" - improvements: -0.40 meV to -0.12 meV
  #     hydro 3 p 5
  #     hydro 3 s 3.3
  #     hydro 5 g 15.6
  #     hydro 4 f 17.6
  #     hydro 4 d 14
  # Further basis functions - -0.08 meV and below
  #     hydro 3 s 2.1
  #     hydro 4 d 11.6
  #     hydro 3 p 16
  #     hydro 2 s 17.2
  
  -----------------------------------------------------------------------
  Completed first pass over input file control.in .
  -----------------------------------------------------------------------
  
  
  -----------------------------------------------------------------------
  Parsing geometry.in (first pass over file, find array dimensions only).
  The contents of geometry.in will be repeated verbatim below
  unless switched off by setting 'verbatim_writeout .false.' .
  in the first line of geometry.in .
  -----------------------------------------------------------------------
  
  atom  0.00000 0.00000 0.00000 C
  atom  1.09300 0.00000 0.00000 H
  atom  -0.47961 0.00000 -1.41207 N
  atom  -1.19670 0.71919 -1.51395 H
  atom  0.30830 0.19946 -2.02488 H
  atom  -0.49584 1.26211 0.72868 C
  atom  -1.58789 1.28919 0.74431 H
  atom  -0.13407 1.27425 1.75947 H
  atom  -0.13407 2.16087 0.22380 H
  atom  -0.39425 -1.28861 0.74398 C
  atom  -0.10189 -1.56493 1.88303 O
  atom  -1.10210 -2.13717 0.06896 O
  atom  -1.96402 -1.69385 0.14341 H
  
  -----------------------------------------------------------------------
  Completed first pass over input file geometry.in .
  -----------------------------------------------------------------------
  

  Basic array size parameters:
  | Number of species                 :        4
  | Number of atoms                   :       13
  | Max. basis fn. angular momentum   :        2
  | Max. atomic/ionic basis occupied n:        2
  | Max. number of basis fn. types    :        2
  | Max. radial fns per species/type  :        3
  | Max. logarithmic grid size        :     1301
  | Max. radial integration grid size :       36
  | Max. angular integration grid size:      302
  | Max. angular grid division number :        8
  | Radial grid for Hartree potential :     1301
  | Number of spin channels           :        1

------------------------------------------------------------
          Reading file control.in.
------------------------------------------------------------
  XC: Using PBE gradient-corrected functionals.
  Spin treatment: No spin polarisation.
  Non-relativistic treatment of kinetic energy.
  Charge =   0.000000E+00: Neutral system requested explicitly.
  Occupation type: Gaussian broadening, width =   0.100000E-01 eV.
  Using pulay charge density mixing.
  Pulay mixing - number of memorized iterations:   10
  Charge density mixing - mixing parameter:     0.2000
  Convergence accuracy of self-consistent charge density:  0.1000E-04
  Convergence accuracy of sum of eigenvalues:  0.1000E-02
  Convergence accuracy of total energy:  0.1000E-05
  Convergence accuracy of forces:  0.1000E-03
  Maximum number of s.-c. iterations  :   100
 
  Reading configuration options for species H                   .
  | Found nuclear charge :   1.0000
  | Found atomic mass :    1.00794000000000      amu
  | Found l_max for Hartree potential  :   4
  | Found cutoff potl. onset [A], width [A], scale factor :    3.50000    1.50000    1.00000
  | Threshold for basis-dependent cutoff potential is   0.100000E-03
  | Found data for basic radial integration grid :    24 points, outermost radius =    5.000 A
  | Found multiplier for basic radial grid :   1
  | Found angular grid specification: user-specified.
  | Specified grid contains     5 separate shells.
  | Check grid settings after all constraints further below.
  | Found free-atom valence shell :  1 s   1.000
  | No ionic wave fns used. Skipping ion_occ.
  | Found hydrogenic basis function :  2 s   2.100
  | Found hydrogenic basis function :  2 p   3.500
  Species H                   : Missing cutoff potential type.
  Defaulting to exp(1/x)/(1-x)^2 type cutoff potential.
  Species H : No 'logarithmic' tag. Using default grid for free atom:
  | Default logarithmic grid data [bohr] : 0.1000E-03 0.1000E+03 0.1012E+01
  Species H : On-site basis accuracy parameter (for Gram-Schmidt orthonormalisation) not specified.
  Using default value basis_acc =  0.1000000E-03.
  Species H                   : Using default innermost maximum threshold i_radial=  2 for radial functions.
  Species H                   : Default cutoff onset for free atom density etc. : 0.35000000E+01 AA.
  Species H                   : Basic radial grid will be enhanced according to radial_multiplier =   1, to contain    24 grid points.
 
  Reading configuration options for species C                   .
  | Found nuclear charge :   6.0000
  | Found atomic mass :    12.0107000000000      amu
  | Found l_max for Hartree potential  :   4
  | Found cutoff potl. onset [A], width [A], scale factor :    3.50000    1.50000    1.00000
  | Threshold for basis-dependent cutoff potential is   0.100000E-03
  | Found data for basic radial integration grid :    34 points, outermost radius =    5.000 A
  | Found multiplier for basic radial grid :   1
  | Found angular grid specification: user-specified.
  | Specified grid contains     5 separate shells.
  | Check grid settings after all constraints further below.
  | Found free-atom valence shell :  2 s   2.000
  | Found free-atom valence shell :  2 p   2.000
  | No ionic wave fns used. Skipping ion_occ.
  | No ionic wave fns used. Skipping ion_occ.
  | Found hydrogenic basis function :  2 p   1.700
  | Found hydrogenic basis function :  3 d   6.000
  | Found hydrogenic basis function :  2 s   4.900
  Species C                   : Missing cutoff potential type.
  Defaulting to exp(1/x)/(1-x)^2 type cutoff potential.
  Species C : No 'logarithmic' tag. Using default grid for free atom:
  | Default logarithmic grid data [bohr] : 0.1000E-03 0.1000E+03 0.1012E+01
  Species C : On-site basis accuracy parameter (for Gram-Schmidt orthonormalisation) not specified.
  Using default value basis_acc =  0.1000000E-03.
  Species C                   : Using default innermost maximum threshold i_radial=  2 for radial functions.
  Species C                   : Default cutoff onset for free atom density etc. : 0.35000000E+01 AA.
  Species C                   : Basic radial grid will be enhanced according to radial_multiplier =   1, to contain    34 grid points.
 
  Reading configuration options for species N                   .
  | Found nuclear charge :   7.0000
  | Found atomic mass :    14.0067000000000      amu
  | Found l_max for Hartree potential  :   4
  | Found cutoff potl. onset [A], width [A], scale factor :    3.50000    1.50000    1.00000
  | Threshold for basis-dependent cutoff potential is   0.100000E-03
  | Found data for basic radial integration grid :    35 points, outermost radius =    5.000 A
  | Found multiplier for basic radial grid :   1
  | Found angular grid specification: user-specified.
  | Specified grid contains     5 separate shells.
  | Check grid settings after all constraints further below.
  | Found free-atom valence shell :  2 s   2.000
  | Found free-atom valence shell :  2 p   3.000
  | No ionic wave fns used. Skipping ion_occ.
  | No ionic wave fns used. Skipping ion_occ.
  | Found hydrogenic basis function :  2 p   1.800
  | Found hydrogenic basis function :  3 d   6.800
  | Found hydrogenic basis function :  3 s   5.800
  Species N                   : Missing cutoff potential type.
  Defaulting to exp(1/x)/(1-x)^2 type cutoff potential.
  Species N : No 'logarithmic' tag. Using default grid for free atom:
  | Default logarithmic grid data [bohr] : 0.1000E-03 0.1000E+03 0.1012E+01
  Species N : On-site basis accuracy parameter (for Gram-Schmidt orthonormalisation) not specified.
  Using default value basis_acc =  0.1000000E-03.
  Species N                   : Using default innermost maximum threshold i_radial=  2 for radial functions.
  Species N                   : Default cutoff onset for free atom density etc. : 0.35000000E+01 AA.
  Species N                   : Basic radial grid will be enhanced according to radial_multiplier =   1, to contain    35 grid points.
 
  Reading configuration options for species O                   .
  | Found nuclear charge :   8.0000
  | Found atomic mass :    15.9994000000000      amu
  | Found l_max for Hartree potential  :   4
  | Found cutoff potl. onset [A], width [A], scale factor :    3.50000    1.50000    1.00000
  | Threshold for basis-dependent cutoff potential is   0.100000E-03
  | Found data for basic radial integration grid :    36 points, outermost radius =    5.000 A
  | Found multiplier for basic radial grid :   1
  | Found angular grid specification: user-specified.
  | Specified grid contains     5 separate shells.
  | Check grid settings after all constraints further below.
  | Found free-atom valence shell :  2 s   2.000
  | Found free-atom valence shell :  2 p   4.000
  | No ionic wave fns used. Skipping ion_occ.
  | No ionic wave fns used. Skipping ion_occ.
  | Found hydrogenic basis function :  2 p   1.800
  | Found hydrogenic basis function :  3 d   7.600
  | Found hydrogenic basis function :  3 s   6.400
  Species O                   : Missing cutoff potential type.
  Defaulting to exp(1/x)/(1-x)^2 type cutoff potential.
  Species O : No 'logarithmic' tag. Using default grid for free atom:
  | Default logarithmic grid data [bohr] : 0.1000E-03 0.1000E+03 0.1012E+01
  Species O : On-site basis accuracy parameter (for Gram-Schmidt orthonormalisation) not specified.
  Using default value basis_acc =  0.1000000E-03.
  Species O                   : Using default innermost maximum threshold i_radial=  2 for radial functions.
  Species O                   : Default cutoff onset for free atom density etc. : 0.35000000E+01 AA.
  Species O                   : Basic radial grid will be enhanced according to radial_multiplier =   1, to contain    36 grid points.
 
  Finished reading input file 'control.in'. Consistency checks are next.
 
  MPI_IN_PLACE appears to work with this MPI implementation.
  | Keeping use_mpi_in_place .true. (see manual).
  Target number of points in a grid batch is not set. Defaulting to  100
  Method for grid partitioning is not set. Defaulting to parallel hash+maxmin partitioning.
  Batch size limit is not set. Defaulting to    200
  By default, will store active basis functions for each batch.
  If in need of memory, prune_basis_once .false. can be used to disable this option.
  communication_type for Hartree potential was not specified.
  Defaulting to calc_hartree .
  Pulay mixer: Number of initial linear mixing iterations not set.
  Defaulting to    0 iterations.
  Work space size for distributed Hartree potential not set.
  Defaulting to   0.200000E+03 MB.
  Algorithm-dependent basis array size parameters:
  | n_max_pulay                         :       10
  Presetting      1001 iterations before the initial mixing cycle
  is restarted anyway using the sc_init_iter criterion / keyword.
  Presetting a factor      1.000 between actual scf density residual
  and density convergence criterion sc_accuracy_rho below which sc_init_iter
  takes no effect.
  Geometry relaxation not requested: no relaxation will be performed.
  Handling of forces: Unphysical translation and rotation will be removed from forces.
  No accuracy limit for integral partition fn. given. Defaulting to  0.1000E-14.
  No threshold value for u(r) in integrations given. Defaulting to  0.1000E-05.
  No accuracy for occupation numbers given. Defaulting to  0.1000E-12.
  No threshold value for occupation numbers given. Defaulting to  0.0000E+00.
  No accuracy for fermi level given. Defaulting to  0.1000E-19.
  Maximum # of iterations to find E_F not set. Defaulting to  200.
  Preferred method for the eigenvalue solver ('KS_method') not specified in 'control.in'.
  Defaulting to serial version, 'lapack_fast'.
  Will not use alltoall communication since running on < 1024 CPUs.
  Threshold for basis singularities not set.
  Default threshold for basis singularities:  0.1000E-04
  partition_type (choice of integration weights) for integrals was not specified.
  | Using a version of the partition function of Stratmann and coworkers ('stratmann_smoother').
  | At each grid point, the set of atoms used to build the partition table is smoothly restricted to
  | only those atoms whose free-atom density would be non-zero at that grid point.
  Partitioning for Hartree potential was not defined. Using partition_type for integrals.
  | Adjusted default value of keyword multip_moments_threshold to:       0.10000000E-11
  | This value may affect high angular momentum components of the Hartree potential in periodic systems.
  No q(lm)/r^(l+1) cutoff set for long-range Hartree potential.
  | Using default value of  0.100000E-09 .
  | Verify using the multipole_threshold keyword.
  Defaulting to new monopole extrapolation.
  Density update method: automatic selection selected.
------------------------------------------------------------


------------------------------------------------------------
          Reading geometry description geometry.in.
------------------------------------------------------------
  Input structure read successfully.
  The structure contains       13 atoms,  and a total of         48.000 electrons.

  Input geometry:
  | No unit cell requested.
  | Atomic structure:
  |       Atom                x [A]            y [A]            z [A]
  |    1: Species C             0.00000000        0.00000000        0.00000000
  |    2: Species H             1.09300000        0.00000000        0.00000000
  |    3: Species N            -0.47961000        0.00000000       -1.41207000
  |    4: Species H            -1.19670000        0.71919000       -1.51395000
  |    5: Species H             0.30830000        0.19946000       -2.02488000
  |    6: Species C            -0.49584000        1.26211000        0.72868000
  |    7: Species H            -1.58789000        1.28919000        0.74431000
  |    8: Species H            -0.13407000        1.27425000        1.75947000
  |    9: Species H            -0.13407000        2.16087000        0.22380000
  |   10: Species C            -0.39425000       -1.28861000        0.74398000
  |   11: Species O            -0.10189000       -1.56493000        1.88303000
  |   12: Species O            -1.10210000       -2.13717000        0.06896000
  |   13: Species H            -1.96402000       -1.69385000        0.14341000
  |

  | The smallest distance between any two atoms is         0.97210160 AA.
  |
  | The first atom of this pair is atom number                     12 .
  | The second atom of this pair is atom number                    13 .

  Number of empty states per atom not set in control.in - providing a guess from actual geometry.
  | Total number of empty states used during s.c.f. cycle:       29
  If you use a very high smearing, use empty_states (per atom!) in control.in to increase this value.

  Structure-dependent array size parameters: 
  | Maximum number of distinct radial functions  :       21
  | Maximum number of basis functions            :      119
  | Number of Kohn-Sham states (occupied + empty):       53
------------------------------------------------------------

------------------------------------------------------------
          Preparing all fixed parts of the calculation.
------------------------------------------------------------
  Determining machine precision:
    2.225073858507201E-308
  Setting up grids for atomic and cluster calculations.

  Creating wave function, potential, and density for free atoms.

  Species: H

  List of occupied orbitals and eigenvalues:
    n    l              occ      energy [Ha]    energy [eV]
    1    0           1.0000        -0.237589        -6.4651


  Species: C

  List of occupied orbitals and eigenvalues:
    n    l              occ      energy [Ha]    energy [eV]
    1    0           2.0000       -10.038835      -273.1706
    2    0           2.0000        -0.502696       -13.6791
    2    1           2.0000        -0.191971        -5.2238


  Species: N

  List of occupied orbitals and eigenvalues:
    n    l              occ      energy [Ha]    energy [eV]
    1    0           2.0000       -14.128000      -384.4424
    2    0           2.0000        -0.681077       -18.5330
    2    1           3.0000        -0.259788        -7.0692


  Species: O

  List of occupied orbitals and eigenvalues:
    n    l              occ      energy [Ha]    energy [eV]
    1    0           2.0000       -18.898188      -514.2459
    2    0           2.0000        -0.878505       -23.9053
    2    1           4.0000        -0.331779        -9.0282

  Creating fixed part of basis set: Ionic, confined, hydrogenic.
 
  H                    hydrogenic:
 
  List of hydrogenic basis orbitals: 
    n    l      effective z      eigenvalue [eV]  inner max. [A]     outer max. [A]     outer radius [A]   
    2    0         2.100000       -14.9728           0.193243           1.317208           4.583499
    2    1         3.500000       -41.6669           0.602369           0.602369           3.723403
 
 
  C                    hydrogenic:
 
  List of hydrogenic basis orbitals: 
    n    l      effective z      eigenvalue [eV]  inner max. [A]     outer max. [A]     outer radius [A]   
    2    1         1.700000        -9.7616           1.230570           1.230570           4.607917
    3    2         6.000000       -54.4224           0.792453           0.792453           3.883070
    2    0         4.900000       -81.6679           0.082559           0.562749           3.078220
 
 
  N                    hydrogenic:
 
  List of hydrogenic basis orbitals: 
    n    l      effective z      eigenvalue [eV]  inner max. [A]     outer max. [A]     outer radius [A]   
    2    1         1.800000       -10.9749           1.177451           1.177451           4.573712
    3    2         6.800000       -69.9026           0.704619           0.704619           3.538137
    3    0         5.800000       -50.8545           0.067388           1.191934           4.250239
 
 
  O                    hydrogenic:
 
  List of hydrogenic basis orbitals: 
    n    l      effective z      eigenvalue [eV]  inner max. [A]     outer max. [A]     outer radius [A]   
    2    1         1.800000       -10.9749           1.164242           1.164242           4.578029
    3    2         7.600000       -87.3180           0.624125           0.624125           3.251020
    3    0         6.400000       -61.9207           0.061167           1.081902           4.001998
 

  Adding cutoff potential to free-atom effective potential.
  Creating atomic-like basis functions for current effective potential.

  Species H                   :

  List of atomic basis orbitals and eigenvalues:
    n    l      energy [Ha]    energy [eV]    outer radius [A]
    1    0        -0.237589        -6.4651       4.527807


  Species C                   :

  List of atomic basis orbitals and eigenvalues:
    n    l      energy [Ha]    energy [eV]    outer radius [A]
    1    0       -10.038835      -273.1706       1.934409
    2    0        -0.502696       -13.6791       4.496620
    2    1        -0.191971        -5.2238       4.551928


  Species N                   :

  List of atomic basis orbitals and eigenvalues:
    n    l      energy [Ha]    energy [eV]    outer radius [A]
    1    0       -14.128000      -384.4424       1.637919
    2    0        -0.681077       -18.5330       4.463241
    2    1        -0.259788        -7.0692       4.518138


  Species O                   :

  List of atomic basis orbitals and eigenvalues:
    n    l      energy [Ha]    energy [eV]    outer radius [A]
    1    0       -18.898188      -514.2459       1.415765
    2    0        -0.878505       -23.9053       4.413171
    2    1        -0.331779        -9.0282       4.522403

  Assembling full basis from fixed parts.
  | Species H :   atomic orbital   1 s accepted.
  | Species H :    hydro orbital   2 s accepted.
  | Species H :    hydro orbital   2 p accepted.
  | Species C :   atomic orbital   1 s accepted.
  | Species C :    hydro orbital   2 s accepted.
  | Species C :   atomic orbital   2 s accepted.
  | Species C :   atomic orbital   2 p accepted.
  | Species C :    hydro orbital   2 p accepted.
  | Species C :    hydro orbital   3 d accepted.
  | Species N :   atomic orbital   1 s accepted.
  | Species N :    hydro orbital   3 s accepted.
  | Species N :   atomic orbital   2 s accepted.
  | Species N :   atomic orbital   2 p accepted.
  | Species N :    hydro orbital   2 p accepted.
  | Species N :    hydro orbital   3 d accepted.
  | Species O :   atomic orbital   1 s accepted.
  | Species O :    hydro orbital   3 s accepted.
  | Species O :   atomic orbital   2 s accepted.
  | Species O :   atomic orbital   2 p accepted.
  | Species O :    hydro orbital   2 p accepted.
  | Species O :    hydro orbital   3 d accepted.
 
  Basis size parameters after reduction:
  | Total number of radial functions:       21
  | Total number of basis functions :      119
 
  Per-task memory consumption for arrays in subroutine allocate_ext:
  |           5.250512MB.
  Testing on-site integration grid accuracy.
  |  Species  Function  <phi|h_atom|phi> (log., in eV)  <phi|h_atom|phi> (rad., in eV)
           1        1                 -6.4663192853                 -6.4651273558
           1        2                 13.7111246313                 13.7170609718
           1        3                 25.2673269279                 25.2674696378
           2        4               -273.1705927641               -273.1705631568
           2        5                -10.7109323383                -10.7107120029
           2        6                 17.4381822266                 17.4352413244
           2        7                 -5.2255326521                 -5.2270484734
           2        8                  8.6835629259                  8.6603288385
           2        9                 27.4952418996                 27.4953360207
           3       10               -384.4424306495               -384.4423701208
           3       11                 12.5842251816                 12.5842222903
           3       12                -15.7264628251                -15.7264433455
           3       13                 -7.0696854293                 -7.0701769954
           3       14                  8.8090390882                  8.7901077751
           3       15                 35.9586762123                 35.9588528632
           4       16               -514.2458688638               -514.2457643834
           4       17                 15.1795651126                 15.1795290741
           4       18                -21.5359799773                -21.5360846186
           4       19                 -9.0283069236                 -9.0284644067
           4       20                  8.3027758564                  8.2834874195
           4       21                 45.8339351984                 45.8338762259

  Preparing densities etc. for the partition functions (integrals / Hartree potential).

  Preparations completed.
  max(cpu_time)          :      0.149 s.
  Wall clock time (cpu1) :      0.151 s.
------------------------------------------------------------

------------------------------------------------------------
          Begin self-consistency loop: Initialization.

          Date     :  20200815, Time     :  004140.695
------------------------------------------------------------

  Initializing index lists of integration centers etc. from given atomic structure:
  | Number of centers in hartree potential         :        13
  | Number of centers in hartree multipole         :        13
  | Number of centers in electron density summation:        13
  | Number of centers in basis integrals           :        13
  | Number of centers in integrals                 :        13
  | Number of centers in hamiltonian               :        13
  Partitioning the integration grid into batches with parallel hashing+maxmin method.
  | Number of batches:      959
  | Maximal batch size:     139
  | Minimal batch size:      66
  | Average batch size:      72.624
  | Standard deviation of batch sizes:      17.169

  Integration load balanced across     1 MPI tasks.
  Work distribution over tasks is as follows:
  Task     0 has      69646 integration points.
  Initializing partition tables, free-atom densities, potentials, etc. across the integration grid (initialize_grid_storage).
  | initialize_grid_storage: Actual outermost partition radius vs. multipole_radius_free
  | (-- VB: in principle, multipole_radius_free should be larger, hence this output)
  | Species        1: Confinement radius =              4.999999999999999 AA, multipole_radius_free =              5.054417573612229 AA.
  | Species        1: outer_partition_radius set to              5.054417573612229 AA .
  | Species        2: Confinement radius =              4.999999999999999 AA, multipole_radius_free =              5.019602836301480 AA.
  | Species        2: outer_partition_radius set to              5.019602836301480 AA .
  | Species        3: Confinement radius =              4.999999999999999 AA, multipole_radius_free =              5.043624274424571 AA.
  | Species        3: outer_partition_radius set to              5.043624274424571 AA .
  | Species        4: Confinement radius =              4.999999999999999 AA, multipole_radius_free =              5.048384829883283 AA.
  | Species        4: outer_partition_radius set to              5.048384829883283 AA .
  | Original list of interatomic distances with          13 x         13 entries is created.
  | Net number of integration points:    69646
  | of which are non-zero points    :    59475
  Renormalizing the initial density to the exact electron count on the 3D integration grid.
  | Initial density: Formal number of electrons (from input files) :      48.0000000000
  | Integrated number of electrons on 3D grid     :      47.9998013986
  | Charge integration error                      :      -0.0001986014
  | Normalization factor for density and gradient :       1.0000041375
  Obtaining max. number of non-zero basis functions in each batch (get_n_compute_maxes).
  | Maximal number of non-zero basis functions:      119 in task     0
  Selecting the method for density update.
  Loop over occupied states selected for charge density update.
  Allocating        0.050 MB for KS_eigenvector
  Integrating Hamiltonian matrix: batch-based integration.
  Time summed over all CPUs for integration: real work        0.498 s, elapsed        0.498 s
  Integrating overlap matrix.
  Time summed over all CPUs for integration: real work        0.213 s, elapsed        0.213 s

  Updating Kohn-Sham eigenvalues and eigenvectors using ELSI and the ELPA eigensolver.
  Overlap matrix is nonsingular
  | Lowest eigenvalue of overlap  :  0.45E-02
  | Highest eigenvalue of overlap :  0.62E+01
  Finished singularity check of overlap matrix
  | Time :     0.002 s
  Finished Cholesky decomposition
  | Time :     0.000 s
  Finished transformation to standard eigenproblem
  | Time :     0.000 s
  Starting LAPACK eigensolver
  Finished solving standard eigenproblem
  | Time :     0.002 s
  Finished back-transformation of eigenvectors
  | Time :     0.000 s

  Obtaining occupation numbers and chemical potential using ELSI.
  | Chemical potential (Fermi level):    -9.77124908eV
  Writing Kohn-Sham eigenvalues.

  State    Occupation    Eigenvalue [Ha]    Eigenvalue [eV]
      1       2.00000         -19.007489         -517.22009
      2       2.00000         -18.977247         -516.39717
      3       2.00000         -14.245877         -387.65003
      4       2.00000         -10.166902         -276.65549
      5       2.00000         -10.141381         -275.96102
      6       2.00000         -10.131885         -275.70261
      7       2.00000          -1.182495          -32.17733
      8       2.00000          -1.097762          -29.87161
      9       2.00000          -0.991968          -26.99283
     10       2.00000          -0.858920          -23.37240
     11       2.00000          -0.757902          -20.62357
     12       2.00000          -0.677755          -18.44265
     13       2.00000          -0.629187          -17.12104
     14       2.00000          -0.608964          -16.57077
     15       2.00000          -0.582834          -15.85973
     16       2.00000          -0.572302          -15.57313
     17       2.00000          -0.553038          -15.04894
     18       2.00000          -0.535859          -14.58146
     19       2.00000          -0.520037          -14.15092
     20       2.00000          -0.492160          -13.39235
     21       2.00000          -0.458087          -12.46519
     22       2.00000          -0.426162          -11.59645
     23       2.00000          -0.413658          -11.25621
     24       2.00000          -0.380959          -10.36641
     25       0.00000          -0.161771           -4.40202
     26       0.00000          -0.068002           -1.85042
     27       0.00000          -0.034350           -0.93470
     28       0.00000          -0.017451           -0.47486
     29       0.00000          -0.009291           -0.25283
     30       0.00000           0.010653            0.28988
     31       0.00000           0.016547            0.45025
     32       0.00000           0.029366            0.79910
     33       0.00000           0.043256            1.17706
     34       0.00000           0.075242            2.04745
     35       0.00000           0.095072            2.58705
     36       0.00000           0.133684            3.63773
     37       0.00000           0.157705            4.29137
     38       0.00000           0.202443            5.50875
     39       0.00000           0.219382            5.96969
     40       0.00000           0.230457            6.27105
     41       0.00000           0.259211            7.05348
     42       0.00000           0.275528            7.49751
     43       0.00000           0.277719            7.55712
     44       0.00000           0.306761            8.34738
     45       0.00000           0.320785            8.72901
     46       0.00000           0.352075            9.58046
     47       0.00000           0.375661           10.22227
     48       0.00000           0.399155           10.86155
     49       0.00000           0.429218           11.67963
     50       0.00000           0.474204           12.90374
     51       0.00000           0.522626           14.22138
     52       0.00000           0.539985           14.69374
     53       0.00000           0.558048           15.18525

  Highest occupied state (VBM) at    -10.36641108 eV
  | Occupation number:      2.00000000

  Lowest unoccupied state (CBM) at    -4.40201809 eV
  | Occupation number:      0.00000000

  Overall HOMO-LUMO gap:      5.96439299 eV.
  Calculating total energy contributions from superposition of free atom densities.

  Total energy components:
  | Sum of eigenvalues            :        -188.82166061 Ha       -5138.09880879 eV
  | XC energy correction          :         -41.78515642 Ha       -1137.03195780 eV
  | XC potential correction       :          53.71511262 Ha        1461.66258292 eV
  | Free-atom electrostatic energy:        -146.86469801 Ha       -3996.39176707 eV
  | Hartree energy correction     :           0.00000000 Ha           0.00000000 eV
  | vdW energy correction         :           0.00000000 Ha           0.00000000 eV
  | Entropy correction            :           0.00000000 Ha           0.00000000 eV
  | ---------------------------
  | Total energy                  :        -323.75640243 Ha       -8809.85995074 eV
  | Total energy, T -> 0          :        -323.75640243 Ha       -8809.85995074 eV  <-- do not rely on this value for anything but (periodic) metals
  | Electronic free energy        :        -323.75640243 Ha       -8809.85995074 eV

  Derived energy quantities:
  | Kinetic energy                :         320.49194853 Ha        8721.02964048 eV
  | Electrostatic energy          :        -602.46319453 Ha      -16393.85763342 eV
  | Energy correction for multipole
  | error in Hartree potential    :           0.00000000 Ha           0.00000000 eV
  | Sum of eigenvalues per atom                           :        -395.23836991 eV
  | Total energy (T->0) per atom                          :        -677.68153467 eV  <-- do not rely on this value for anything but (periodic) metals
  | Electronic free energy per atom                       :        -677.68153467 eV
  Initialize hartree_potential_storage
  Max. number of atoms included in rho_multipole:           13

  End scf initialization - timings             :  max(cpu_time)    wall_clock(cpu1)
  | Time for scf. initialization               :        1.156 s           1.159 s
  | Boundary condition initialization          :        0.000 s           0.000 s
  | Integration                                :        0.710 s           0.711 s
  | Solution of K.-S. eqns.                    :        0.004 s           0.004 s
  | Grid partitioning                          :        0.112 s           0.113 s
  | Preloading free-atom quantities on grid    :        0.002 s           0.002 s
  | Free-atom superposition energy             :        0.085 s           0.086 s
  | Total energy evaluation                    :        0.000 s           0.000 s

  Partial memory accounting:
  | Current value for overall tracked memory usage on task 0  :           0.165 MB
  | Peak value for overall tracked memory usage on task 0     :           0.678 MB after allocating wave
  | Largest tracked array allocation on task 0 so far         :           0.132 MB  when allocating H_times_psi
  Note:  These values currently only include a subset of arrays which are explicitly tracked.
  The "true" memory usage will be greater.
------------------------------------------------------------

------------------------------------------------------------
          Begin self-consistency iteration #    1

  Date     :  20200815, Time     :  004141.854
------------------------------------------------------------
  Evaluating new KS density.
  Integration grid: deviation in total charge (<rho> - N_e) =  -5.684342E-14
  Pulay mixing of updated and previous charge densities.

  Evaluating partitioned Hartree potential by multipole expansion.
  | Analytical far-field extrapolation by fixed multipoles:
  | Hartree multipole sum: apparent total charge =  -0.305313E-03
  Summing up the Hartree potential.
  Time summed over all CPUs for potential: real work        0.282 s, elapsed        0.282 s
  | RMS charge density error from multipole expansion :   0.583681E-02

  Integrating Hamiltonian matrix: batch-based integration.
  Time summed over all CPUs for integration: real work        0.498 s, elapsed        0.498 s

  Updating Kohn-Sham eigenvalues and eigenvectors using ELSI and the ELPA eigensolver.
  Finished Cholesky decomposition
  | Time :     0.000 s
  Finished transformation to standard eigenproblem
  | Time :     0.000 s
  Starting LAPACK eigensolver
  Finished solving standard eigenproblem
  | Time :     0.001 s
  Finished back-transformation of eigenvectors
  | Time :     0.000 s

  Obtaining occupation numbers and chemical potential using ELSI.
  | Chemical potential (Fermi level):    -4.54471137eV
  Writing Kohn-Sham eigenvalues.

  State    Occupation    Eigenvalue [Ha]    Eigenvalue [eV]
      1       2.00000         -18.889445         -514.00794
      2       2.00000         -18.836953         -512.57958
      3       2.00000         -14.098160         -383.63045
      4       2.00000         -10.113682         -275.20730
      5       2.00000         -10.064058         -273.85696
      6       2.00000         -10.035487         -273.07948
      7       2.00000          -1.127251          -30.67406
      8       2.00000          -1.031527          -28.06929
      9       2.00000          -0.923480          -25.12916
     10       2.00000          -0.795123          -21.63639
     11       2.00000          -0.706328          -19.22016
     12       2.00000          -0.628107          -17.09167
     13       2.00000          -0.577723          -15.72063
     14       2.00000          -0.548150          -14.91591
     15       2.00000          -0.519082          -14.12494
     16       2.00000          -0.515307          -14.02221
     17       2.00000          -0.488175          -13.28393
     18       2.00000          -0.477220          -12.98583
     19       2.00000          -0.458000          -12.46283
     20       2.00000          -0.438172          -11.92327
     21       2.00000          -0.394362          -10.73114
     22       2.00000          -0.364258           -9.91196
     23       2.00000          -0.340048           -9.25317
     24       2.00000          -0.307825           -8.37633
     25       0.00000          -0.124164           -3.37868
     26       0.00000          -0.045971           -1.25092
     27       0.00000          -0.006978           -0.18989
     28       0.00000           0.017640            0.48000
     29       0.00000           0.019876            0.54084
     30       0.00000           0.049922            1.35844
     31       0.00000           0.052483            1.42814
     32       0.00000           0.063579            1.73006
     33       0.00000           0.082318            2.23999
     34       0.00000           0.114257            3.10909
     35       0.00000           0.135108            3.67646
     36       0.00000           0.163640            4.45288
     37       0.00000           0.185962            5.06028
     38       0.00000           0.229963            6.25760
     39       0.00000           0.254038            6.91273
     40       0.00000           0.266395            7.24898
     41       0.00000           0.289870            7.88775
     42       0.00000           0.310641            8.45297
     43       0.00000           0.312517            8.50402
     44       0.00000           0.342480            9.31937
     45       0.00000           0.362231            9.85681
     46       0.00000           0.390094           10.61501
     47       0.00000           0.421842           11.47892
     48       0.00000           0.439696           11.96475
     49       0.00000           0.464596           12.64229
     50       0.00000           0.506419           13.78035
     51       0.00000           0.558524           15.19821
     52       0.00000           0.575292           15.65450
     53       0.00000           0.594059           16.16518

  Highest occupied state (VBM) at     -8.37633450 eV
  | Occupation number:      2.00000000

  Lowest unoccupied state (CBM) at    -3.37867592 eV
  | Occupation number:      0.00000000

  Overall HOMO-LUMO gap:      4.99765858 eV.

  Total energy components:
  | Sum of eigenvalues            :        -185.35584646 Ha       -5043.78920740 eV
  | XC energy correction          :         -42.11681596 Ha       -1146.05687308 eV
  | XC potential correction       :          54.14655220 Ha        1473.40265117 eV
  | Free-atom electrostatic energy:        -146.86469801 Ha       -3996.39176707 eV
  | Hartree energy correction     :          -3.37948795 Ha         -91.96054615 eV
  | vdW energy correction         :           0.00000000 Ha           0.00000000 eV
  | Entropy correction            :           0.00000000 Ha           0.00000000 eV
  | ---------------------------
  | Total energy                  :        -323.57029619 Ha       -8804.79574253 eV
  | Total energy, T -> 0          :        -323.57029619 Ha       -8804.79574253 eV  <-- do not rely on this value for anything but (periodic) metals
  | Electronic free energy        :        -323.57029619 Ha       -8804.79574253 eV

  Derived energy quantities:
  | Kinetic energy                :         322.30516078 Ha        8770.36965634 eV
  | Electrostatic energy          :        -603.75864101 Ha      -16429.10852579 eV
  | Energy correction for multipole
  | error in Hartree potential    :           0.01193451 Ha           0.32475443 eV
  | Sum of eigenvalues per atom                           :        -387.98378518 eV
  | Total energy (T->0) per atom                          :        -677.29198019 eV  <-- do not rely on this value for anything but (periodic) metals
  | Electronic free energy per atom                       :        -677.29198019 eV

  Self-consistency convergence accuracy:
  | Change of charge density      :  0.5900E+00
  | Change of sum of eigenvalues  :  0.9431E+02 eV
  | Change of total energy        :  0.5064E+01 eV

  End self-consistency iteration #     1       :  max(cpu_time)    wall_clock(cpu1)
  | Time for this iteration                    :        1.195 s           1.197 s
  | Charge density update                      :        0.397 s           0.398 s
  | Density mixing                             :        0.005 s           0.005 s
  | Hartree multipole update                   :        0.009 s           0.009 s
  | Hartree multipole summation                :        0.283 s           0.283 s
  | Integration                                :        0.498 s           0.499 s
  | Solution of K.-S. eqns.                    :        0.002 s           0.002 s
  | Total energy evaluation                    :        0.000 s           0.001 s

  Partial memory accounting:
  | Current value for overall tracked memory usage on task 0  :           0.165 MB
  | Peak value for overall tracked memory usage on task 0     :           0.695 MB after allocating gradient_basis_wave
  | Largest tracked array allocation on task 0 so far         :           0.397 MB  when allocating gradient_basis_wave
  Note:  These values currently only include a subset of arrays which are explicitly tracked.
  The "true" memory usage will be greater.
------------------------------------------------------------

------------------------------------------------------------
          Begin self-consistency iteration #    2

  Date     :  20200815, Time     :  004143.053
------------------------------------------------------------
  Evaluating new KS density.
  Integration grid: deviation in total charge (<rho> - N_e) =  -2.131628E-14
  Pulay mixing of updated and previous charge densities.

  Evaluating partitioned Hartree potential by multipole expansion.
  | Analytical far-field extrapolation by fixed multipoles:
  | Hartree multipole sum: apparent total charge =  -0.441761E-03
  Summing up the Hartree potential.
  Time summed over all CPUs for potential: real work        0.282 s, elapsed        0.282 s
  | RMS charge density error from multipole expansion :   0.137986E-01

  Integrating Hamiltonian matrix: batch-based integration.
  Time summed over all CPUs for integration: real work        0.501 s, elapsed        0.501 s

  Updating Kohn-Sham eigenvalues and eigenvectors using ELSI and the ELPA eigensolver.
  Finished Cholesky decomposition
  | Time :     0.000 s
  Finished transformation to standard eigenproblem
  | Time :     0.000 s
  Starting LAPACK eigensolver
  Finished solving standard eigenproblem
  | Time :     0.001 s
  Finished back-transformation of eigenvectors
  | Time :     0.000 s

  Obtaining occupation numbers and chemical potential using ELSI.
  | Chemical potential (Fermi level):    -3.31331633eV
  Highest occupied state (VBM) at     -6.39082778 eV
  | Occupation number:      2.00000000

  Lowest unoccupied state (CBM) at    -2.09205233 eV
  | Occupation number:      0.00000000

  Overall HOMO-LUMO gap:      4.29877545 eV.

  Checking to see if s.c.f. parameters should be adjusted.

  Total energy components:
  | Sum of eigenvalues            :        -181.72734388 Ha       -4945.05262839 eV
  | XC energy correction          :         -42.47729824 Ha       -1155.86609494 eV
  | XC potential correction       :          54.61395522 Ha        1486.12133447 eV
  | Free-atom electrostatic energy:        -146.86469801 Ha       -3996.39176707 eV
  | Hartree energy correction     :          -7.03382253 Ha        -191.40004934 eV
  | vdW energy correction         :           0.00000000 Ha           0.00000000 eV
  | Entropy correction            :           0.00000000 Ha           0.00000000 eV
  | ---------------------------
  | Total energy                  :        -323.48920744 Ha       -8802.58920527 eV
  | Total energy, T -> 0          :        -323.48920744 Ha       -8802.58920527 eV  <-- do not rely on this value for anything but (periodic) metals
  | Electronic free energy        :        -323.48920744 Ha       -8802.58920527 eV

  Derived energy quantities:
  | Kinetic energy                :         323.62636467 Ha        8806.32144336 eV
  | Electrostatic energy          :        -604.63827387 Ha      -16453.04455369 eV
  | Energy correction for multipole
  | error in Hartree potential    :           0.02607500 Ha           0.70953685 eV
  | Sum of eigenvalues per atom                           :        -380.38866372 eV
  | Total energy (T->0) per atom                          :        -677.12224656 eV  <-- do not rely on this value for anything but (periodic) metals
  | Electronic free energy per atom                       :        -677.12224656 eV

  Self-consistency convergence accuracy:
  | Change of charge density      :  0.3690E+00
  | Change of sum of eigenvalues  :  0.9874E+02 eV
  | Change of total energy        :  0.2207E+01 eV

  End self-consistency iteration #     2       :  max(cpu_time)    wall_clock(cpu1)
  | Time for this iteration                    :        1.192 s           1.194 s
  | Charge density update                      :        0.390 s           0.391 s
  | Density mixing                             :        0.007 s           0.007 s
  | Hartree multipole update                   :        0.009 s           0.009 s
  | Hartree multipole summation                :        0.282 s           0.283 s
  | Integration                                :        0.501 s           0.501 s
  | Solution of K.-S. eqns.                    :        0.002 s           0.003 s
  | Total energy evaluation                    :        0.000 s           0.000 s

  Partial memory accounting:
  | Current value for overall tracked memory usage on task 0  :           0.166 MB
  | Peak value for overall tracked memory usage on task 0     :           0.695 MB after allocating gradient_basis_wave
  | Largest tracked array allocation on task 0 so far         :           0.397 MB  when allocating gradient_basis_wave
  Note:  These values currently only include a subset of arrays which are explicitly tracked.
  The "true" memory usage will be greater.
------------------------------------------------------------

------------------------------------------------------------
          Begin self-consistency iteration #    3

  Date     :  20200815, Time     :  004144.250
------------------------------------------------------------
  Evaluating new KS density.
  Integration grid: deviation in total charge (<rho> - N_e) =   1.421085E-14
  Pulay mixing of updated and previous charge densities.

  Evaluating partitioned Hartree potential by multipole expansion.
  | Analytical far-field extrapolation by fixed multipoles:
  | Hartree multipole sum: apparent total charge =  -0.540785E-03
  Summing up the Hartree potential.
  Time summed over all CPUs for potential: real work        0.282 s, elapsed        0.282 s
  | RMS charge density error from multipole expansion :   0.216691E-01

  Integrating Hamiltonian matrix: batch-based integration.
  Time summed over all CPUs for integration: real work        0.502 s, elapsed        0.502 s

  Updating Kohn-Sham eigenvalues and eigenvectors using ELSI and the ELPA eigensolver.
  Finished Cholesky decomposition
  | Time :     0.000 s
  Finished transformation to standard eigenproblem
  | Time :     0.000 s
  Starting LAPACK eigensolver
  Finished solving standard eigenproblem
  | Time :     0.002 s
  Finished back-transformation of eigenvectors
  | Time :     0.000 s

  Obtaining occupation numbers and chemical potential using ELSI.
  | Chemical potential (Fermi level):    -2.72794069eV
  Highest occupied state (VBM) at     -5.70509816 eV
  | Occupation number:      2.00000000

  Lowest unoccupied state (CBM) at    -1.38570179 eV
  | Occupation number:      0.00000000

  Overall HOMO-LUMO gap:      4.31939638 eV.

  Total energy components:
  | Sum of eigenvalues            :        -180.39319971 Ha       -4908.74871861 eV
  | XC energy correction          :         -42.62859355 Ha       -1159.98304974 eV
  | XC potential correction       :          54.80701863 Ha        1491.37485716 eV
  | Free-atom electrostatic energy:        -146.86469801 Ha       -3996.39176707 eV
  | Hartree energy correction     :          -8.39614523 Ha        -228.47073628 eV
  | vdW energy correction         :           0.00000000 Ha           0.00000000 eV
  | Entropy correction            :           0.00000000 Ha           0.00000000 eV
  | ---------------------------
  | Total energy                  :        -323.47561788 Ha       -8802.21941454 eV
  | Total energy, T -> 0          :        -323.47561788 Ha       -8802.21941454 eV  <-- do not rely on this value for anything but (periodic) metals
  | Electronic free energy        :        -323.47561788 Ha       -8802.21941454 eV

  Derived energy quantities:
  | Kinetic energy                :         323.20600458 Ha        8794.88286335 eV
  | Electrostatic energy          :        -604.05302891 Ha      -16437.11922815 eV
  | Energy correction for multipole
  | error in Hartree potential    :           0.03655061 Ha           0.99459269 eV
  | Sum of eigenvalues per atom                           :        -377.59605528 eV
  | Total energy (T->0) per atom                          :        -677.09380112 eV  <-- do not rely on this value for anything but (periodic) metals
  | Electronic free energy per atom                       :        -677.09380112 eV

  Self-consistency convergence accuracy:
  | Change of charge density      :  0.2076E+00
  | Change of sum of eigenvalues  :  0.3630E+02 eV
  | Change of total energy        :  0.3698E+00 eV

  End self-consistency iteration #     3       :  max(cpu_time)    wall_clock(cpu1)
  | Time for this iteration                    :        1.194 s           1.202 s
  | Charge density update                      :        0.390 s           0.397 s
  | Density mixing                             :        0.008 s           0.009 s
  | Hartree multipole update                   :        0.009 s           0.009 s
  | Hartree multipole summation                :        0.282 s           0.282 s
  | Integration                                :        0.502 s           0.503 s
  | Solution of K.-S. eqns.                    :        0.002 s           0.002 s
  | Total energy evaluation                    :        0.000 s           0.000 s

  Partial memory accounting:
  | Current value for overall tracked memory usage on task 0  :           0.166 MB
  | Peak value for overall tracked memory usage on task 0     :           0.695 MB after allocating gradient_basis_wave
  | Largest tracked array allocation on task 0 so far         :           0.397 MB  when allocating gradient_basis_wave
  Note:  These values currently only include a subset of arrays which are explicitly tracked.
  The "true" memory usage will be greater.
------------------------------------------------------------

------------------------------------------------------------
          Begin self-consistency iteration #    4

  Date     :  20200815, Time     :  004145.455
------------------------------------------------------------
  Evaluating new KS density.
  Integration grid: deviation in total charge (<rho> - N_e) =   1.421085E-14
  Pulay mixing of updated and previous charge densities.

  Evaluating partitioned Hartree potential by multipole expansion.
  | Analytical far-field extrapolation by fixed multipoles:
  | Hartree multipole sum: apparent total charge =  -0.575156E-03
  Summing up the Hartree potential.
  Time summed over all CPUs for potential: real work        0.282 s, elapsed        0.282 s
  | RMS charge density error from multipole expansion :   0.250564E-01

  Integrating Hamiltonian matrix: batch-based integration.
  Time summed over all CPUs for integration: real work        0.503 s, elapsed        0.503 s

  Updating Kohn-Sham eigenvalues and eigenvectors using ELSI and the ELPA eigensolver.
  Finished Cholesky decomposition
  | Time :     0.000 s
  Finished transformation to standard eigenproblem
  | Time :     0.000 s
  Starting LAPACK eigensolver
  Finished solving standard eigenproblem
  | Time :     0.002 s
  Finished back-transformation of eigenvectors
  | Time :     0.000 s

  Obtaining occupation numbers and chemical potential using ELSI.
  | Chemical potential (Fermi level):    -2.61503391eV
  Highest occupied state (VBM) at     -5.50624976 eV
  | Occupation number:      2.00000000

  Lowest unoccupied state (CBM) at    -1.27940563 eV
  | Occupation number:      0.00000000

  Overall HOMO-LUMO gap:      4.22684414 eV.

  Total energy components:
  | Sum of eigenvalues            :        -180.23585268 Ha       -4904.46708798 eV
  | XC energy correction          :         -42.66704797 Ha       -1161.02944788 eV
  | XC potential correction       :          54.85546668 Ha        1492.69319571 eV
  | Free-atom electrostatic energy:        -146.86469801 Ha       -3996.39176707 eV
  | Hartree energy correction     :          -8.56241442 Ha        -232.99515102 eV
  | vdW energy correction         :           0.00000000 Ha           0.00000000 eV
  | Entropy correction            :           0.00000000 Ha           0.00000000 eV
  | ---------------------------
  | Total energy                  :        -323.47454641 Ha       -8802.19025824 eV
  | Total energy, T -> 0          :        -323.47454641 Ha       -8802.19025824 eV  <-- do not rely on this value for anything but (periodic) metals
  | Electronic free energy        :        -323.47454641 Ha       -8802.19025824 eV

  Derived energy quantities:
  | Kinetic energy                :         322.81503884 Ha        8784.24414439 eV
  | Electrostatic energy          :        -603.62253728 Ha      -16425.40495475 eV
  | Energy correction for multipole
  | error in Hartree potential    :           0.04059712 Ha           1.10470376 eV
  | Sum of eigenvalues per atom                           :        -377.26669908 eV
  | Total energy (T->0) per atom                          :        -677.09155833 eV  <-- do not rely on this value for anything but (periodic) metals
  | Electronic free energy per atom                       :        -677.09155833 eV

  Self-consistency convergence accuracy:
  | Change of charge density      :  0.6735E-01
  | Change of sum of eigenvalues  :  0.4282E+01 eV
  | Change of total energy        :  0.2916E-01 eV

  End self-consistency iteration #     4       :  max(cpu_time)    wall_clock(cpu1)
  | Time for this iteration                    :        1.195 s           1.197 s
  | Charge density update                      :        0.390 s           0.390 s
  | Density mixing                             :        0.010 s           0.010 s
  | Hartree multipole update                   :        0.009 s           0.009 s
  | Hartree multipole summation                :        0.282 s           0.282 s
  | Integration                                :        0.503 s           0.503 s
  | Solution of K.-S. eqns.                    :        0.002 s           0.002 s
  | Total energy evaluation                    :        0.000 s           0.000 s

  Partial memory accounting:
  | Current value for overall tracked memory usage on task 0  :           0.166 MB
  | Peak value for overall tracked memory usage on task 0     :           0.696 MB after allocating gradient_basis_wave
  | Largest tracked array allocation on task 0 so far         :           0.397 MB  when allocating gradient_basis_wave
  Note:  These values currently only include a subset of arrays which are explicitly tracked.
  The "true" memory usage will be greater.
------------------------------------------------------------

------------------------------------------------------------
          Begin self-consistency iteration #    5

  Date     :  20200815, Time     :  004146.654
------------------------------------------------------------
  Evaluating new KS density.
  Integration grid: deviation in total charge (<rho> - N_e) =   2.131628E-14
  Pulay mixing of updated and previous charge densities.

  Evaluating partitioned Hartree potential by multipole expansion.
  | Analytical far-field extrapolation by fixed multipoles:
  | Hartree multipole sum: apparent total charge =  -0.569089E-03
  Summing up the Hartree potential.
  Time summed over all CPUs for potential: real work        0.282 s, elapsed        0.282 s
  | RMS charge density error from multipole expansion :   0.248240E-01

  Integrating Hamiltonian matrix: batch-based integration.
  Time summed over all CPUs for integration: real work        0.502 s, elapsed        0.502 s

  Updating Kohn-Sham eigenvalues and eigenvectors using ELSI and the ELPA eigensolver.
  Finished Cholesky decomposition
  | Time :     0.000 s
  Finished transformation to standard eigenproblem
  | Time :     0.000 s
  Starting LAPACK eigensolver
  Finished solving standard eigenproblem
  | Time :     0.002 s
  Finished back-transformation of eigenvectors
  | Time :     0.000 s

  Obtaining occupation numbers and chemical potential using ELSI.
  | Chemical potential (Fermi level):    -2.67575646eV
  Highest occupied state (VBM) at     -5.61426188 eV
  | Occupation number:      2.00000000

  Lowest unoccupied state (CBM) at    -1.38426846 eV
  | Occupation number:      0.00000000

  Overall HOMO-LUMO gap:      4.22999343 eV.

  Total energy components:
  | Sum of eigenvalues            :        -180.45777561 Ha       -4910.50591809 eV
  | XC energy correction          :         -42.64046425 Ha       -1160.30606786 eV
  | XC potential correction       :          54.82095843 Ha        1491.75417848 eV
  | Free-atom electrostatic energy:        -146.86469801 Ha       -3996.39176707 eV
  | Hartree energy correction     :          -8.33227546 Ha        -226.73275119 eV
  | vdW energy correction         :           0.00000000 Ha           0.00000000 eV
  | Entropy correction            :           0.00000000 Ha           0.00000000 eV
  | ---------------------------
  | Total energy                  :        -323.47425489 Ha       -8802.18232573 eV
  | Total energy, T -> 0          :        -323.47425489 Ha       -8802.18232573 eV  <-- do not rely on this value for anything but (periodic) metals
  | Electronic free energy        :        -323.47425489 Ha       -8802.18232573 eV

  Derived energy quantities:
  | Kinetic energy                :         322.68530076 Ha        8780.71379143 eV
  | Electrostatic energy          :        -603.51909140 Ha      -16422.59004930 eV
  | Energy correction for multipole
  | error in Hartree potential    :           0.03994757 Ha           1.08702874 eV
  | Sum of eigenvalues per atom                           :        -377.73122447 eV
  | Total energy (T->0) per atom                          :        -677.09094813 eV  <-- do not rely on this value for anything but (periodic) metals
  | Electronic free energy per atom                       :        -677.09094813 eV

  Self-consistency convergence accuracy:
  | Change of charge density      :  0.2032E-01
  | Change of sum of eigenvalues  : -0.6039E+01 eV
  | Change of total energy        :  0.7933E-02 eV

  End self-consistency iteration #     5       :  max(cpu_time)    wall_clock(cpu1)
  | Time for this iteration                    :        1.197 s           1.198 s
  | Charge density update                      :        0.390 s           0.390 s
  | Density mixing                             :        0.011 s           0.011 s
  | Hartree multipole update                   :        0.009 s           0.009 s
  | Hartree multipole summation                :        0.282 s           0.283 s
  | Integration                                :        0.502 s           0.502 s
  | Solution of K.-S. eqns.                    :        0.002 s           0.003 s
  | Total energy evaluation                    :        0.000 s           0.000 s

  Partial memory accounting:
  | Current value for overall tracked memory usage on task 0  :           0.166 MB
  | Peak value for overall tracked memory usage on task 0     :           0.696 MB after allocating gradient_basis_wave
  | Largest tracked array allocation on task 0 so far         :           0.397 MB  when allocating gradient_basis_wave
  Note:  These values currently only include a subset of arrays which are explicitly tracked.
  The "true" memory usage will be greater.
------------------------------------------------------------

------------------------------------------------------------
          Begin self-consistency iteration #    6

  Date     :  20200815, Time     :  004147.854
------------------------------------------------------------
  Evaluating new KS density.
  Integration grid: deviation in total charge (<rho> - N_e) =  -4.973799E-14
  Pulay mixing of updated and previous charge densities.

  Evaluating partitioned Hartree potential by multipole expansion.
  | Analytical far-field extrapolation by fixed multipoles:
  | Hartree multipole sum: apparent total charge =  -0.574065E-03
  Summing up the Hartree potential.
  Time summed over all CPUs for potential: real work        0.282 s, elapsed        0.282 s
  | RMS charge density error from multipole expansion :   0.252801E-01

  Integrating Hamiltonian matrix: batch-based integration.
  Time summed over all CPUs for integration: real work        0.502 s, elapsed        0.502 s

  Updating Kohn-Sham eigenvalues and eigenvectors using ELSI and the ELPA eigensolver.
  Finished Cholesky decomposition
  | Time :     0.000 s
  Finished transformation to standard eigenproblem
  | Time :     0.000 s
  Starting LAPACK eigensolver
  Finished solving standard eigenproblem
  | Time :     0.001 s
  Finished back-transformation of eigenvectors
  | Time :     0.000 s

  Obtaining occupation numbers and chemical potential using ELSI.
  | Chemical potential (Fermi level):    -2.65550776eV
  Highest occupied state (VBM) at     -5.57116649 eV
  | Occupation number:      2.00000000

  Lowest unoccupied state (CBM) at    -1.38119229 eV
  | Occupation number:      0.00000000

  Overall HOMO-LUMO gap:      4.18997420 eV.

  Total energy components:
  | Sum of eigenvalues            :        -180.42293586 Ha       -4909.55788021 eV
  | XC energy correction          :         -42.64372532 Ha       -1160.39480618 eV
  | XC potential correction       :          54.82517304 Ha        1491.86886383 eV
  | Free-atom electrostatic energy:        -146.86469801 Ha       -3996.39176707 eV
  | Hartree energy correction     :          -8.36803107 Ha        -227.70571099 eV
  | vdW energy correction         :           0.00000000 Ha           0.00000000 eV
  | Entropy correction            :           0.00000000 Ha           0.00000000 eV
  | ---------------------------
  | Total energy                  :        -323.47421722 Ha       -8802.18130062 eV
  | Total energy, T -> 0          :        -323.47421722 Ha       -8802.18130062 eV  <-- do not rely on this value for anything but (periodic) metals
  | Electronic free energy        :        -323.47421722 Ha       -8802.18130062 eV

  Derived energy quantities:
  | Kinetic energy                :         322.62632870 Ha        8779.10908002 eV
  | Electrostatic energy          :        -603.45682060 Ha      -16420.89557446 eV
  | Energy correction for multipole
  | error in Hartree potential    :           0.04040694 Ha           1.09952881 eV
  | Sum of eigenvalues per atom                           :        -377.65829848 eV
  | Total energy (T->0) per atom                          :        -677.09086928 eV  <-- do not rely on this value for anything but (periodic) metals
  | Electronic free energy per atom                       :        -677.09086928 eV

  Self-consistency convergence accuracy:
  | Change of charge density      :  0.1046E-01
  | Change of sum of eigenvalues  :  0.9480E+00 eV
  | Change of total energy        :  0.1025E-02 eV

  End self-consistency iteration #     6       :  max(cpu_time)    wall_clock(cpu1)
  | Time for this iteration                    :        1.198 s           1.205 s
  | Charge density update                      :        0.390 s           0.397 s
  | Density mixing                             :        0.012 s           0.012 s
  | Hartree multipole update                   :        0.009 s           0.009 s
  | Hartree multipole summation                :        0.282 s           0.283 s
  | Integration                                :        0.502 s           0.502 s
  | Solution of K.-S. eqns.                    :        0.002 s           0.002 s
  | Total energy evaluation                    :        0.000 s           0.000 s

  Partial memory accounting:
  | Current value for overall tracked memory usage on task 0  :           0.166 MB
  | Peak value for overall tracked memory usage on task 0     :           0.696 MB after allocating gradient_basis_wave
  | Largest tracked array allocation on task 0 so far         :           0.397 MB  when allocating gradient_basis_wave
  Note:  These values currently only include a subset of arrays which are explicitly tracked.
  The "true" memory usage will be greater.
------------------------------------------------------------

------------------------------------------------------------
          Begin self-consistency iteration #    7

  Date     :  20200815, Time     :  004149.062
------------------------------------------------------------
  Evaluating new KS density.
  Integration grid: deviation in total charge (<rho> - N_e) =   0.000000E+00
  Pulay mixing of updated and previous charge densities.

  Evaluating partitioned Hartree potential by multipole expansion.
  | Analytical far-field extrapolation by fixed multipoles:
  | Hartree multipole sum: apparent total charge =  -0.574766E-03
  Summing up the Hartree potential.
  Time summed over all CPUs for potential: real work        0.282 s, elapsed        0.282 s
  | RMS charge density error from multipole expansion :   0.253601E-01

  Integrating Hamiltonian matrix: batch-based integration.
  Time summed over all CPUs for integration: real work        0.502 s, elapsed        0.502 s

  Updating Kohn-Sham eigenvalues and eigenvectors using ELSI and the ELPA eigensolver.
  Finished Cholesky decomposition
  | Time :     0.000 s
  Finished transformation to standard eigenproblem
  | Time :     0.000 s
  Starting LAPACK eigensolver
  Finished solving standard eigenproblem
  | Time :     0.001 s
  Finished back-transformation of eigenvectors
  | Time :     0.000 s

[...]
  |   Hirshfeld dipole moment :      0.05899308
  |   Hirshfeld second moments:      0.00976441      -0.03193834      -0.02041876
  |                                 -0.03193834      -0.02436705       0.00808214
  |                                 -0.02041876       0.00808214      -0.01741596
  ----------------------------------------------------------------------
  | Atom    12: O
  |   Hirshfeld charge        :     -0.17238562
  |   Free atom volume        :     23.61338643
  |   Hirshfeld volume        :     21.29921400
  |   Hirshfeld dipole vector :      0.00381413       0.03901559       0.01755797
  |   Hirshfeld dipole moment :      0.04295400
  |   Hirshfeld second moments:      0.10856447      -0.00921719       0.00444890
  |                                 -0.00921719       0.02346549       0.01770103
  |                                  0.00444890       0.01770103       0.00656468
  ----------------------------------------------------------------------
  | Atom    13: H
  |   Hirshfeld charge        :      0.18046903
  |   Free atom volume        :      9.95071624
  |   Hirshfeld volume        :      6.28218579
  |   Hirshfeld dipole vector :     -0.12037683       0.04720312       0.01332936
  |   Hirshfeld dipole moment :      0.12998610
  |   Hirshfeld second moments:      0.12387920       0.00260731       0.00302553
  |                                  0.00260731       0.11062889       0.00868922
  |                                  0.00302553       0.00868922       0.10376972
  ----------------------------------------------------------------------


  Total energy components:
  | Sum of eigenvalues            :        -180.42838056 Ha       -4909.70603813 eV
  | XC energy correction          :         -42.63973979 Ha       -1160.28635431 eV
  | XC potential correction       :          54.82010211 Ha        1491.73087673 eV
  | Free-atom electrostatic energy:        -146.86469801 Ha       -3996.39176707 eV
  | Hartree energy correction     :          -8.36147326 Ha        -227.52726374 eV
  | vdW energy correction         :          -0.00345381 Ha          -0.09398301 eV
  | Entropy correction            :           0.00000000 Ha           0.00000000 eV
  | ---------------------------
  | Total energy                  :        -323.47764332 Ha       -8802.27452953 eV
  | Total energy, T -> 0          :        -323.47764332 Ha       -8802.27452953 eV  <-- do not rely on this value for anything but (periodic) metals
  | Electronic free energy        :        -323.47764332 Ha       -8802.27452953 eV

  Derived energy quantities:
  | Kinetic energy                :         322.58757185 Ha        8778.05445246 eV
  | Electrostatic energy          :        -603.42202157 Ha      -16419.94864467 eV
  | Energy correction for multipole
  | error in Hartree potential    :           0.04041414 Ha           1.09972458 eV
  | Sum of eigenvalues per atom                           :        -377.66969524 eV
  | Total energy (T->0) per atom                          :        -677.09804073 eV  <-- do not rely on this value for anything but (periodic) metals
  | Electronic free energy per atom                       :        -677.09804073 eV

  atomic forces [eV/Ang]:
  -----------------------
  atom #    1
   Hellmann-Feynman              :  0.508883E+00  0.160902E+00  0.956614E+00
   Ionic forces                  :  0.000000E+00  0.000000E+00  0.000000E+00
   Multipole                     :  0.225465E-02  0.501664E+00 -0.241454E+00
   Pulay + GGA                   : -0.889329E+00 -0.987194E-01 -0.131177E+01
   Van der Waals                 :  0.502995E-02  0.315341E-02 -0.160527E-02
   ----------------------------------------------------------------
   Total forces(   1)            : -0.373161E+00  0.566999E+00 -0.598216E+00
  atom #    2
   Hellmann-Feynman              :  0.253329E+00 -0.413198E-01  0.499882E-02
   Ionic forces                  :  0.000000E+00  0.000000E+00  0.000000E+00
   Multipole                     :  0.188931E+00  0.450164E-01  0.150034E-01
   Pulay + GGA                   : -0.139085E+00  0.639456E-02  0.447993E-01
   Van der Waals                 :  0.370412E-02 -0.425743E-02 -0.649141E-02
   ----------------------------------------------------------------
   Total forces(   2)            :  0.306879E+00  0.583366E-02  0.583101E-01
  atom #    3
   Hellmann-Feynman              : -0.434263E+01 -0.103673E+02 -0.127230E+01
   Ionic forces                  :  0.000000E+00  0.000000E+00  0.000000E+00
   Multipole                     : -0.181820E+00  0.851308E-01 -0.866406E+00
   Pulay + GGA                   :  0.475226E+01  0.100386E+02  0.280358E+01
   Van der Waals                 :  0.724173E-02 -0.128047E-02 -0.122923E-01
   ----------------------------------------------------------------
   Total forces(   3)            :  0.235049E+00 -0.244774E+00  0.652582E+00
  atom #    4
   Hellmann-Feynman              :  0.126625E+00  0.221569E+00 -0.186453E+00
   Ionic forces                  :  0.000000E+00  0.000000E+00  0.000000E+00
   Multipole                     : -0.627536E-01  0.635753E-01 -0.756431E-01
   Pulay + GGA                   :  0.112196E+00 -0.200467E+00  0.114685E-01
   Van der Waals                 : -0.175616E-02 -0.992470E-02 -0.428885E-02
   ----------------------------------------------------------------
   Total forces(   4)            :  0.174311E+00  0.747526E-01 -0.254917E+00
  atom #    5
   Hellmann-Feynman              : -0.289598E-01  0.253035E+00 -0.212209E+00
   Ionic forces                  :  0.000000E+00  0.000000E+00  0.000000E+00
   Multipole                     :  0.319867E-01  0.347345E-01 -0.109541E+00
   Pulay + GGA                   : -0.179081E+00 -0.136721E+00  0.117101E+00
   Van der Waals                 : -0.392346E-02 -0.177060E-02  0.579709E-02
   ----------------------------------------------------------------
   Total forces(   5)            : -0.179978E+00  0.149278E+00 -0.198852E+00
  atom #    6
   Hellmann-Feynman              :  0.492298E+00 -0.561231E+00  0.387118E+00
   Ionic forces                  :  0.000000E+00  0.000000E+00  0.000000E+00
   Multipole                     : -0.773633E-01  0.569535E+00  0.232819E+00
   Pulay + GGA                   : -0.341123E-01 -0.413702E+00 -0.351212E+00
   Van der Waals                 : -0.443776E-02  0.477427E-02 -0.294214E-03
   ----------------------------------------------------------------
   Total forces(   6)            :  0.376385E+00 -0.400624E+00  0.268432E+00
  atom #    7
   Hellmann-Feynman              : -0.272524E+00 -0.610526E-01 -0.455956E-01
   Ionic forces                  :  0.000000E+00  0.000000E+00  0.000000E+00
   Multipole                     : -0.118507E+00  0.507312E-01  0.271183E-01
   Pulay + GGA                   :  0.105808E+00  0.336357E-01  0.394157E-01
   Van der Waals                 : -0.293632E-02  0.131482E-02  0.782536E-02
   ----------------------------------------------------------------
   Total forces(   7)            : -0.288160E+00  0.246292E-01  0.287637E-01
  atom #    8
   Hellmann-Feynman              : -0.584500E-02  0.135438E-01  0.223219E+00
   Ionic forces                  :  0.000000E+00  0.000000E+00  0.000000E+00
   Multipole                     :  0.173753E-01  0.646661E-01  0.118480E+00
   Pulay + GGA                   : -0.445968E-01 -0.487514E-01 -0.114132E+00
   Van der Waals                 : -0.323715E-02  0.111901E-01  0.495201E-03
   ----------------------------------------------------------------
   Total forces(   8)            : -0.363036E-01  0.406485E-01  0.228062E+00
  atom #    9
   Hellmann-Feynman              :  0.956669E-01  0.655728E-01 -0.159214E+00
   Ionic forces                  :  0.000000E+00  0.000000E+00  0.000000E+00
   Multipole                     :  0.172020E-01  0.129576E+00 -0.114546E-01
   Pulay + GGA                   : -0.334946E-01 -0.902972E-01  0.509499E-01
   Van der Waals                 :  0.597022E-03  0.611512E-02  0.682655E-02
   ----------------------------------------------------------------
   Total forces(   9)            :  0.799713E-01  0.110967E+00 -0.112892E+00
  atom #   10
   Hellmann-Feynman              :  0.256399E+01  0.496225E+01  0.179539E+01
   Ionic forces                  :  0.000000E+00  0.000000E+00  0.000000E+00
   Multipole                     :  0.106163E+00 -0.122584E+00  0.293583E+00
   Pulay + GGA                   : -0.790017E+00 -0.332846E+01 -0.405039E+00
   Van der Waals                 :  0.350496E-02 -0.119017E-01 -0.256903E-02
   ----------------------------------------------------------------
   Total forces(  10)            :  0.188364E+01  0.149930E+01  0.168137E+01
  atom #   11
   Hellmann-Feynman              :  0.381132E+01 -0.217073E+01  0.138847E+02
   Ionic forces                  :  0.000000E+00  0.000000E+00  0.000000E+00
   Multipole                     :  0.740223E-01 -0.642175E+00  0.739684E+00
   Pulay + GGA                   : -0.281643E+01  0.351250E+01 -0.136168E+02
   Van der Waals                 : -0.202447E-03 -0.120668E-01  0.528237E-02
   ----------------------------------------------------------------
   Total forces(  11)            :  0.106872E+01  0.687535E+00  0.101287E+01
  atom #   12
   Hellmann-Feynman              :  0.140142E+01 -0.137896E+02 -0.743606E+01
   Ionic forces                  :  0.000000E+00  0.000000E+00  0.000000E+00
   Multipole                     : -0.636138E+00 -0.143511E+01 -0.379889E+00
   Pulay + GGA                   : -0.319403E+01  0.132408E+02  0.600409E+01
   Van der Waals                 :  0.141323E-02  0.108143E-01  0.756314E-03
   ----------------------------------------------------------------
   Total forces(  12)            : -0.242733E+01 -0.197309E+01 -0.181110E+01
  atom #   13
   Hellmann-Feynman              : -0.113142E+01 -0.312972E+00 -0.927681E+00
   Ionic forces                  :  0.000000E+00  0.000000E+00  0.000000E+00
   Multipole                     : -0.540848E-01  0.174264E-01  0.146117E-01
   Pulay + GGA                   :  0.366745E+00 -0.248429E+00 -0.459264E-01
   Van der Waals                 : -0.499771E-02  0.383982E-02  0.558217E-03
   ----------------------------------------------------------------
   Total forces(  13)            : -0.823760E+00 -0.540135E+00 -0.958438E+00

  Timings for VdW correction (Tkatchenko-Scheffler 2009 or later):
  | CPU time:        0.090 s, Wall clock time:        0.091 s.
  Removing unitary transformations (pure translations, rotations) from forces on atoms.
  Atomic forces before filtering:
  | Net force on center of mass :  -0.374467E-02  0.131520E-02 -0.403120E-02 eV/A
  | Net torque on center of mass:  -0.739572E-02  0.417683E-03 -0.842286E-02 eV
  Atomic forces after filtering:
  | Net force on center of mass :   0.356812E-15  0.446015E-15  0.356812E-15 eV/A
  | Net torque on center of mass:   0.253723E-15  0.944085E-15  0.113290E-14 eV

  Energy and forces in a compact form:
  | Total energy uncorrected      :         -0.880227452953400E+04 eV
  | Total energy corrected        :         -0.880227452953400E+04 eV  <-- do not rely on this value for anything but (periodic) metals
  | Electronic free energy        :         -0.880227452953400E+04 eV
  Total atomic forces (unitary forces cleaned) [eV/Ang]:
  |   1         -0.372867319795108E+00          0.567052721316499E+00         -0.597903704720636E+00
  |   2          0.307173076701635E+00          0.619661066454337E-02          0.586345249247743E-01
  |   3          0.235358780938716E+00         -0.244585786827001E+00          0.652888814544903E+00
  |   4          0.174418378184237E+00          0.747571050376813E-01         -0.254480144364974E+00
  |   5         -0.179717441946381E+00          0.149806588435086E+00         -0.198497985219694E+00
  |   6          0.376313496514170E+00         -0.400850256388472E+00          0.268979856692136E+00
  |   7         -0.288239405508245E+00          0.240904256396845E-01          0.293050303564967E-01
  |   8         -0.363901756391645E-01          0.403270211976756E-01          0.228616549187512E+00
  |   9          0.796509324422093E-01          0.110939392964452E+00         -0.112167728216585E+00
  |  10          0.188428962213058E+01          0.149909696669324E+01          0.168143078394734E+01
  |  11          0.106943215324205E+01          0.687199077532988E+00          0.101287937358992E+01
  |  12         -0.242643372667825E+01         -0.197336436222841E+01         -0.181121344081418E+01
  |  13         -0.822988370586451E+00         -0.540665504037961E+00         -0.958471929907012E+00

  ------------------------------------ 
  Start decomposition of the XC Energy 
  ------------------------------------ 
  X and C from original XC functional choice 
  Hartree-Fock Energy :          0.000000000 Ha              0.000000000 eV
  X Energy            :        -41.038990744 Ha          -1116.727756631 eV
  C Energy            :         -1.600749042 Ha            -43.558597674 eV
  Total XC Energy     :        -42.639739786 Ha          -1160.286354306 eV
  ------------------------------------ 
  LDA X and C from self-consistent density 
  X Energy LDA        :        -37.257498917 Ha          -1013.828128533 eV
  C Energy LDA        :         -3.138692093 Ha            -85.408157374 eV
  ------------------------------------ 
  End decomposition of the XC Energy 
  ------------------------------------ 

------------------------------------------------------------

------------------------------------------------------------------------------
  Final output of selected total energy values:

  The following output summarizes some interesting total energy values
  at the end of a run (AFTER all relaxation, molecular dynamics, etc.).

  | Total energy of the DFT / Hartree-Fock s.c.f. calculation      :          -8802.274529534 eV
  | Final zero-broadening corrected energy (caution - metals only) :          -8802.274529534 eV
  | For reference only, the value of 1 Hartree used in FHI-aims is :             27.211384500 eV

  Before relying on these values, please be sure to understand exactly which
  total energy value is referred to by a given number. Different objects may
  all carry the same name 'total energy'. Definitions:

  Total energy of the DFT / Hartree-Fock s.c.f. calculation:
  | Note that this energy does not include ANY quantities calculated after the
  | s.c.f. cycle, in particular not ANY RPA, MP2, etc. many-body perturbation terms.

  Final zero-broadening corrected energy:
  | For metallic systems only, a broadening of the occupation numbers at the Fermi
  | level can be extrapolated back to zero broadening by an electron-gas inspired
  | formula. For all systems that are not real metals, this value can be
  | meaningless and should be avoided.

------------------------------------------------------------------------------
  Methods described in the following list of references were used in this FHI-aims run.
  If you publish the results, please make sure to cite these reference if they apply.
  FHI-aims is an academic code, and for our developers (often, Ph.D. students
  and postdocs), scientific credit in the community is essential.
  Thank you for helping us!

  For any use of FHI-aims, please cite:

    Volker Blum, Ralf Gehrke, Felix Hanke, Paula Havu, Ville Havu,
    Xinguo Ren, Karsten Reuter, and Matthias Scheffler
    'Ab initio molecular simulations with numeric atom-centered orbitals'
    Computer Physics Communications 180, 2175-2196 (2009)
    http://dx.doi.org/10.1016/j.cpc.2009.06.022


  The scalable eigensolver library ELPA was used in your run.
  ELPA is essential especially for large systems on hundreds or thousands of CPUs.
  For ELPA, please cite:

    Andreas Marek, Volker Blum, Rainer Johanni, Ville Havu, Bruno Lang,
    Thomas Auckenthaler, Alexander Heinecke, Hans-Joachim Bungartz, and Hermann Lederer,
    'The ELPA Library - Scalable Parallel Eigenvalue Solutions
    for Electronic Structure Theory and Computational Science'
    The Journal of Physics: Condensed Matter 26, 213201 (2014).
    http://dx.doi.org/10.1088/0953-8984/26/21/213201


  The ELSI infrastructure was used in your run to solve the Kohn-Sham electronic structure.
  Please check out http://elsi-interchange.org to learn more.
  If scalability is important for your project, please acknowledge ELSI by citing:

    V. W-z. Yu, F. Corsetti, A. Garcia, W. P. Huhn, M. Jacquelin, W. Jia,
    B. Lange, L. Lin, J. Lu, W. Mi, A. Seifitokaldani, A. Vazquez-Mayagoitia,
    C. Yang, H. Yang, and V. Blum
    'ELSI: A unified software interface for Kohn-Sham electronic structure solvers'
    Computer Physics Communications 222, 267-285 (2018).
    http://dx.doi.org/10.1016/j.cpc.2017.09.007


  For the real-space grid partitioning and parallelization used in this calculation, please cite:

    Ville Havu, Volker Blum, Paula Havu, and Matthias Scheffler,
    'Efficient O(N) integration for all-electron electronic structure calculation'
    'using numerically tabulated basis functions'
    Journal of Computational Physics 228, 8367-8379 (2009).
    http://dx.doi.org/10.1016/j.jcp.2009.08.008

  Of course, there are many other important community references, e.g., those cited in the
  above references. Our list is limited to references that describe implementations in the
  FHI-aims code. The reason is purely practical (length of this list) - please credit others as well.

------------------------------------------------------------
          Leaving FHI-aims.
          Date     :  20200815, Time     :  004203.480

          Computational steps:
          | Number of self-consistency cycles          :           16
          | Number of SCF (re)initializations          :            1

          Detailed time accounting                     :  max(cpu_time)    wall_clock(cpu1)
          | Total time                                 :       22.852 s          22.955 s
          | Preparation time                           :        0.149 s           0.151 s
          | Boundary condition initalization           :        0.000 s           0.000 s
          | Grid partitioning                          :        0.112 s           0.113 s
          | Preloading free-atom quantities on grid    :        0.002 s           0.002 s
          | Free-atom superposition energy             :        0.085 s           0.086 s
          | Total time for integrations                :        8.738 s           8.752 s
          | Total time for solution of K.-S. equations :        0.036 s           0.040 s
          | Total time for density & force components  :        7.204 s           7.227 s
          | Total time for mixing                      :        0.218 s           0.220 s
          | Total time for Hartree multipole update    :        0.140 s           0.142 s
          | Total time for Hartree multipole sum       :        5.764 s           5.775 s
          | Total time for total energy evaluation     :        0.003 s           0.002 s
          | Total time for vdW correction              :        0.090 s           0.091 s

          Partial memory accounting:
          | Residual value for overall tracked memory usage across tasks :           0.000 MB (should be 0.000 MB)
          | Peak values for overall tracked memory usage (after allocating hessian_basis_wave):
          |   Minimum:        1.622 MB (on task 1)
          |   Maximum:        1.622 MB (on task 1)
          |   Average:        1.622 MB
          | Largest tracked array allocation (hessian_basis_wave):
          |   Minimum:        0.794 MB (on task 1)
          |   Maximum:        0.794 MB (on task 1)
          |   Average:        0.794 MB
          Note:  These values currently only include a subset of arrays which are explicitly tracked.
          The "true" memory usage will be greater.

          Have a nice day.
------------------------------------------------------------
