  MPI-parallelism will be employed.
------------------------------------------------------------
          Invoking FHI-aims ...
          Version 171221_1
          Compiled on 2019/09/09 at 14:39:39 on host puhti-login2.bullx.

          When using FHI-aims, please cite the following reference:

          Volker Blum, Ralf Gehrke, Felix Hanke, Paula Havu,
          Ville Havu, Xinguo Ren, Karsten Reuter, and Matthias Scheffler,
          'Ab Initio Molecular Simulations with Numeric Atom-Centered Orbitals',
          Computer Physics Communications 180, 2175-2196 (2009)

          For any questions about FHI-aims, please visit the aimsclub website
          with its forums and wiki. Contributions to both the forums and the
          wiki are warmly encouraged - they are for you, and everyone is welcome there.

------------------------------------------------------------



  Date     :  20200505, Time     :  083752.081
  Time zero on CPU 1             :   0.281550000000000E-01  s.
  Internal wall clock time zero  :           357899872.081  s.

  FHI-aims created a unique identifier for this run for later identification
  aims_uuid : 606510F9-E828-4C2A-A03D-4B257153BDCC

  Using       20 parallel tasks.
  Task        0 on host r05c54.bullx reporting.
  Task        1 on host r05c54.bullx reporting.
  Task        2 on host r05c54.bullx reporting.
  Task        3 on host r05c54.bullx reporting.
  Task        4 on host r05c54.bullx reporting.
  Task        5 on host r05c54.bullx reporting.
  Task        6 on host r05c54.bullx reporting.
  Task        7 on host r05c54.bullx reporting.
  Task        8 on host r05c54.bullx reporting.
  Task        9 on host r05c54.bullx reporting.
  Task       10 on host r05c54.bullx reporting.
  Task       11 on host r05c54.bullx reporting.
  Task       12 on host r05c54.bullx reporting.
  Task       13 on host r05c54.bullx reporting.
  Task       14 on host r05c54.bullx reporting.
  Task       15 on host r05c54.bullx reporting.
  Task       16 on host r05c54.bullx reporting.
  Task       17 on host r05c54.bullx reporting.
  Task       18 on host r05c54.bullx reporting.
  Task       19 on host r05c54.bullx reporting.

  Performing system and environment tests:
  | Environment variable OMP_NUM_THREADS correctly set to 1.
  | Stacksize not measured: no C compiler
  | Checking for scalapack...
  | Testing pdtran()...
  | All pdtran() tests passed.

  Obtaining array dimensions for all initial allocations:
  
  -----------------------------------------------------------------------
  Parsing control.in (first pass over file, find array dimensions only).
  The contents of control.in will be repeated verbatim below
  unless switched off by setting 'verbatim_writeout .false.' .
  in the first line of control.in .
  -----------------------------------------------------------------------
  
  #########################################################################################
  #
  #  Volker Blum, FHI 2009 : Test run input file control.in for simple H2O
  #
  #########################################################################################
  #
  #  Physical model
  #
    xc                 pbe
    vdw_correction_hirshfeld
    spin               none
    relativistic       none
    charge             0.
  #
  #  SCF convergence
  #
    occupation_type    gaussian 0.01
    mixer              pulay
      n_max_pulay        10
      charge_mix_param   0.2
    sc_accuracy_rho    1E-5
    sc_accuracy_eev    1E-3
    sc_accuracy_etot   1E-6
    sc_accuracy_forces 1E-4
    sc_iter_limit      100
  #
  #  Relaxation
  #
  #  relax_geometry   bfgs 1.e-3
  #
  ################################################################################
  #
  #  FHI-aims code project
  #  VB, Fritz-Haber Institut, 2009
  #
  #  Suggested "light" defaults for H atom (to be pasted into control.in file)
  #  Be sure to double-check any results obtained with these settings for post-processing,
  #  e.g., with the "tight" defaults and larger basis sets.
  #
  ################################################################################
    species        H
  #     global species definitions
      nucleus             1
      mass                1.00794
  #
      l_hartree           4
  #
      cut_pot             3.5  1.5  1.0
      basis_dep_cutoff    1e-4
  #
      radial_base         24 5.0
      radial_multiplier   1
      angular_grids       specified
        division   0.2421   50
        division   0.3822  110
        division   0.4799  194
        division   0.5341  302
  #      division   0.5626  434
  #      division   0.5922  590
  #      division   0.6542  770
  #      division   0.6868 1202
  #      outer_grid  770
        outer_grid  302
  ################################################################################
  #
  #  Definition of "minimal" basis
  #
  ################################################################################
  #     valence basis states
      valence      1  s   1.
  #     ion occupancy
      ion_occ      1  s   0.5
  ################################################################################
  #
  #  Suggested additional basis functions. For production calculations,
  #  uncomment them one after another (the most important basis functions are
  #  listed first).
  #
  #  Basis constructed for dimers: 0.5 A, 0.7 A, 1.0 A, 1.5 A, 2.5 A
  #
  ################################################################################
  #  "First tier" - improvements: -1014.90 meV to -62.69 meV
       hydro 2 s 2.1
       hydro 2 p 3.5
  #  "Second tier" - improvements: -12.89 meV to -1.83 meV
  #     hydro 1 s 0.85
  #     hydro 2 p 3.7
  #     hydro 2 s 1.2
  #     hydro 3 d 7
  #  "Third tier" - improvements: -0.25 meV to -0.12 meV
  #     hydro 4 f 11.2
  #     hydro 3 p 4.8
  #     hydro 4 d 9
  #     hydro 3 s 3.2
  ################################################################################
  #
  #  FHI-aims code project
  #  VB, Fritz-Haber Institut, 2009
  #
  #  Suggested "light" defaults for C atom (to be pasted into control.in file)
  #  Be sure to double-check any results obtained with these settings for post-processing,
  #  e.g., with the "tight" defaults and larger basis sets.
  #
  ################################################################################
    species        C
  #     global species definitions
      nucleus             6
      mass                12.0107
  #
      l_hartree           4
  #
      cut_pot             3.5  1.5  1.0
      basis_dep_cutoff    1e-4
  #
      radial_base         34 5.0
      radial_multiplier   1
      angular_grids specified
        division   0.3326   50
        division   0.5710  110
        division   0.7727  194
        division   0.8772  302
  #      division   0.9334  434
  #      division   0.9625  590
  #      division   0.9924  770
  #      division   1.0230  974
  #      division   1.4589 1202
  #     outer_grid  974
       outer_grid 302
  ################################################################################
  #
  #  Definition of "minimal" basis
  #
  ################################################################################
  #     valence basis states
      valence      2  s   2.
      valence      2  p   2.
  #     ion occupancy
      ion_occ      2  s   1.
      ion_occ      2  p   1.
  ################################################################################
  #
  #  Suggested additional basis functions. For production calculations,
  #  uncomment them one after another (the most important basis functions are
  #  listed first).
  #
  #  Constructed for dimers: 1.0 A, 1.25 A, 1.5 A, 2.0 A, 3.0 A
  #
  ################################################################################
  #  "First tier" - improvements: -1214.57 meV to -155.61 meV
       hydro 2 p 1.7
       hydro 3 d 6
       hydro 2 s 4.9
  #  "Second tier" - improvements: -67.75 meV to -5.23 meV
  #     hydro 4 f 9.8
  #     hydro 3 p 5.2
  #     hydro 3 s 4.3
  #     hydro 5 g 14.4
  #     hydro 3 d 6.2
  #  "Third tier" - improvements: -2.43 meV to -0.60 meV
  #     hydro 2 p 5.6
  #     hydro 2 s 1.4
  #     hydro 3 d 4.9
  #     hydro 4 f 11.2
  #  "Fourth tier" - improvements: -0.39 meV to -0.18 meV
  #     hydro 2 p 2.1
  #     hydro 5 g 16.4
  #     hydro 4 d 13.2
  #     hydro 3 s 13.6
  #     hydro 4 f 17.6
  #  Further basis functions - improvements: -0.08 meV and below
  #     hydro 3 s 2
  #     hydro 3 p 6
  #     hydro 4 d 20
  ################################################################################
  #
  #  FHI-aims code project
  #  VB, Fritz-Haber Institut, 2009
  #
  #  Suggested "light" defaults for N atom (to be pasted into control.in file)
  #  Be sure to double-check any results obtained with these settings for post-processing,
  #  e.g., with the "tight" defaults and larger basis sets.
  #
  ################################################################################
    species        N
  #     global species definitions
      nucleus             7
      mass                14.0067
  #
      l_hartree           4
  #
      cut_pot             3.5  1.5  1.0
      basis_dep_cutoff    1e-4
  #
      radial_base         35 5.0
      radial_multiplier   1
      angular_grids       specified
        division   0.2599   50
        division   0.4601  110
        division   0.5885  194
        division   0.6503  302
  #      division   0.6939  434
  #      division   0.7396  590
  #      division   0.7632  770
  #      division   0.8122  974
  #      division   1.1604 1202
  #      outer_grid  974
        outer_grid  302
  ################################################################################
  #
  #  Definition of "minimal" basis
  #
  ################################################################################
  #     valence basis states
      valence      2  s   2.
      valence      2  p   3.
  #     ion occupancy
      ion_occ      2  s   1.
      ion_occ      2  p   2.
  ################################################################################
  #
  #  Suggested additional basis functions. For production calculations,
  #  uncomment them one after another (the most important basis functions are
  #  listed first).
  #
  #  Constructed for dimers: 1.0 A, 1.1 A, 1.5 A, 2.0 A, 3.0 A
  #
  ################################################################################
  #  "First tier" - improvements: -1193.42 meV to -220.60 meV
       hydro 2 p 1.8
       hydro 3 d 6.8
       hydro 3 s 5.8
  #  "Second tier" - improvements: -80.21 meV to -6.86 meV
  #     hydro 4 f 10.8
  #     hydro 3 p 5.8
  #     hydro 1 s 0.8
  #     hydro 5 g 16
  #     hydro 3 d 4.9
  #  "Third tier" - improvements: -4.29 meV to -0.53 meV
  #     hydro 3 s 16
  #     ionic 2 p auto
  #     hydro 3 d 6.6
  #     hydro 4 f 11.6
  #  "Fourth tier" - improvements: -0.75 meV to -0.25 meV
  #     hydro 2 p 4.5
  #     hydro 2 s 2.4
  #     hydro 5 g 14.4
  #     hydro 4 d 14.4
  #     hydro 4 f 16.8
  # Further basis functions - -0.21 meV and below
  #     hydro 3 p 14.8
  #     hydro 3 s 4.4
  #     hydro 3 d 19.6
  #     hydro 5 g 12.8
  ################################################################################
  #
  #  FHI-aims code project
  #  VB, Fritz-Haber Institut, 2009
  #
  #  Suggested "light" defaults for O atom (to be pasted into control.in file)
  #  Be sure to double-check any results obtained with these settings for post-processing,
  #  e.g., with the "tight" defaults and larger basis sets.
  #
  ################################################################################
    species        O
  #     global species definitions
      nucleus             8
      mass                15.9994
  #
      l_hartree           4
  #
      cut_pot             3.5  1.5  1.0
      basis_dep_cutoff    1e-4
  #
      radial_base         36 5.0
      radial_multiplier   1
       angular_grids specified
        division   0.2659   50
        division   0.4451  110
        division   0.6052  194
        division   0.7543  302
  #      division   0.8014  434
  #      division   0.8507  590
  #      division   0.8762  770
  #      division   0.9023  974
  #      division   1.2339 1202
  #      outer_grid 974
        outer_grid 302
  ################################################################################
  #
  #  Definition of "minimal" basis
  #
  ################################################################################
  #     valence basis states
      valence      2  s   2.
      valence      2  p   4.
  #     ion occupancy
      ion_occ      2  s   1.
      ion_occ      2  p   3.
  ################################################################################
  #
  #  Suggested additional basis functions. For production calculations,
  #  uncomment them one after another (the most important basis functions are
  #  listed first).
  #
  #  Constructed for dimers: 1.0 A, 1.208 A, 1.5 A, 2.0 A, 3.0 A
  #
  ################################################################################
  #  "First tier" - improvements: -699.05 meV to -159.38 meV
       hydro 2 p 1.8
       hydro 3 d 7.6
       hydro 3 s 6.4
  #  "Second tier" - improvements: -49.91 meV to -5.39 meV
  #     hydro 4 f 11.6
  #     hydro 3 p 6.2
  #     hydro 3 d 5.6
  #     hydro 5 g 17.6
  #     hydro 1 s 0.75
  #  "Third tier" - improvements: -2.83 meV to -0.50 meV
  #     ionic 2 p auto
  #     hydro 4 f 10.8
  #     hydro 4 d 4.7
  #     hydro 2 s 6.8
  #  "Fourth tier" - improvements: -0.40 meV to -0.12 meV
  #     hydro 3 p 5
  #     hydro 3 s 3.3
  #     hydro 5 g 15.6
  #     hydro 4 f 17.6
  #     hydro 4 d 14
  # Further basis functions - -0.08 meV and below
  #     hydro 3 s 2.1
  #     hydro 4 d 11.6
  #     hydro 3 p 16
  #     hydro 2 s 17.2
  
  -----------------------------------------------------------------------
  Completed first pass over input file control.in .
  -----------------------------------------------------------------------
  
  
  -----------------------------------------------------------------------
  Parsing geometry.in (first pass over file, find array dimensions only).
  The contents of geometry.in will be repeated verbatim below
  unless switched off by setting 'verbatim_writeout .false.' .
  in the first line of geometry.in .
  -----------------------------------------------------------------------
  
  atom  0.00000 0.00000 0.00000 C
  atom  1.09300 0.00000 0.00000 H
  atom  -0.47961 0.00000 -1.41207 N
  atom  -0.42476 -0.95199 -1.77613 H
  atom  -1.44283 0.32864 -1.43011 H
  atom  -0.49584 1.26211 0.72868 C
  atom  -1.58789 1.28919 0.74431 H
  atom  -0.13407 1.27425 1.75947 H
  atom  -0.13407 2.16087 0.22380 H
  atom  -0.39425 -1.28861 0.74398 C
  atom  -0.10189 -1.56493 1.88303 O
  atom  -1.10210 -2.13717 0.06896 O
  atom  -1.97920 -1.89292 0.40958 H
  
  -----------------------------------------------------------------------
  Completed first pass over input file geometry.in .
  -----------------------------------------------------------------------
  

  Basic array size parameters:
  | Number of species                 :        4
  | Number of atoms                   :       13
  | Max. basis fn. angular momentum   :        2
  | Max. atomic/ionic basis occupied n:        2
  | Max. number of basis fn. types    :        2
  | Max. radial fns per species/type  :        3
  | Max. logarithmic grid size        :     1301
  | Max. radial integration grid size :       36
  | Max. angular integration grid size:      302
  | Max. angular grid division number :        8
  | Radial grid for Hartree potential :     1301
  | Number of spin channels           :        1

------------------------------------------------------------
          Reading file control.in.
------------------------------------------------------------
  XC: Using PBE gradient-corrected functionals.
  Spin treatment: No spin polarisation.
  Non-relativistic treatment of kinetic energy.
  Charge =   0.000000E+00: Neutral system requested explicitly.
  Occupation type: Gaussian broadening, width =   0.100000E-01 eV.
  Using pulay charge density mixing.
  Pulay mixing - number of memorized iterations:   10
  Charge density mixing - mixing parameter:     0.2000
  Convergence accuracy of self-consistent charge density:  0.1000E-04
  Convergence accuracy of sum of eigenvalues:  0.1000E-02
  Convergence accuracy of total energy:  0.1000E-05
  Convergence accuracy of forces:  0.1000E-03
  Maximum number of s.-c. iterations  :   100
 
  Reading configuration options for species H                   .
  | Found nuclear charge :   1.0000
  | Found atomic mass :    1.00794000000000      amu
  | Found l_max for Hartree potential  :   4
  | Found cutoff potl. onset [A], width [A], scale factor :    3.50000    1.50000    1.00000
  | Threshold for basis-dependent cutoff potential is   0.100000E-03
  | Found data for basic radial integration grid :    24 points, outermost radius =    5.000 A
  | Found multiplier for basic radial grid :   1
  | Found angular grid specification: user-specified.
  | Specified grid contains     5 separate shells.
  | Check grid settings after all constraints further below.
  | Found free-atom valence shell :  1 s   1.000
  | No ionic wave fns used. Skipping ion_occ.
  | Found hydrogenic basis function :  2 s   2.100
  | Found hydrogenic basis function :  2 p   3.500
  Species H                   : Missing cutoff potential type.
  Defaulting to exp(1/x)/(1-x)^2 type cutoff potential.
  Species H : No 'logarithmic' tag. Using default grid for free atom:
  | Default logarithmic grid data [bohr] : 0.1000E-03 0.1000E+03 0.1012E+01
  Species H : On-site basis accuracy parameter (for Gram-Schmidt orthonormalisation) not specified.
  Using default value basis_acc =  0.1000000E-03.
  Species H                   : Using default innermost maximum threshold i_radial=  2 for radial functions.
  Species H                   : Default cutoff onset for free atom density etc. : 0.35000000E+01 AA.
  Species H                   : Basic radial grid will be enhanced according to radial_multiplier =   1, to contain    24 grid points.
 
  Reading configuration options for species C                   .
  | Found nuclear charge :   6.0000
  | Found atomic mass :    12.0107000000000      amu
  | Found l_max for Hartree potential  :   4
  | Found cutoff potl. onset [A], width [A], scale factor :    3.50000    1.50000    1.00000
  | Threshold for basis-dependent cutoff potential is   0.100000E-03
  | Found data for basic radial integration grid :    34 points, outermost radius =    5.000 A
  | Found multiplier for basic radial grid :   1
  | Found angular grid specification: user-specified.
  | Specified grid contains     5 separate shells.
  | Check grid settings after all constraints further below.
  | Found free-atom valence shell :  2 s   2.000
  | Found free-atom valence shell :  2 p   2.000
  | No ionic wave fns used. Skipping ion_occ.
  | No ionic wave fns used. Skipping ion_occ.
  | Found hydrogenic basis function :  2 p   1.700
  | Found hydrogenic basis function :  3 d   6.000
  | Found hydrogenic basis function :  2 s   4.900
  Species C                   : Missing cutoff potential type.
  Defaulting to exp(1/x)/(1-x)^2 type cutoff potential.
  Species C : No 'logarithmic' tag. Using default grid for free atom:
  | Default logarithmic grid data [bohr] : 0.1000E-03 0.1000E+03 0.1012E+01
  Species C : On-site basis accuracy parameter (for Gram-Schmidt orthonormalisation) not specified.
  Using default value basis_acc =  0.1000000E-03.
  Species C                   : Using default innermost maximum threshold i_radial=  2 for radial functions.
  Species C                   : Default cutoff onset for free atom density etc. : 0.35000000E+01 AA.
  Species C                   : Basic radial grid will be enhanced according to radial_multiplier =   1, to contain    34 grid points.
 
  Reading configuration options for species N                   .
  | Found nuclear charge :   7.0000
  | Found atomic mass :    14.0067000000000      amu
  | Found l_max for Hartree potential  :   4
  | Found cutoff potl. onset [A], width [A], scale factor :    3.50000    1.50000    1.00000
  | Threshold for basis-dependent cutoff potential is   0.100000E-03
  | Found data for basic radial integration grid :    35 points, outermost radius =    5.000 A
  | Found multiplier for basic radial grid :   1
  | Found angular grid specification: user-specified.
  | Specified grid contains     5 separate shells.
  | Check grid settings after all constraints further below.
  | Found free-atom valence shell :  2 s   2.000
  | Found free-atom valence shell :  2 p   3.000
  | No ionic wave fns used. Skipping ion_occ.
  | No ionic wave fns used. Skipping ion_occ.
  | Found hydrogenic basis function :  2 p   1.800
  | Found hydrogenic basis function :  3 d   6.800
  | Found hydrogenic basis function :  3 s   5.800
  Species N                   : Missing cutoff potential type.
  Defaulting to exp(1/x)/(1-x)^2 type cutoff potential.
  Species N : No 'logarithmic' tag. Using default grid for free atom:
  | Default logarithmic grid data [bohr] : 0.1000E-03 0.1000E+03 0.1012E+01
  Species N : On-site basis accuracy parameter (for Gram-Schmidt orthonormalisation) not specified.
  Using default value basis_acc =  0.1000000E-03.
  Species N                   : Using default innermost maximum threshold i_radial=  2 for radial functions.
  Species N                   : Default cutoff onset for free atom density etc. : 0.35000000E+01 AA.
  Species N                   : Basic radial grid will be enhanced according to radial_multiplier =   1, to contain    35 grid points.
 
  Reading configuration options for species O                   .
  | Found nuclear charge :   8.0000
  | Found atomic mass :    15.9994000000000      amu
  | Found l_max for Hartree potential  :   4
  | Found cutoff potl. onset [A], width [A], scale factor :    3.50000    1.50000    1.00000
  | Threshold for basis-dependent cutoff potential is   0.100000E-03
  | Found data for basic radial integration grid :    36 points, outermost radius =    5.000 A
  | Found multiplier for basic radial grid :   1
  | Found angular grid specification: user-specified.
  | Specified grid contains     5 separate shells.
  | Check grid settings after all constraints further below.
  | Found free-atom valence shell :  2 s   2.000
  | Found free-atom valence shell :  2 p   4.000
  | No ionic wave fns used. Skipping ion_occ.
  | No ionic wave fns used. Skipping ion_occ.
  | Found hydrogenic basis function :  2 p   1.800
  | Found hydrogenic basis function :  3 d   7.600
  | Found hydrogenic basis function :  3 s   6.400
  Species O                   : Missing cutoff potential type.
  Defaulting to exp(1/x)/(1-x)^2 type cutoff potential.
  Species O : No 'logarithmic' tag. Using default grid for free atom:
  | Default logarithmic grid data [bohr] : 0.1000E-03 0.1000E+03 0.1012E+01
  Species O : On-site basis accuracy parameter (for Gram-Schmidt orthonormalisation) not specified.
  Using default value basis_acc =  0.1000000E-03.
  Species O                   : Using default innermost maximum threshold i_radial=  2 for radial functions.
  Species O                   : Default cutoff onset for free atom density etc. : 0.35000000E+01 AA.
  Species O                   : Basic radial grid will be enhanced according to radial_multiplier =   1, to contain    36 grid points.
 
  Finished reading input file 'control.in'. Consistency checks are next.
 
  MPI_IN_PLACE appears to work with this MPI implementation.
  | Keeping use_mpi_in_place .true. (see manual).
  Target number of points in a grid batch is not set. Defaulting to  100
  Method for grid partitioning is not set. Defaulting to parallel hash+maxmin partitioning.
  Batch size limit is not set. Defaulting to    200
  By default, will store active basis functions for each batch.
  If in need of memory, prune_basis_once .false. can be used to disable this option.
  communication_type for Hartree potential was not specified.
  Defaulting to calc_hartree .
  Pulay mixer: Number of initial linear mixing iterations not set.
  Defaulting to    0 iterations.
  Work space size for distributed Hartree potential not set.
  Defaulting to   0.200000E+03 MB.
  Algorithm-dependent basis array size parameters:
  | n_max_pulay                         :       10
  Presetting      1001 iterations before the initial mixing cycle
  is restarted anyway using the sc_init_iter criterion / keyword.
  Presetting a factor      1.000 between actual scf density residual
  and density convergence criterion sc_accuracy_rho below which sc_init_iter
  takes no effect.
  Geometry relaxation not requested: no relaxation will be performed.
  Handling of forces: Unphysical translation and rotation will be removed from forces.
  No accuracy limit for integral partition fn. given. Defaulting to  0.1000E-14.
  No threshold value for u(r) in integrations given. Defaulting to  0.1000E-05.
  No accuracy for occupation numbers given. Defaulting to  0.1000E-12.
  No threshold value for occupation numbers given. Defaulting to  0.0000E+00.
  No accuracy for fermi level given. Defaulting to  0.1000E-19.
  Maximum # of iterations to find E_F not set. Defaulting to  200.
  Preferred method for the eigenvalue solver ('KS_method') not specified in 'control.in'.
  Calling BLACS routine to test compilation state
  Since ScaLAPACK support is enabled, defaulting to 'elsi'.
  Will not use alltoall communication since running on < 1024 CPUs.
  Threshold for basis singularities not set.
  Default threshold for basis singularities:  0.1000E-04
  partition_type (choice of integration weights) for integrals was not specified.
  | Using a version of the partition function of Stratmann and coworkers ('stratmann_smoother').
  | At each grid point, the set of atoms used to build the partition table is smoothly restricted to
  | only those atoms whose free-atom density would be non-zero at that grid point.
  Partitioning for Hartree potential was not defined. Using partition_type for integrals.
  | Adjusted default value of keyword multip_moments_threshold to:       0.10000000E-11
  | This value may affect high angular momentum components of the Hartree potential in periodic systems.
  No q(lm)/r^(l+1) cutoff set for long-range Hartree potential.
  | Using default value of  0.100000E-09 .
  | Verify using the multipole_threshold keyword.
  Defaulting to new monopole extrapolation.
  Density update method: automatic selection selected.
------------------------------------------------------------


------------------------------------------------------------
          Reading geometry description geometry.in.
------------------------------------------------------------
  Input structure read successfully.
  The structure contains       13 atoms,  and a total of         48.000 electrons.

  Input geometry:
  | No unit cell requested.
  | Atomic structure:
  |       Atom                x [A]            y [A]            z [A]
  |    1: Species C             0.00000000        0.00000000        0.00000000
  |    2: Species H             1.09300000        0.00000000        0.00000000
  |    3: Species N            -0.47961000        0.00000000       -1.41207000
  |    4: Species H            -0.42476000       -0.95199000       -1.77613000
  |    5: Species H            -1.44283000        0.32864000       -1.43011000
  |    6: Species C            -0.49584000        1.26211000        0.72868000
  |    7: Species H            -1.58789000        1.28919000        0.74431000
  |    8: Species H            -0.13407000        1.27425000        1.75947000
  |    9: Species H            -0.13407000        2.16087000        0.22380000
  |   10: Species C            -0.39425000       -1.28861000        0.74398000
  |   11: Species O            -0.10189000       -1.56493000        1.88303000
  |   12: Species O            -1.10210000       -2.13717000        0.06896000
  |   13: Species H            -1.97920000       -1.89292000        0.40958000
  |

  | The smallest distance between any two atoms is         0.97210311 AA.
  |
  | The first atom of this pair is atom number                     12 .
  | The second atom of this pair is atom number                    13 .

  Number of empty states per atom not set in control.in - providing a guess from actual geometry.
  | Total number of empty states used during s.c.f. cycle:       29
  If you use a very high smearing, use empty_states (per atom!) in control.in to increase this value.

  Structure-dependent array size parameters: 
  | Maximum number of distinct radial functions  :       21
  | Maximum number of basis functions            :      119
  | Number of Kohn-Sham states (occupied + empty):       53
------------------------------------------------------------

------------------------------------------------------------
          Preparing all fixed parts of the calculation.
------------------------------------------------------------
  Determining machine precision:
    2.225073858507201E-308
  Setting up grids for atomic and cluster calculations.

  Creating wave function, potential, and density for free atoms.

  Species: H

  List of occupied orbitals and eigenvalues:
    n    l              occ      energy [Ha]    energy [eV]
    1    0           1.0000        -0.237589        -6.4651


  Species: C

  List of occupied orbitals and eigenvalues:
    n    l              occ      energy [Ha]    energy [eV]
    1    0           2.0000       -10.038835      -273.1706
    2    0           2.0000        -0.502696       -13.6791
    2    1           2.0000        -0.191971        -5.2238


  Species: N

  List of occupied orbitals and eigenvalues:
    n    l              occ      energy [Ha]    energy [eV]
    1    0           2.0000       -14.128000      -384.4424
    2    0           2.0000        -0.681077       -18.5330
    2    1           3.0000        -0.259788        -7.0692


  Species: O

  List of occupied orbitals and eigenvalues:
    n    l              occ      energy [Ha]    energy [eV]
    1    0           2.0000       -18.898188      -514.2459
    2    0           2.0000        -0.878505       -23.9053
    2    1           4.0000        -0.331779        -9.0282

  Creating fixed part of basis set: Ionic, confined, hydrogenic.
 
  H                    hydrogenic:
 
  List of hydrogenic basis orbitals: 
    n    l      effective z      eigenvalue [eV]  inner max. [A]     outer max. [A]     outer radius [A]   
    2    0         2.100000       -14.9728           0.193243           1.317208           4.583499
    2    1         3.500000       -41.6669           0.602369           0.602369           3.723403
 
 
  C                    hydrogenic:
 
  List of hydrogenic basis orbitals: 
    n    l      effective z      eigenvalue [eV]  inner max. [A]     outer max. [A]     outer radius [A]   
    2    1         1.700000        -9.7616           1.230570           1.230570           4.607917
    3    2         6.000000       -54.4224           0.792453           0.792453           3.883070
    2    0         4.900000       -81.6679           0.082559           0.562749           3.078220
 
 
  N                    hydrogenic:
 
  List of hydrogenic basis orbitals: 
    n    l      effective z      eigenvalue [eV]  inner max. [A]     outer max. [A]     outer radius [A]   
    2    1         1.800000       -10.9749           1.177451           1.177451           4.573712
    3    2         6.800000       -69.9026           0.704619           0.704619           3.538137
    3    0         5.800000       -50.8545           0.067388           1.191934           4.250239
 
 
  O                    hydrogenic:
 
  List of hydrogenic basis orbitals: 
    n    l      effective z      eigenvalue [eV]  inner max. [A]     outer max. [A]     outer radius [A]   
    2    1         1.800000       -10.9749           1.164242           1.164242           4.578029
    3    2         7.600000       -87.3180           0.624125           0.624125           3.251020
    3    0         6.400000       -61.9207           0.061167           1.081902           4.001998
 

  Adding cutoff potential to free-atom effective potential.
  Creating atomic-like basis functions for current effective potential.

  Species H                   :

  List of atomic basis orbitals and eigenvalues:
    n    l      energy [Ha]    energy [eV]    outer radius [A]
    1    0        -0.237589        -6.4651       4.527807


  Species C                   :

  List of atomic basis orbitals and eigenvalues:
    n    l      energy [Ha]    energy [eV]    outer radius [A]
    1    0       -10.038835      -273.1706       1.934409
    2    0        -0.502696       -13.6791       4.496620
    2    1        -0.191971        -5.2238       4.551928


  Species N                   :

  List of atomic basis orbitals and eigenvalues:
    n    l      energy [Ha]    energy [eV]    outer radius [A]
    1    0       -14.128000      -384.4424       1.637919
    2    0        -0.681077       -18.5330       4.463241
    2    1        -0.259788        -7.0692       4.518138


  Species O                   :

  List of atomic basis orbitals and eigenvalues:
    n    l      energy [Ha]    energy [eV]    outer radius [A]
    1    0       -18.898188      -514.2459       1.415765
    2    0        -0.878505       -23.9053       4.413171
    2    1        -0.331779        -9.0282       4.522403

  Assembling full basis from fixed parts.
  | Species H :   atomic orbital   1 s accepted.
  | Species H :    hydro orbital   2 s accepted.
  | Species H :    hydro orbital   2 p accepted.
  | Species C :   atomic orbital   1 s accepted.
  | Species C :    hydro orbital   2 s accepted.
  | Species C :   atomic orbital   2 s accepted.
  | Species C :   atomic orbital   2 p accepted.
  | Species C :    hydro orbital   2 p accepted.
  | Species C :    hydro orbital   3 d accepted.
  | Species N :   atomic orbital   1 s accepted.
  | Species N :    hydro orbital   3 s accepted.
  | Species N :   atomic orbital   2 s accepted.
  | Species N :   atomic orbital   2 p accepted.
  | Species N :    hydro orbital   2 p accepted.
  | Species N :    hydro orbital   3 d accepted.
  | Species O :   atomic orbital   1 s accepted.
  | Species O :    hydro orbital   3 s accepted.
  | Species O :   atomic orbital   2 s accepted.
  | Species O :   atomic orbital   2 p accepted.
  | Species O :    hydro orbital   2 p accepted.
  | Species O :    hydro orbital   3 d accepted.
 
  Basis size parameters after reduction:
  | Total number of radial functions:       21
  | Total number of basis functions :      119
 
  Per-task memory consumption for arrays in subroutine allocate_ext:
  |           5.250512MB.
  Testing on-site integration grid accuracy.
  |  Species  Function  <phi|h_atom|phi> (log., in eV)  <phi|h_atom|phi> (rad., in eV)
           1        1                 -6.4663192853                 -6.4651273558
           1        2                 13.7111246313                 13.7170609718
           1        3                 25.2673269279                 25.2674696378
           2        4               -273.1705927641               -273.1705631568
           2        5                -10.7109323383                -10.7107120029
           2        6                 17.4381822266                 17.4352413244
           2        7                 -5.2255326521                 -5.2270484734
           2        8                  8.6835629259                  8.6603288385
           2        9                 27.4952418996                 27.4953360207
           3       10               -384.4424306495               -384.4423701208
           3       11                 12.5842251816                 12.5842222903
           3       12                -15.7264628251                -15.7264433455
           3       13                 -7.0696854293                 -7.0701769954
           3       14                  8.8090390882                  8.7901077751
           3       15                 35.9586762123                 35.9588528632
           4       16               -514.2458688638               -514.2457643834
           4       17                 15.1795651126                 15.1795290741
           4       18                -21.5359799773                -21.5360846186
           4       19                 -9.0283069236                 -9.0284644067
           4       20                  8.3027758564                  8.2834874195
           4       21                 45.8339351984                 45.8338762259

  Preparing densities etc. for the partition functions (integrals / Hartree potential).

  Preparations completed.
  max(cpu_time)          :      0.165 s.
  Wall clock time (cpu1) :      0.166 s.
------------------------------------------------------------

------------------------------------------------------------
          Begin self-consistency loop: Initialization.

          Date     :  20200505, Time     :  083752.281
------------------------------------------------------------

  Initializing index lists of integration centers etc. from given atomic structure:
  | Number of centers in hartree potential         :        13
  | Number of centers in hartree multipole         :        13
  | Number of centers in electron density summation:        13
  | Number of centers in basis integrals           :        13
  | Number of centers in integrals                 :        13
  | Number of centers in hamiltonian               :        13
  * Using 20 tasks for Scalapack Eigenvalue solver.
  Detailed listing of tasks and assigned k-points:
  (for non-periodic systems, the "k-point" denotes an internal label only)
   Task     0 k-point     1 on r05c54.bullx
   Task     1 k-point     1 on r05c54.bullx
   Task     2 k-point     1 on r05c54.bullx
   Task     3 k-point     1 on r05c54.bullx
   Task     4 k-point     1 on r05c54.bullx
   Task     5 k-point     1 on r05c54.bullx
   Task     6 k-point     1 on r05c54.bullx
   Task     7 k-point     1 on r05c54.bullx
   Task     8 k-point     1 on r05c54.bullx
   Task     9 k-point     1 on r05c54.bullx
   Task    10 k-point     1 on r05c54.bullx
   Task    11 k-point     1 on r05c54.bullx
   Task    12 k-point     1 on r05c54.bullx
   Task    13 k-point     1 on r05c54.bullx
   Task    14 k-point     1 on r05c54.bullx
   Task    15 k-point     1 on r05c54.bullx
   Task    16 k-point     1 on r05c54.bullx
   Task    17 k-point     1 on r05c54.bullx
   Task    18 k-point     1 on r05c54.bullx
   Task    19 k-point     1 on r05c54.bullx
  Tasks:    20 split into      5 X      4 BLACS grid
  Calculating block size based on n_basis =          119  max_nprow =            5  max_npcol =            4
  ScaLAPACK block size set to:           16
  Allocating        0.008 MB for ovlp
  Allocating        0.008 MB for ham
  Allocating        0.008 MB for eigenvec
  Required Scalapack workspace - INTEGER:            1  REAL:             1
  Partitioning the integration grid into batches with parallel hashing+maxmin method.
  | Number of batches:      864
  | Maximal batch size:     198
  | Minimal batch size:      49
  | Average batch size:      80.609
  | Standard deviation of batch sizes:      20.226

  Integration load balanced across    20 MPI tasks.
  Work distribution over tasks is as follows:
  Task     0 has       3535 integration points.
  Task     1 has       3478 integration points.
  Task     2 has       3608 integration points.
  Task     3 has       3465 integration points.
  Task     4 has       3445 integration points.
  Task     5 has       3477 integration points.
  Task     6 has       3457 integration points.
  Task     7 has       3451 integration points.
  Task     8 has       3471 integration points.
  Task     9 has       3608 integration points.
  Task    10 has       3464 integration points.
  Task    11 has       3472 integration points.
  Task    12 has       3507 integration points.
  Task    13 has       3441 integration points.
  Task    14 has       3461 integration points.
  Task    15 has       3446 integration points.
  Task    16 has       3455 integration points.
  Task    17 has       3468 integration points.
  Task    18 has       3451 integration points.
  Task    19 has       3486 integration points.
  Initializing partition tables, free-atom densities, potentials, etc. across the integration grid (initialize_grid_storage).
  | initialize_grid_storage: Actual outermost partition radius vs. multipole_radius_free
  | (-- VB: in principle, multipole_radius_free should be larger, hence this output)
  | Species        1: Confinement radius =              4.999999999999999 AA, multipole_radius_free =              5.054417573612229 AA.
  | Species        1: outer_partition_radius set to              5.054417573612229 AA .
  | Species        2: Confinement radius =              4.999999999999999 AA, multipole_radius_free =              5.019602836301480 AA.
  | Species        2: outer_partition_radius set to              5.019602836301480 AA .
  | Species        3: Confinement radius =              4.999999999999999 AA, multipole_radius_free =              5.043624274424571 AA.
  | Species        3: outer_partition_radius set to              5.043624274424571 AA .
  | Species        4: Confinement radius =              4.999999999999999 AA, multipole_radius_free =              5.048384829883283 AA.
  | Species        4: outer_partition_radius set to              5.048384829883283 AA .
  | Original list of interatomic distances with          13 x         13 entries is created.
  | Net number of integration points:    69646
  | of which are non-zero points    :    59381
  Renormalizing the initial density to the exact electron count on the 3D integration grid.
  | Initial density: Formal number of electrons (from input files) :      48.0000000000
  | Integrated number of electrons on 3D grid     :      48.0001152601
  | Charge integration error                      :       0.0001152601
  | Normalization factor for density and gradient :       0.9999975988
  Obtaining max. number of non-zero basis functions in each batch (get_n_compute_maxes).
  | Maximal number of non-zero basis functions:      118 in task     0
  | Maximal number of non-zero basis functions:      118 in task     1
  | Maximal number of non-zero basis functions:      118 in task     2
  | Maximal number of non-zero basis functions:      117 in task     3
  | Maximal number of non-zero basis functions:      119 in task     4
  | Maximal number of non-zero basis functions:      119 in task     5
  | Maximal number of non-zero basis functions:      118 in task     6
  | Maximal number of non-zero basis functions:      118 in task     7
  | Maximal number of non-zero basis functions:      118 in task     8
  | Maximal number of non-zero basis functions:      118 in task     9
  | Maximal number of non-zero basis functions:      118 in task    10
  | Maximal number of non-zero basis functions:      118 in task    11
  | Maximal number of non-zero basis functions:      119 in task    12
  | Maximal number of non-zero basis functions:      118 in task    13
  | Maximal number of non-zero basis functions:      119 in task    14
  | Maximal number of non-zero basis functions:      118 in task    15
  | Maximal number of non-zero basis functions:      118 in task    16
  | Maximal number of non-zero basis functions:      118 in task    17
  | Maximal number of non-zero basis functions:      119 in task    18
  | Maximal number of non-zero basis functions:      118 in task    19
  Selecting the method for density update.
  Loop over occupied states selected for charge density update.
  Allocating        0.050 MB for KS_eigenvector
  Integrating Hamiltonian matrix: batch-based integration.
  Time summed over all CPUs for integration: real work        0.514 s, elapsed        0.544 s
  Integrating overlap matrix.
  Time summed over all CPUs for integration: real work        0.215 s, elapsed        0.230 s
  Deallocating overlap matrix.

  Updating Kohn-Sham eigenvalues and eigenvectors using ELSI and the ELPA eigensolver.
  ELPA settings:
  | ELPA solver          1
  | Time full => band           :     0.001 s
  | Time band => tridiagonal    :     0.001 s
  | Time solve tridiagonal      :     0.001 s
  Overlap matrix is nonsingular
  | Lowest eigenvalue of overlap  :  0.53E-02
  | Highest eigenvalue of overlap :  0.62E+01
  Finished singularity check of overlap matrix
  | Time :     0.003 s
  Finished Cholesky decomposition
  | Time :     0.001 s
  Finished transformation to standard eigenproblem
  | Time :     0.001 s
  Starting ELPA eigensolver
  | Time full => tridiagonal    :     0.002 s
  | Time solve tridiagonal      :     0.000 s
  | Time ev tridiagonal => full :     0.000 s
  Finished solving standard eigenproblem
  | Time :     0.003 s
  Finished back-transformation of eigenvectors
  | Time :     0.000 s

  Obtaining occupation numbers and chemical potential using ELSI.
  | Chemical potential (Fermi level):    -8.49624056eV
  Writing Kohn-Sham eigenvalues.

  State    Occupation    Eigenvalue [Ha]    Eigenvalue [eV]
      1       2.00000         -19.007989         -517.23370
      2       2.00000         -18.977372         -516.40056
      3       2.00000         -14.245809         -387.64819
      4       2.00000         -10.166759         -276.65158
      5       2.00000         -10.141298         -275.95877
      6       2.00000         -10.132094         -275.70830
      7       2.00000          -1.184319          -32.22695
      8       2.00000          -1.096840          -29.84653
      9       2.00000          -0.991284          -26.97421
     10       2.00000          -0.860277          -23.40933
     11       2.00000          -0.756564          -20.58715
     12       2.00000          -0.679610          -18.49314
     13       2.00000          -0.623116          -16.95584
     14       2.00000          -0.618858          -16.83997
     15       2.00000          -0.581789          -15.83127
     16       2.00000          -0.575760          -15.66722
     17       2.00000          -0.551390          -15.00408
     18       2.00000          -0.528512          -14.38153
     19       2.00000          -0.514075          -13.98870
     20       2.00000          -0.498226          -13.55741
     21       2.00000          -0.457566          -12.45100
     22       2.00000          -0.431824          -11.75053
     23       2.00000          -0.416942          -11.34557
     24       2.00000          -0.376557          -10.24665
     25       0.00000          -0.163440           -4.44744
     26       0.00000          -0.066716           -1.81542
     27       0.00000          -0.030301           -0.82452
     28       0.00000          -0.011363           -0.30921
     29       0.00000          -0.002541           -0.06914
     30       0.00000           0.007814            0.21264
     31       0.00000           0.016211            0.44112
     32       0.00000           0.028758            0.78255
     33       0.00000           0.044807            1.21927
     34       0.00000           0.058394            1.58898
     35       0.00000           0.094821            2.58021
     36       0.00000           0.133908            3.64381
     37       0.00000           0.164668            4.48084
     38       0.00000           0.201859            5.49287
     39       0.00000           0.213372            5.80615
     40       0.00000           0.239087            6.50590
     41       0.00000           0.250711            6.82220
     42       0.00000           0.270975            7.37360
     43       0.00000           0.278734            7.58474
     44       0.00000           0.295853            8.05058
     45       0.00000           0.323274            8.79675
     46       0.00000           0.357753            9.73495
     47       0.00000           0.371549           10.11035
     48       0.00000           0.394385           10.73177
     49       0.00000           0.442662           12.04546
     50       0.00000           0.467704           12.72689
     51       0.00000           0.499880           13.60243
     52       0.00000           0.524964           14.28499
     53       0.00000           0.607232           16.52363

  Highest occupied state (VBM) at    -10.24664618 eV
  | Occupation number:      2.00000000

  Lowest unoccupied state (CBM) at    -4.44743682 eV
  | Occupation number:      0.00000000

  Overall HOMO-LUMO gap:      5.79920936 eV.
  Calculating total energy contributions from superposition of free atom densities.

  Total energy components:
  | Sum of eigenvalues            :        -188.82965658 Ha       -5138.31639009 eV
  | XC energy correction          :         -41.78778007 Ha       -1137.10335086 eV
  | XC potential correction       :          53.71887682 Ha        1461.76501214 eV
  | Free-atom electrostatic energy:        -146.85794109 Ha       -3996.20790177 eV
  | Hartree energy correction     :           0.00000000 Ha           0.00000000 eV
  | vdW energy correction         :           0.00000000 Ha           0.00000000 eV
  | Entropy correction            :           0.00000000 Ha           0.00000000 eV
  | ---------------------------
  | Total energy                  :        -323.75650091 Ha       -8809.86263058 eV
  | Total energy, T -> 0          :        -323.75650091 Ha       -8809.86263058 eV  <-- do not rely on this value for anything but (periodic) metals
  | Electronic free energy        :        -323.75650091 Ha       -8809.86263058 eV

  Derived energy quantities:
  | Kinetic energy                :         320.49774702 Ha        8721.18742566 eV
  | Electrostatic energy          :        -602.46646786 Ha      -16393.94670537 eV
  | Energy correction for multipole
  | error in Hartree potential    :           0.00000000 Ha           0.00000000 eV
  | Sum of eigenvalues per atom                           :        -395.25510693 eV
  | Total energy (T->0) per atom                          :        -677.68174081 eV  <-- do not rely on this value for anything but (periodic) metals
  | Electronic free energy per atom                       :        -677.68174081 eV
  Initialize hartree_potential_storage
  Max. number of atoms included in rho_multipole:           13

  End scf initialization - timings             :  max(cpu_time)    wall_clock(cpu1)
  | Time for scf. initialization               :        0.094 s           0.094 s
  | Boundary condition initialization          :        0.000 s           0.000 s
  | Integration                                :        0.040 s           0.040 s
  | Solution of K.-S. eqns.                    :        0.009 s           0.010 s
  | Grid partitioning                          :        0.022 s           0.022 s
  | Preloading free-atom quantities on grid    :        0.003 s           0.003 s
  | Free-atom superposition energy             :        0.005 s           0.004 s
  | Total energy evaluation                    :        0.000 s           0.001 s

  Partial memory accounting:
  | Current value for overall tracked memory usage on task 0  :           0.133 MB
  | Peak value for overall tracked memory usage on task 0     :           0.865 MB after allocating wave
  | Largest tracked array allocation on task 0 so far         :           0.187 MB  when allocating H_times_psi
  Note:  These values currently only include a subset of arrays which are explicitly tracked.
  The "true" memory usage will be greater.
------------------------------------------------------------

------------------------------------------------------------
          Begin self-consistency iteration #    1

  Date     :  20200505, Time     :  083752.375
------------------------------------------------------------
  Evaluating new KS density.
  Integration grid: deviation in total charge (<rho> - N_e) =   7.105427E-15
  Pulay mixing of updated and previous charge densities.

  Evaluating partitioned Hartree potential by multipole expansion.
  | Analytical far-field extrapolation by fixed multipoles:
  | Hartree multipole sum: apparent total charge =   0.678247E-05
  Summing up the Hartree potential.
  Time summed over all CPUs for potential: real work        0.420 s, elapsed        0.429 s
  | RMS charge density error from multipole expansion :   0.594868E-02

  Integrating Hamiltonian matrix: batch-based integration.
  Time summed over all CPUs for integration: real work        0.505 s, elapsed        0.537 s

  Updating Kohn-Sham eigenvalues and eigenvectors using ELSI and the ELPA eigensolver.
  ELPA settings:
  | ELPA solver          1
  Finished transformation to standard eigenproblem
  | Time :     0.000 s
  Starting ELPA eigensolver
  | Time full => tridiagonal    :     0.002 s
  | Time solve tridiagonal      :     0.000 s
  | Time ev tridiagonal => full :     0.000 s
  Finished solving standard eigenproblem
  | Time :     0.003 s
  Finished back-transformation of eigenvectors
  | Time :     0.000 s

  Obtaining occupation numbers and chemical potential using ELSI.
  | Chemical potential (Fermi level):    -7.32229435eV
  Writing Kohn-Sham eigenvalues.

  State    Occupation    Eigenvalue [Ha]    Eigenvalue [eV]
      1       2.00000         -18.898962         -514.26693
      2       2.00000         -18.840584         -512.67837
      3       2.00000         -14.095629         -383.56159
      4       2.00000         -10.118545         -275.33962
      5       2.00000         -10.062749         -273.82134
      6       2.00000         -10.034116         -273.04220
      7       2.00000          -1.135562          -30.90021
      8       2.00000          -1.035275          -28.17128
      9       2.00000          -0.921628          -25.07877
     10       2.00000          -0.795120          -21.63631
     11       2.00000          -0.706211          -19.21699
     12       2.00000          -0.634396          -17.26278
     13       2.00000          -0.572011          -15.56522
     14       2.00000          -0.559426          -15.22277
     15       2.00000          -0.522483          -14.21748
     16       2.00000          -0.517613          -14.08496
     17       2.00000          -0.490702          -13.35269
     18       2.00000          -0.469567          -12.77756
     19       2.00000          -0.448899          -12.21517
     20       2.00000          -0.442389          -12.03802
     21       2.00000          -0.397244          -10.80957
     22       2.00000          -0.373682          -10.16840
     23       2.00000          -0.347988           -9.46923
     24       2.00000          -0.304315           -8.28084
     25       0.00000          -0.129808           -3.53225
     26       0.00000          -0.047898           -1.30336
     27       0.00000           0.005235            0.14246
     28       0.00000           0.017126            0.46603
     29       0.00000           0.025221            0.68630
     30       0.00000           0.046723            1.27140
     31       0.00000           0.057457            1.56349
     32       0.00000           0.066584            1.81186
     33       0.00000           0.079896            2.17409
     34       0.00000           0.099972            2.72037
     35       0.00000           0.136802            3.72257
     36       0.00000           0.161916            4.40597
     37       0.00000           0.188327            5.12463
     38       0.00000           0.228942            6.22982
     39       0.00000           0.243354            6.62201
     40       0.00000           0.274723            7.47559
     41       0.00000           0.284353            7.73763
     42       0.00000           0.305127            8.30293
     43       0.00000           0.315271            8.57895
     44       0.00000           0.332216            9.04007
     45       0.00000           0.362905            9.87514
     46       0.00000           0.394437           10.73318
     47       0.00000           0.413703           11.25743
     48       0.00000           0.426462           11.60462
     49       0.00000           0.481893           13.11297
     50       0.00000           0.502638           13.67748
     51       0.00000           0.529556           14.40995
     52       0.00000           0.558210           15.18967
     53       0.00000           0.647134           17.60941

  Highest occupied state (VBM) at     -8.28084211 eV
  | Occupation number:      2.00000000

  Lowest unoccupied state (CBM) at    -3.53225350 eV
  | Occupation number:      0.00000000

  Overall HOMO-LUMO gap:      4.74858860 eV.

  Total energy components:
  | Sum of eigenvalues            :        -185.45019571 Ha       -5046.35658096 eV
  | XC energy correction          :         -42.11834486 Ha       -1146.09847648 eV
  | XC potential correction       :          54.14882712 Ha        1473.46455511 eV
  | Free-atom electrostatic energy:        -146.85794109 Ha       -3996.20790177 eV
  | Hartree energy correction     :          -3.29429691 Ha         -89.64237987 eV
  | vdW energy correction         :           0.00000000 Ha           0.00000000 eV
  | Entropy correction            :           0.00000000 Ha           0.00000000 eV
  | ---------------------------
  | Total energy                  :        -323.57195144 Ha       -8804.84078396 eV
  | Total energy, T -> 0          :        -323.57195144 Ha       -8804.84078396 eV  <-- do not rely on this value for anything but (periodic) metals
  | Electronic free energy        :        -323.57195144 Ha       -8804.84078396 eV

  Derived energy quantities:
  | Kinetic energy                :         322.30156403 Ha        8770.27178374 eV
  | Electrostatic energy          :        -603.75517061 Ha      -16429.01409122 eV
  | Energy correction for multipole
  | error in Hartree potential    :           0.01201846 Ha           0.32703902 eV
  | Sum of eigenvalues per atom                           :        -388.18127546 eV
  | Total energy (T->0) per atom                          :        -677.29544492 eV  <-- do not rely on this value for anything but (periodic) metals
  | Electronic free energy per atom                       :        -677.29544492 eV

  Self-consistency convergence accuracy:
  | Change of charge density      :  0.5897E+00
  | Change of sum of eigenvalues  :  0.9196E+02 eV
  | Change of total energy        :  0.5022E+01 eV

  End self-consistency iteration #     1       :  max(cpu_time)    wall_clock(cpu1)
  | Time for this iteration                    :        0.077 s           0.077 s
  | Charge density update                      :        0.022 s           0.022 s
  | Density mixing                             :        0.000 s           0.000 s
  | Hartree multipole update                   :        0.001 s           0.002 s
  | Hartree multipole summation                :        0.022 s           0.022 s
  | Integration                                :        0.027 s           0.027 s
  | Solution of K.-S. eqns.                    :        0.004 s           0.004 s
  | Total energy evaluation                    :        0.000 s           0.000 s

  Partial memory accounting:
  | Current value for overall tracked memory usage on task 0  :           0.133 MB
  | Peak value for overall tracked memory usage on task 0     :           0.880 MB after allocating gradient_basis_wave
  | Largest tracked array allocation on task 0 so far         :           0.561 MB  when allocating gradient_basis_wave
  Note:  These values currently only include a subset of arrays which are explicitly tracked.
  The "true" memory usage will be greater.
------------------------------------------------------------

------------------------------------------------------------
          Begin self-consistency iteration #    2

  Date     :  20200505, Time     :  083752.457
------------------------------------------------------------
  Evaluating new KS density.
  Integration grid: deviation in total charge (<rho> - N_e) =   0.000000E+00
  Pulay mixing of updated and previous charge densities.

  Evaluating partitioned Hartree potential by multipole expansion.
  | Analytical far-field extrapolation by fixed multipoles:
  | Hartree multipole sum: apparent total charge =  -0.130081E-03
  Summing up the Hartree potential.
  Time summed over all CPUs for potential: real work        0.419 s, elapsed        0.429 s
  | RMS charge density error from multipole expansion :   0.140488E-01

  Integrating Hamiltonian matrix: batch-based integration.
  Time summed over all CPUs for integration: real work        0.503 s, elapsed        0.536 s

  Updating Kohn-Sham eigenvalues and eigenvectors using ELSI and the ELPA eigensolver.
  ELPA settings:
  | ELPA solver          1
  Finished transformation to standard eigenproblem
  | Time :     0.000 s
  Starting ELPA eigensolver
  | Time full => tridiagonal    :     0.002 s
  | Time solve tridiagonal      :     0.000 s
  | Time ev tridiagonal => full :     0.000 s
  Finished solving standard eigenproblem
  | Time :     0.003 s
  Finished back-transformation of eigenvectors
  | Time :     0.000 s

  Obtaining occupation numbers and chemical potential using ELSI.
  | Chemical potential (Fermi level):    -5.98461689eV
  Highest occupied state (VBM) at     -6.30981837 eV
  | Occupation number:      2.00000000

  Lowest unoccupied state (CBM) at    -2.34710027 eV
  | Occupation number:      0.00000000

  Overall HOMO-LUMO gap:      3.96271810 eV.

  Checking to see if s.c.f. parameters should be adjusted.

  Total energy components:
  | Sum of eigenvalues            :        -181.89670594 Ha       -4949.66120467 eV
  | XC energy correction          :         -42.47828886 Ha       -1155.89305097 eV
  | XC potential correction       :          54.61546697 Ha        1486.16247135 eV
  | Free-atom electrostatic energy:        -146.85794109 Ha       -3996.20790177 eV
  | Hartree energy correction     :          -6.87466484 Ha        -187.06914819 eV
  | vdW energy correction         :           0.00000000 Ha           0.00000000 eV
  | Entropy correction            :           0.00000000 Ha           0.00000000 eV
  | ---------------------------
  | Total energy                  :        -323.49213375 Ha       -8802.66883426 eV
  | Total energy, T -> 0          :        -323.49213375 Ha       -8802.66883426 eV  <-- do not rely on this value for anything but (periodic) metals
  | Electronic free energy        :        -323.49213375 Ha       -8802.66883426 eV

  Derived energy quantities:
  | Kinetic energy                :         323.62393386 Ha        8806.25529773 eV
  | Electrostatic energy          :        -604.63777876 Ha      -16453.03108102 eV
  | Energy correction for multipole
  | error in Hartree potential    :           0.02635831 Ha           0.71724607 eV
  | Sum of eigenvalues per atom                           :        -380.74316959 eV
  | Total energy (T->0) per atom                          :        -677.12837187 eV  <-- do not rely on this value for anything but (periodic) metals
  | Electronic free energy per atom                       :        -677.12837187 eV

  Self-consistency convergence accuracy:
  | Change of charge density      :  0.3691E+00
  | Change of sum of eigenvalues  :  0.9670E+02 eV
  | Change of total energy        :  0.2172E+01 eV

  End self-consistency iteration #     2       :  max(cpu_time)    wall_clock(cpu1)
  | Time for this iteration                    :        0.077 s           0.076 s
  | Charge density update                      :        0.022 s           0.020 s
  | Density mixing                             :        0.001 s           0.001 s
  | Hartree multipole update                   :        0.001 s           0.001 s
  | Hartree multipole summation                :        0.022 s           0.022 s
  | Integration                                :        0.027 s           0.027 s
  | Solution of K.-S. eqns.                    :        0.003 s           0.004 s
  | Total energy evaluation                    :        0.000 s           0.001 s

  Partial memory accounting:
  | Current value for overall tracked memory usage on task 0  :           0.134 MB
  | Peak value for overall tracked memory usage on task 0     :           0.880 MB after allocating gradient_basis_wave
  | Largest tracked array allocation on task 0 so far         :           0.561 MB  when allocating gradient_basis_wave
  Note:  These values currently only include a subset of arrays which are explicitly tracked.
  The "true" memory usage will be greater.
------------------------------------------------------------

------------------------------------------------------------
          Begin self-consistency iteration #    3

  Date     :  20200505, Time     :  083752.537
------------------------------------------------------------
  Evaluating new KS density.
  Integration grid: deviation in total charge (<rho> - N_e) =   1.421085E-14
  Pulay mixing of updated and previous charge densities.

  Evaluating partitioned Hartree potential by multipole expansion.
  | Analytical far-field extrapolation by fixed multipoles:
  | Hartree multipole sum: apparent total charge =  -0.224215E-03
  Summing up the Hartree potential.
  Time summed over all CPUs for potential: real work        0.419 s, elapsed        0.428 s
  | RMS charge density error from multipole expansion :   0.219474E-01

  Integrating Hamiltonian matrix: batch-based integration.
  Time summed over all CPUs for integration: real work        0.504 s, elapsed        0.536 s

  Updating Kohn-Sham eigenvalues and eigenvectors using ELSI and the ELPA eigensolver.
  ELPA settings:
  | ELPA solver          1
  Finished transformation to standard eigenproblem
  | Time :     0.000 s
  Starting ELPA eigensolver
  | Time full => tridiagonal    :     0.002 s
  | Time solve tridiagonal      :     0.000 s
  | Time ev tridiagonal => full :     0.000 s
  Finished solving standard eigenproblem
  | Time :     0.003 s
  Finished back-transformation of eigenvectors
  | Time :     0.000 s

  Obtaining occupation numbers and chemical potential using ELSI.
  | Chemical potential (Fermi level):    -5.36795199eV
  Highest occupied state (VBM) at     -5.62231001 eV
  | Occupation number:      2.00000000

  Lowest unoccupied state (CBM) at    -1.66058181 eV
  | Occupation number:      0.00000000

  Overall HOMO-LUMO gap:      3.96172821 eV.

  Total energy components:
  | Sum of eigenvalues            :        -180.56713884 Ha       -4913.48184295 eV
  | XC energy correction          :         -42.63134634 Ha       -1160.05795696 eV
  | XC potential correction       :          54.81086742 Ha        1491.47958821 eV
  | Free-atom electrostatic energy:        -146.85794109 Ha       -3996.20790177 eV
  | Hartree energy correction     :          -8.23336309 Ha        -224.04120886 eV
  | vdW energy correction         :           0.00000000 Ha           0.00000000 eV
  | Entropy correction            :          -0.00000000 Ha          -0.00000000 eV
  | ---------------------------
  | Total energy                  :        -323.47892193 Ha       -8802.30932234 eV
  | Total energy, T -> 0          :        -323.47892193 Ha       -8802.30932234 eV  <-- do not rely on this value for anything but (periodic) metals
  | Electronic free energy        :        -323.47892193 Ha       -8802.30932234 eV

  Derived energy quantities:
  | Kinetic energy                :         323.23774797 Ha        8795.74664505 eV
  | Electrostatic energy          :        -604.08532357 Ha      -16437.99801042 eV
  | Energy correction for multipole
  | error in Hartree potential    :           0.03707979 Ha           1.00899246 eV
  | Sum of eigenvalues per atom                           :        -377.96014177 eV
  | Total energy (T->0) per atom                          :        -677.10071710 eV  <-- do not rely on this value for anything but (periodic) metals
  | Electronic free energy per atom                       :        -677.10071710 eV

  Self-consistency convergence accuracy:
  | Change of charge density      :  0.2073E+00
  | Change of sum of eigenvalues  :  0.3618E+02 eV
  | Change of total energy        :  0.3595E+00 eV

  End self-consistency iteration #     3       :  max(cpu_time)    wall_clock(cpu1)
  | Time for this iteration                    :        0.077 s           0.076 s
  | Charge density update                      :        0.022 s           0.021 s
  | Density mixing                             :        0.001 s           0.000 s
  | Hartree multipole update                   :        0.001 s           0.002 s
  | Hartree multipole summation                :        0.022 s           0.022 s
  | Integration                                :        0.027 s           0.027 s
  | Solution of K.-S. eqns.                    :        0.003 s           0.003 s
  | Total energy evaluation                    :        0.000 s           0.001 s

  Partial memory accounting:
  | Current value for overall tracked memory usage on task 0  :           0.134 MB
  | Peak value for overall tracked memory usage on task 0     :           0.881 MB after allocating gradient_basis_wave
  | Largest tracked array allocation on task 0 so far         :           0.561 MB  when allocating gradient_basis_wave
  Note:  These values currently only include a subset of arrays which are explicitly tracked.
  The "true" memory usage will be greater.
------------------------------------------------------------

------------------------------------------------------------
          Begin self-consistency iteration #    4

  Date     :  20200505, Time     :  083752.617
------------------------------------------------------------
  Evaluating new KS density.
  Integration grid: deviation in total charge (<rho> - N_e) =   7.105427E-15
  Pulay mixing of updated and previous charge densities.

  Evaluating partitioned Hartree potential by multipole expansion.
  | Analytical far-field extrapolation by fixed multipoles:
  | Hartree multipole sum: apparent total charge =  -0.256214E-03
  Summing up the Hartree potential.
  Time summed over all CPUs for potential: real work        0.413 s, elapsed        0.425 s
  | RMS charge density error from multipole expansion :   0.254635E-01

  Integrating Hamiltonian matrix: batch-based integration.
  Time summed over all CPUs for integration: real work        0.504 s, elapsed        0.537 s

  Updating Kohn-Sham eigenvalues and eigenvectors using ELSI and the ELPA eigensolver.
  ELPA settings:
  | ELPA solver          1
  Finished transformation to standard eigenproblem
  | Time :     0.000 s
  Starting ELPA eigensolver
  | Time full => tridiagonal    :     0.002 s
  | Time solve tridiagonal      :     0.000 s
  | Time ev tridiagonal => full :     0.000 s
  Finished solving standard eigenproblem
  | Time :     0.002 s
  Finished back-transformation of eigenvectors
  | Time :     0.000 s

  Obtaining occupation numbers and chemical potential using ELSI.
  | Chemical potential (Fermi level):    -5.27738315eV
  Highest occupied state (VBM) at     -5.43219399 eV
  | Occupation number:      2.00000000

  Lowest unoccupied state (CBM) at    -1.56473010 eV
  | Occupation number:      0.00000000

  Overall HOMO-LUMO gap:      3.86746389 eV.

  Total energy components:
  | Sum of eigenvalues            :        -180.42899682 Ha       -4909.72280731 eV
  | XC energy correction          :         -42.66919333 Ha       -1161.08782599 eV
  | XC potential correction       :          54.85845652 Ha        1492.77455357 eV
  | Free-atom electrostatic energy:        -146.85794109 Ha       -3996.20790177 eV
  | Hartree energy correction     :          -8.38016042 Ha        -228.03576727 eV
  | vdW energy correction         :           0.00000000 Ha           0.00000000 eV
  | Entropy correction            :          -0.00000000 Ha          -0.00000000 eV
  | ---------------------------
  | Total energy                  :        -323.47783512 Ha       -8802.27974878 eV
  | Total energy, T -> 0          :        -323.47783512 Ha       -8802.27974878 eV  <-- do not rely on this value for anything but (periodic) metals
  | Electronic free energy        :        -323.47783512 Ha       -8802.27974878 eV

  Derived energy quantities:
  | Kinetic energy                :         322.82732847 Ha        8784.57856219 eV
  | Electrostatic energy          :        -603.63597027 Ha      -16425.77048497 eV
  | Energy correction for multipole
  | error in Hartree potential    :           0.04133102 Ha           1.12467431 eV
  | Sum of eigenvalues per atom                           :        -377.67098518 eV
  | Total energy (T->0) per atom                          :        -677.09844221 eV  <-- do not rely on this value for anything but (periodic) metals
  | Electronic free energy per atom                       :        -677.09844221 eV

  Self-consistency convergence accuracy:
  | Change of charge density      :  0.6896E-01
  | Change of sum of eigenvalues  :  0.3759E+01 eV
  | Change of total energy        :  0.2957E-01 eV

  End self-consistency iteration #     4       :  max(cpu_time)    wall_clock(cpu1)
  | Time for this iteration                    :        0.076 s           0.075 s
  | Charge density update                      :        0.022 s           0.021 s
  | Density mixing                             :        0.001 s           0.000 s
  | Hartree multipole update                   :        0.001 s           0.002 s
  | Hartree multipole summation                :        0.022 s           0.021 s
  | Integration                                :        0.027 s           0.028 s
  | Solution of K.-S. eqns.                    :        0.003 s           0.003 s
  | Total energy evaluation                    :        0.000 s           0.000 s

  Partial memory accounting:
  | Current value for overall tracked memory usage on task 0  :           0.134 MB
  | Peak value for overall tracked memory usage on task 0     :           0.881 MB after allocating gradient_basis_wave
  | Largest tracked array allocation on task 0 so far         :           0.561 MB  when allocating gradient_basis_wave
  Note:  These values currently only include a subset of arrays which are explicitly tracked.
  The "true" memory usage will be greater.
------------------------------------------------------------

------------------------------------------------------------
          Begin self-consistency iteration #    5

  Date     :  20200505, Time     :  083752.697
------------------------------------------------------------
  Evaluating new KS density.
  Integration grid: deviation in total charge (<rho> - N_e) =   7.105427E-15
  Pulay mixing of updated and previous charge densities.

  Evaluating partitioned Hartree potential by multipole expansion.
  | Analytical far-field extrapolation by fixed multipoles:
  | Hartree multipole sum: apparent total charge =  -0.249906E-03
  Summing up the Hartree potential.
  Time summed over all CPUs for potential: real work        0.410 s, elapsed        0.419 s
  | RMS charge density error from multipole expansion :   0.252425E-01

  Integrating Hamiltonian matrix: batch-based integration.
  Time summed over all CPUs for integration: real work        0.504 s, elapsed        0.536 s

  Updating Kohn-Sham eigenvalues and eigenvectors using ELSI and the ELPA eigensolver.
  ELPA settings:
  | ELPA solver          1
  Finished transformation to standard eigenproblem
  | Time :     0.000 s
  Starting ELPA eigensolver
  | Time full => tridiagonal    :     0.002 s
  | Time solve tridiagonal      :     0.000 s
  | Time ev tridiagonal => full :     0.000 s
  Finished solving standard eigenproblem
  | Time :     0.002 s
  Finished back-transformation of eigenvectors
  | Time :     0.000 s

  Obtaining occupation numbers and chemical potential using ELSI.
  | Chemical potential (Fermi level):    -5.34651914eV
  Highest occupied state (VBM) at     -5.53167737 eV
  | Occupation number:      2.00000000

  Lowest unoccupied state (CBM) at    -1.66623274 eV
  | Occupation number:      0.00000000

  Overall HOMO-LUMO gap:      3.86544463 eV.

  Total energy components:
  | Sum of eigenvalues            :        -180.64356183 Ha       -4915.56141853 eV
  | XC energy correction          :         -42.64319200 Ha       -1160.38029372 eV
  | XC potential correction       :          54.82470988 Ha        1491.85626073 eV
  | Free-atom electrostatic energy:        -146.85794109 Ha       -3996.20790177 eV
  | Hartree energy correction     :          -8.15756632 Ha        -221.97867360 eV
  | vdW energy correction         :           0.00000000 Ha           0.00000000 eV
  | Entropy correction            :          -0.00000000 Ha          -0.00000000 eV
  | ---------------------------
  | Total energy                  :        -323.47755135 Ha       -8802.27202689 eV
  | Total energy, T -> 0          :        -323.47755135 Ha       -8802.27202689 eV  <-- do not rely on this value for anything but (periodic) metals
  | Electronic free energy        :        -323.47755135 Ha       -8802.27202689 eV

  Derived energy quantities:
  | Kinetic energy                :         322.69731969 Ha        8781.04084327 eV
  | Electrostatic energy          :        -603.53167905 Ha      -16422.93257644 eV
  | Energy correction for multipole
  | error in Hartree potential    :           0.04070241 Ha           1.10756899 eV
  | Sum of eigenvalues per atom                           :        -378.12010912 eV
  | Total energy (T->0) per atom                          :        -677.09784822 eV  <-- do not rely on this value for anything but (periodic) metals
  | Electronic free energy per atom                       :        -677.09784822 eV

  Self-consistency convergence accuracy:
  | Change of charge density      :  0.2030E-01
  | Change of sum of eigenvalues  : -0.5839E+01 eV
  | Change of total energy        :  0.7722E-02 eV

  End self-consistency iteration #     5       :  max(cpu_time)    wall_clock(cpu1)
  | Time for this iteration                    :        0.079 s           0.075 s
  | Charge density update                      :        0.025 s           0.021 s
  | Density mixing                             :        0.001 s           0.001 s
  | Hartree multipole update                   :        0.001 s           0.001 s
  | Hartree multipole summation                :        0.021 s           0.021 s
  | Integration                                :        0.027 s           0.027 s
  | Solution of K.-S. eqns.                    :        0.003 s           0.004 s
  | Total energy evaluation                    :        0.000 s           0.000 s

  Partial memory accounting:
  | Current value for overall tracked memory usage on task 0  :           0.134 MB
  | Peak value for overall tracked memory usage on task 0     :           0.881 MB after allocating gradient_basis_wave
  | Largest tracked array allocation on task 0 so far         :           0.561 MB  when allocating gradient_basis_wave
  Note:  These values currently only include a subset of arrays which are explicitly tracked.
  The "true" memory usage will be greater.
------------------------------------------------------------

------------------------------------------------------------
          Begin self-consistency iteration #    6

  Date     :  20200505, Time     :  083752.777
------------------------------------------------------------
  Evaluating new KS density.
  Integration grid: deviation in total charge (<rho> - N_e) =   0.000000E+00
  Pulay mixing of updated and previous charge densities.

[...]
  |   Hirshfeld dipole moment :      0.05797628
  |   Hirshfeld second moments:      0.01872561      -0.02986491      -0.01830717
  |                                 -0.02986491      -0.02376219       0.00759080
  |                                 -0.01830717       0.00759080      -0.01787104
  ----------------------------------------------------------------------
  | Atom    12: O
  |   Hirshfeld charge        :     -0.16523974
  |   Free atom volume        :     23.61338643
  |   Hirshfeld volume        :     20.78973865
  |   Hirshfeld dipole vector :      0.00528761       0.03714423       0.01626391
  |   Hirshfeld dipole moment :      0.04089215
  |   Hirshfeld second moments:      0.11349637       0.00323357      -0.01552170
  |                                  0.00323357       0.02988181       0.00929938
  |                                 -0.01552170       0.00929938       0.03372068
  ----------------------------------------------------------------------
  | Atom    13: H
  |   Hirshfeld charge        :      0.18770195
  |   Free atom volume        :      9.95071624
  |   Hirshfeld volume        :      6.02177965
  |   Hirshfeld dipole vector :     -0.12188728       0.02819626       0.03574507
  |   Hirshfeld dipole moment :      0.13011245
  |   Hirshfeld second moments:      0.12573816       0.00467335      -0.00292745
  |                                  0.00467335       0.11761299       0.00381866
  |                                 -0.00292745       0.00381866       0.11282260
  ----------------------------------------------------------------------


  Total energy components:
  | Sum of eigenvalues            :        -180.62009786 Ha       -4914.92293130 eV
  | XC energy correction          :         -42.64222690 Ha       -1160.35403203 eV
  | XC potential correction       :          54.82353327 Ha        1491.82424350 eV
  | Free-atom electrostatic energy:        -146.85794109 Ha       -3996.20790177 eV
  | Hartree energy correction     :          -8.18075516 Ha        -222.60967420 eV
  | vdW energy correction         :          -0.00340330 Ha          -0.09260856 eV
  | Entropy correction            :          -0.00000000 Ha          -0.00000000 eV
  | ---------------------------
  | Total energy                  :        -323.48089104 Ha       -8802.36290437 eV
  | Total energy, T -> 0          :        -323.48089104 Ha       -8802.36290437 eV  <-- do not rely on this value for anything but (periodic) metals
  | Electronic free energy        :        -323.48089104 Ha       -8802.36290437 eV

  Derived energy quantities:
  | Kinetic energy                :         322.59461441 Ha        8778.24609031 eV
  | Electrostatic energy          :        -603.42987525 Ha      -16420.16235409 eV
  | Energy correction for multipole
  | error in Hartree potential    :           0.04119620 Ha           1.12100552 eV
  | Sum of eigenvalues per atom                           :        -378.07099472 eV
  | Total energy (T->0) per atom                          :        -677.10483880 eV  <-- do not rely on this value for anything but (periodic) metals
  | Electronic free energy per atom                       :        -677.10483880 eV

  atomic forces [eV/Ang]:
  -----------------------
  atom #    1
   Hellmann-Feynman              :  0.443278E+00 -0.616062E+00  0.806508E+00
   Ionic forces                  :  0.000000E+00  0.000000E+00  0.000000E+00
   Multipole                     : -0.809701E-01  0.309342E+00 -0.255656E+00
   Pulay + GGA                   : -0.904494E+00  0.291069E+00 -0.133650E+01
   Van der Waals                 :  0.705789E-02  0.562147E-02 -0.256721E-02
   ----------------------------------------------------------------
   Total forces(   1)            : -0.535129E+00 -0.100292E-01 -0.788210E+00
  atom #    2
   Hellmann-Feynman              :  0.349670E+00  0.148410E-01 -0.396808E-02
   Ionic forces                  :  0.000000E+00  0.000000E+00  0.000000E+00
   Multipole                     :  0.174609E+00  0.430298E-01 -0.332498E-01
   Pulay + GGA                   : -0.159056E+00  0.329938E-01 -0.288341E-02
   Van der Waals                 :  0.523840E-02 -0.208512E-02 -0.509979E-02
   ----------------------------------------------------------------
   Total forces(   2)            :  0.370460E+00  0.887794E-01 -0.452011E-01
  atom #    3
   Hellmann-Feynman              :  0.725933E+01  0.726120E+01 -0.496169E+01
   Ionic forces                  :  0.000000E+00  0.000000E+00  0.000000E+00
   Multipole                     : -0.145720E+00  0.134564E+00 -0.104208E+01
   Pulay + GGA                   : -0.622462E+01 -0.691298E+01  0.665003E+01
   Van der Waals                 :  0.356268E-02 -0.535781E-02 -0.819387E-02
   ----------------------------------------------------------------
   Total forces(   3)            :  0.892554E+00  0.477431E+00  0.638065E+00
  atom #    4
   Hellmann-Feynman              : -0.234811E+00 -0.305843E-01 -0.999428E-01
   Ionic forces                  :  0.000000E+00  0.000000E+00  0.000000E+00
   Multipole                     : -0.409201E-01 -0.763343E-01 -0.738232E-01
   Pulay + GGA                   :  0.951949E-02  0.220638E+00  0.668979E-01
   Van der Waals                 : -0.366819E-02  0.292187E-02 -0.257942E-03
   ----------------------------------------------------------------
   Total forces(   4)            : -0.269879E+00  0.116642E+00 -0.107126E+00
  atom #    5
   Hellmann-Feynman              : -0.353057E+00 -0.202466E+00 -0.410065E-01
   Ionic forces                  :  0.000000E+00  0.000000E+00  0.000000E+00
   Multipole                     : -0.957928E-01  0.833409E-02 -0.460169E-01
   Pulay + GGA                   :  0.239708E+00  0.433473E-02 -0.600949E-01
   Van der Waals                 : -0.184740E-02  0.131880E-02 -0.871573E-02
   ----------------------------------------------------------------
   Total forces(   5)            : -0.210989E+00 -0.188478E+00 -0.155834E+00
  atom #    6
   Hellmann-Feynman              :  0.304246E+00 -0.321797E+00  0.215551E+00
   Ionic forces                  :  0.000000E+00  0.000000E+00  0.000000E+00
   Multipole                     : -0.152707E+00  0.608853E+00  0.261848E+00
   Pulay + GGA                   :  0.148653E+00 -0.698924E+00 -0.460632E+00
   Van der Waals                 : -0.316155E-02  0.248895E-02 -0.314289E-02
   ----------------------------------------------------------------
   Total forces(   6)            :  0.297031E+00 -0.409380E+00  0.136241E-01
  atom #    7
   Hellmann-Feynman              : -0.274638E+00 -0.530096E-01 -0.428864E-01
   Ionic forces                  :  0.000000E+00  0.000000E+00  0.000000E+00
   Multipole                     : -0.117762E+00  0.491323E-01  0.376840E-01
   Pulay + GGA                   :  0.105317E+00  0.376824E-01  0.277070E-01
   Van der Waals                 : -0.267696E-02  0.218081E-02  0.810450E-02
   ----------------------------------------------------------------
   Total forces(   7)            : -0.289760E+00  0.359860E-01  0.306091E-01
  atom #    8
   Hellmann-Feynman              :  0.444979E-01 -0.565118E-01  0.128540E+00
   Ionic forces                  :  0.000000E+00  0.000000E+00  0.000000E+00
   Multipole                     :  0.132873E-01  0.670084E-01  0.128853E+00
   Pulay + GGA                   : -0.394852E-01 -0.417204E-01 -0.107357E+00
   Van der Waals                 : -0.324789E-02  0.111162E-01  0.105060E-02
   ----------------------------------------------------------------
   Total forces(   8)            :  0.150521E-01 -0.201077E-01  0.151087E+00
  atom #    9
   Hellmann-Feynman              :  0.768769E-01  0.526222E-01 -0.178085E+00
   Ionic forces                  :  0.000000E+00  0.000000E+00  0.000000E+00
   Multipole                     :  0.224944E-01  0.130240E+00 -0.901563E-02
   Pulay + GGA                   : -0.386437E-01 -0.114594E+00  0.268738E-01
   Van der Waals                 : -0.230223E-02  0.387283E-02  0.460298E-02
   ----------------------------------------------------------------
   Total forces(   9)            :  0.584254E-01  0.721418E-01 -0.155623E+00
  atom #   10
   Hellmann-Feynman              :  0.338517E+01  0.596925E+01  0.233727E+01
   Ionic forces                  :  0.000000E+00  0.000000E+00  0.000000E+00
   Multipole                     :  0.126319E+00 -0.613050E-01  0.241181E+00
   Pulay + GGA                   : -0.111836E+01 -0.377606E+01 -0.546140E+00
   Van der Waals                 :  0.540418E-02 -0.171109E-01  0.758923E-02
   ----------------------------------------------------------------
   Total forces(  10)            :  0.239853E+01  0.211477E+01  0.203990E+01
  atom #   11
   Hellmann-Feynman              :  0.396363E+01 -0.223078E+01  0.137262E+02
   Ionic forces                  :  0.000000E+00  0.000000E+00  0.000000E+00
   Multipole                     :  0.635452E-01 -0.652634E+00  0.812026E+00
   Pulay + GGA                   : -0.324929E+01  0.353171E+01 -0.134149E+02
   Van der Waals                 : -0.166044E-02 -0.116289E-01  0.215670E-02
   ----------------------------------------------------------------
   Total forces(  11)            :  0.776229E+00  0.636665E+00  0.112549E+01
  atom #   12
   Hellmann-Feynman              :  0.177435E+01 -0.105598E+02 -0.119148E+02
   Ionic forces                  :  0.000000E+00  0.000000E+00  0.000000E+00
   Multipole                     : -0.658206E+00 -0.141448E+01 -0.486656E+00
   Pulay + GGA                   : -0.381687E+01  0.994850E+01  0.100087E+02
   Van der Waals                 :  0.592795E-04  0.213470E-02  0.736797E-02
   ----------------------------------------------------------------
   Total forces(  12)            : -0.270066E+01 -0.202367E+01 -0.238542E+01
  atom #   13
   Hellmann-Feynman              : -0.111003E+01 -0.748475E+00 -0.231157E+00
   Ionic forces                  :  0.000000E+00  0.000000E+00  0.000000E+00
   Multipole                     : -0.592745E-01  0.936669E-02  0.371737E-02
   Pulay + GGA                   :  0.363929E+00 -0.156966E+00 -0.131713E+00
   Van der Waals                 : -0.275778E-02  0.452708E-02 -0.289456E-02
   ----------------------------------------------------------------
   Total forces(  13)            : -0.808130E+00 -0.891547E+00 -0.362048E+00

  Timings for VdW correction (Tkatchenko-Scheffler 2009 or later):
  | CPU time:        0.007 s, Wall clock time:        0.006 s.
  Removing unitary transformations (pure translations, rotations) from forces on atoms.
  Atomic forces before filtering:
  | Net force on center of mass :  -0.626421E-02 -0.799225E-03 -0.688903E-03 eV/A
  | Net torque on center of mass:  -0.805108E-02  0.446855E-02 -0.449136E-02 eV
  Atomic forces after filtering:
  | Net force on center of mass :   0.178406E-15  0.535218E-15  0.892031E-16 eV/A
  | Net torque on center of mass:  -0.174656E-14  0.944085E-16  0.132172E-14 eV

  Energy and forces in a compact form:
  | Total energy uncorrected      :         -0.880236290437093E+04 eV
  | Total energy corrected        :         -0.880236290437093E+04 eV  <-- do not rely on this value for anything but (periodic) metals
  | Electronic free energy        :         -0.880236290437093E+04 eV
  Total atomic forces (unitary forces cleaned) [eV/Ang]:
  |   1         -0.534640377790463E+00         -0.985394577094576E-02         -0.788044737746245E+00
  |   2          0.370948625124418E+00          0.891190821143144E-01         -0.448601849824134E-01
  |   3          0.893269088116286E+00          0.477824331133640E+00          0.638153445125850E+00
  |   4         -0.268963088964212E+00          0.117118337970955E+00         -0.107224322125478E+00
  |   5         -0.210321237362010E+00         -0.188225838559187E+00         -0.155832178389274E+00
  |   6          0.297212240706835E+00         -0.409429125300585E+00          0.139697080727995E-01
  |   7         -0.289584849318994E+00          0.357694894898744E-01          0.307852157219476E-01
  |   8          0.150666504068477E-01         -0.203142464539229E-01          0.151492789817035E+00
  |   9          0.585528984442463E-01          0.722508967867675E-01         -0.155035099913474E+00
  |  10          0.239909578635563E+01          0.211473263659298E+01          0.203973697504049E+01
  |  11          0.776651065508043E+00          0.636437993974422E+00          0.112531951792057E+01
  |  12         -0.269986360497592E+01         -0.202367644714366E+01         -0.238587233675526E+01
  |  13         -0.807423196250707E+00         -0.891753164834653E+00         -0.362588791786546E+00

  ------------------------------------ 
  Start decomposition of the XC Energy 
  ------------------------------------ 
  X and C from original XC functional choice 
  Hartree-Fock Energy :          0.000000000 Ha              0.000000000 eV
  X Energy            :        -41.041205640 Ha          -1116.788027009 eV
  C Energy            :         -1.601021257 Ha            -43.566005022 eV
  Total XC Energy     :        -42.642226897 Ha          -1160.354032031 eV
  ------------------------------------ 
  LDA X and C from self-consistent density 
  X Energy LDA        :        -37.260390440 Ha          -1013.906810874 eV
  C Energy LDA        :         -3.138845586 Ha            -85.412334128 eV
  ------------------------------------ 
  End decomposition of the XC Energy 
  ------------------------------------ 

------------------------------------------------------------

------------------------------------------------------------------------------
  Final output of selected total energy values:

  The following output summarizes some interesting total energy values
  at the end of a run (AFTER all relaxation, molecular dynamics, etc.).

  | Total energy of the DFT / Hartree-Fock s.c.f. calculation      :          -8802.362904371 eV
  | Final zero-broadening corrected energy (caution - metals only) :          -8802.362904371 eV
  | For reference only, the value of 1 Hartree used in FHI-aims is :             27.211384500 eV

  Before relying on these values, please be sure to understand exactly which
  total energy value is referred to by a given number. Different objects may
  all carry the same name 'total energy'. Definitions:

  Total energy of the DFT / Hartree-Fock s.c.f. calculation:
  | Note that this energy does not include ANY quantities calculated after the
  | s.c.f. cycle, in particular not ANY RPA, MP2, etc. many-body perturbation terms.

  Final zero-broadening corrected energy:
  | For metallic systems only, a broadening of the occupation numbers at the Fermi
  | level can be extrapolated back to zero broadening by an electron-gas inspired
  | formula. For all systems that are not real metals, this value can be
  | meaningless and should be avoided.

------------------------------------------------------------------------------
  Methods described in the following list of references were used in this FHI-aims run.
  If you publish the results, please make sure to cite these reference if they apply.
  FHI-aims is an academic code, and for our developers (often, Ph.D. students
  and postdocs), scientific credit in the community is essential.
  Thank you for helping us!

  For any use of FHI-aims, please cite:

    Volker Blum, Ralf Gehrke, Felix Hanke, Paula Havu, Ville Havu,
    Xinguo Ren, Karsten Reuter, and Matthias Scheffler
    'Ab initio molecular simulations with numeric atom-centered orbitals'
    Computer Physics Communications 180, 2175-2196 (2009)
    http://dx.doi.org/10.1016/j.cpc.2009.06.022


  The scalable eigensolver library ELPA was used in your run.
  ELPA is essential especially for large systems on hundreds or thousands of CPUs.
  For ELPA, please cite:

    Andreas Marek, Volker Blum, Rainer Johanni, Ville Havu, Bruno Lang,
    Thomas Auckenthaler, Alexander Heinecke, Hans-Joachim Bungartz, and Hermann Lederer,
    'The ELPA Library - Scalable Parallel Eigenvalue Solutions
    for Electronic Structure Theory and Computational Science'
    The Journal of Physics: Condensed Matter 26, 213201 (2014).
    http://dx.doi.org/10.1088/0953-8984/26/21/213201


  The ELSI infrastructure was used in your run to solve the Kohn-Sham electronic structure.
  Please check out http://elsi-interchange.org to learn more.
  If scalability is important for your project, please acknowledge ELSI by citing:

    V. W-z. Yu, F. Corsetti, A. Garcia, W. P. Huhn, M. Jacquelin, W. Jia,
    B. Lange, L. Lin, J. Lu, W. Mi, A. Seifitokaldani, A. Vazquez-Mayagoitia,
    C. Yang, H. Yang, and V. Blum
    'ELSI: A unified software interface for Kohn-Sham electronic structure solvers'
    Computer Physics Communications 222, 267-285 (2018).
    http://dx.doi.org/10.1016/j.cpc.2017.09.007


  For the real-space grid partitioning and parallelization used in this calculation, please cite:

    Ville Havu, Volker Blum, Paula Havu, and Matthias Scheffler,
    'Efficient O(N) integration for all-electron electronic structure calculation'
    'using numerically tabulated basis functions'
    Journal of Computational Physics 228, 8367-8379 (2009).
    http://dx.doi.org/10.1016/j.jcp.2009.08.008

  Of course, there are many other important community references, e.g., those cited in the
  above references. Our list is limited to references that describe implementations in the
  FHI-aims code. The reason is purely practical (length of this list) - please credit others as well.

------------------------------------------------------------
          Leaving FHI-aims.
          Date     :  20200505, Time     :  083753.810

          Computational steps:
          | Number of self-consistency cycles          :           16
          | Number of SCF (re)initializations          :            1

          Detailed time accounting                     :  max(cpu_time)    wall_clock(cpu1)
          | Total time                                 :        1.672 s           1.729 s
          | Preparation time                           :        0.165 s           0.166 s
          | Boundary condition initalization           :        0.000 s           0.000 s
          | Grid partitioning                          :        0.022 s           0.022 s
          | Preloading free-atom quantities on grid    :        0.003 s           0.003 s
          | Free-atom superposition energy             :        0.005 s           0.004 s
          | Total time for integrations                :        0.476 s           0.474 s
          | Total time for solution of K.-S. equations :        0.065 s           0.068 s
          | Total time for density & force components  :        0.406 s           0.380 s
          | Total time for mixing                      :        0.019 s           0.017 s
          | Total time for Hartree multipole update    :        0.020 s           0.022 s
          | Total time for Hartree multipole sum       :        0.426 s           0.425 s
          | Total time for total energy evaluation     :        0.003 s           0.006 s
          | Total time for vdW correction              :        0.007 s           0.006 s

          Partial memory accounting:
          | Residual value for overall tracked memory usage across tasks :           0.000 MB (should be 0.000 MB)
          | Peak values for overall tracked memory usage (after allocating hessian_basis_wave):
          |   Minimum:        2.169 MB (on task  4)
          |   Maximum:        2.207 MB (on task  5)
          |   Average:        2.187 MB
          | Largest tracked array allocation (hessian_basis_wave):
          |   Minimum:        1.112 MB (on task  4)
          |   Maximum:        1.131 MB (on task  5)
          |   Average:        1.123 MB
          Note:  These values currently only include a subset of arrays which are explicitly tracked.
          The "true" memory usage will be greater.

          Have a nice day.
------------------------------------------------------------
