  MPI-parallelism will be employed.
------------------------------------------------------------
          Invoking FHI-aims ...
          Version 171221_1
          Compiled on 2019/09/09 at 14:39:39 on host puhti-login2.bullx.

          When using FHI-aims, please cite the following reference:

          Volker Blum, Ralf Gehrke, Felix Hanke, Paula Havu,
          Ville Havu, Xinguo Ren, Karsten Reuter, and Matthias Scheffler,
          'Ab Initio Molecular Simulations with Numeric Atom-Centered Orbitals',
          Computer Physics Communications 180, 2175-2196 (2009)

          For any questions about FHI-aims, please visit the aimsclub website
          with its forums and wiki. Contributions to both the forums and the
          wiki are warmly encouraged - they are for you, and everyone is welcome there.

------------------------------------------------------------



  Date     :  20200505, Time     :  093442.519
  Time zero on CPU 1             :   0.320430000000000E-01  s.
  Internal wall clock time zero  :           357903282.519  s.

  FHI-aims created a unique identifier for this run for later identification
  aims_uuid : 79909658-12EF-4E71-AB80-E01C28353EF6

  Using       20 parallel tasks.
  Task        0 on host r07c27.bullx reporting.
  Task        1 on host r07c27.bullx reporting.
  Task        2 on host r07c27.bullx reporting.
  Task        3 on host r07c27.bullx reporting.
  Task        4 on host r07c27.bullx reporting.
  Task        5 on host r07c27.bullx reporting.
  Task        6 on host r07c27.bullx reporting.
  Task        7 on host r07c27.bullx reporting.
  Task        8 on host r07c27.bullx reporting.
  Task        9 on host r07c27.bullx reporting.
  Task       10 on host r07c27.bullx reporting.
  Task       11 on host r07c27.bullx reporting.
  Task       12 on host r07c27.bullx reporting.
  Task       13 on host r07c27.bullx reporting.
  Task       14 on host r07c27.bullx reporting.
  Task       15 on host r07c27.bullx reporting.
  Task       16 on host r07c27.bullx reporting.
  Task       17 on host r07c27.bullx reporting.
  Task       18 on host r07c27.bullx reporting.
  Task       19 on host r07c27.bullx reporting.

  Performing system and environment tests:
  | Environment variable OMP_NUM_THREADS correctly set to 1.
  | Stacksize not measured: no C compiler
  | Checking for scalapack...
  | Testing pdtran()...
  | All pdtran() tests passed.

  Obtaining array dimensions for all initial allocations:
  
  -----------------------------------------------------------------------
  Parsing control.in (first pass over file, find array dimensions only).
  The contents of control.in will be repeated verbatim below
  unless switched off by setting 'verbatim_writeout .false.' .
  in the first line of control.in .
  -----------------------------------------------------------------------
  
  #########################################################################################
  #
  #  Volker Blum, FHI 2009 : Test run input file control.in for simple H2O
  #
  #########################################################################################
  #
  #  Physical model
  #
    xc                 pbe
    vdw_correction_hirshfeld
    spin               none
    relativistic       none
    charge             0.
  #
  #  SCF convergence
  #
    occupation_type    gaussian 0.01
    mixer              pulay
      n_max_pulay        10
      charge_mix_param   0.2
    sc_accuracy_rho    1E-5
    sc_accuracy_eev    1E-3
    sc_accuracy_etot   1E-6
    sc_accuracy_forces 1E-4
    sc_iter_limit      100
  #
  #  Relaxation
  #
  #  relax_geometry   bfgs 1.e-3
  #
  ################################################################################
  #
  #  FHI-aims code project
  #  VB, Fritz-Haber Institut, 2009
  #
  #  Suggested "light" defaults for H atom (to be pasted into control.in file)
  #  Be sure to double-check any results obtained with these settings for post-processing,
  #  e.g., with the "tight" defaults and larger basis sets.
  #
  ################################################################################
    species        H
  #     global species definitions
      nucleus             1
      mass                1.00794
  #
      l_hartree           4
  #
      cut_pot             3.5  1.5  1.0
      basis_dep_cutoff    1e-4
  #
      radial_base         24 5.0
      radial_multiplier   1
      angular_grids       specified
        division   0.2421   50
        division   0.3822  110
        division   0.4799  194
        division   0.5341  302
  #      division   0.5626  434
  #      division   0.5922  590
  #      division   0.6542  770
  #      division   0.6868 1202
  #      outer_grid  770
        outer_grid  302
  ################################################################################
  #
  #  Definition of "minimal" basis
  #
  ################################################################################
  #     valence basis states
      valence      1  s   1.
  #     ion occupancy
      ion_occ      1  s   0.5
  ################################################################################
  #
  #  Suggested additional basis functions. For production calculations,
  #  uncomment them one after another (the most important basis functions are
  #  listed first).
  #
  #  Basis constructed for dimers: 0.5 A, 0.7 A, 1.0 A, 1.5 A, 2.5 A
  #
  ################################################################################
  #  "First tier" - improvements: -1014.90 meV to -62.69 meV
       hydro 2 s 2.1
       hydro 2 p 3.5
  #  "Second tier" - improvements: -12.89 meV to -1.83 meV
  #     hydro 1 s 0.85
  #     hydro 2 p 3.7
  #     hydro 2 s 1.2
  #     hydro 3 d 7
  #  "Third tier" - improvements: -0.25 meV to -0.12 meV
  #     hydro 4 f 11.2
  #     hydro 3 p 4.8
  #     hydro 4 d 9
  #     hydro 3 s 3.2
  ################################################################################
  #
  #  FHI-aims code project
  #  VB, Fritz-Haber Institut, 2009
  #
  #  Suggested "light" defaults for C atom (to be pasted into control.in file)
  #  Be sure to double-check any results obtained with these settings for post-processing,
  #  e.g., with the "tight" defaults and larger basis sets.
  #
  ################################################################################
    species        C
  #     global species definitions
      nucleus             6
      mass                12.0107
  #
      l_hartree           4
  #
      cut_pot             3.5  1.5  1.0
      basis_dep_cutoff    1e-4
  #
      radial_base         34 5.0
      radial_multiplier   1
      angular_grids specified
        division   0.3326   50
        division   0.5710  110
        division   0.7727  194
        division   0.8772  302
  #      division   0.9334  434
  #      division   0.9625  590
  #      division   0.9924  770
  #      division   1.0230  974
  #      division   1.4589 1202
  #     outer_grid  974
       outer_grid 302
  ################################################################################
  #
  #  Definition of "minimal" basis
  #
  ################################################################################
  #     valence basis states
      valence      2  s   2.
      valence      2  p   2.
  #     ion occupancy
      ion_occ      2  s   1.
      ion_occ      2  p   1.
  ################################################################################
  #
  #  Suggested additional basis functions. For production calculations,
  #  uncomment them one after another (the most important basis functions are
  #  listed first).
  #
  #  Constructed for dimers: 1.0 A, 1.25 A, 1.5 A, 2.0 A, 3.0 A
  #
  ################################################################################
  #  "First tier" - improvements: -1214.57 meV to -155.61 meV
       hydro 2 p 1.7
       hydro 3 d 6
       hydro 2 s 4.9
  #  "Second tier" - improvements: -67.75 meV to -5.23 meV
  #     hydro 4 f 9.8
  #     hydro 3 p 5.2
  #     hydro 3 s 4.3
  #     hydro 5 g 14.4
  #     hydro 3 d 6.2
  #  "Third tier" - improvements: -2.43 meV to -0.60 meV
  #     hydro 2 p 5.6
  #     hydro 2 s 1.4
  #     hydro 3 d 4.9
  #     hydro 4 f 11.2
  #  "Fourth tier" - improvements: -0.39 meV to -0.18 meV
  #     hydro 2 p 2.1
  #     hydro 5 g 16.4
  #     hydro 4 d 13.2
  #     hydro 3 s 13.6
  #     hydro 4 f 17.6
  #  Further basis functions - improvements: -0.08 meV and below
  #     hydro 3 s 2
  #     hydro 3 p 6
  #     hydro 4 d 20
  ################################################################################
  #
  #  FHI-aims code project
  #  VB, Fritz-Haber Institut, 2009
  #
  #  Suggested "light" defaults for N atom (to be pasted into control.in file)
  #  Be sure to double-check any results obtained with these settings for post-processing,
  #  e.g., with the "tight" defaults and larger basis sets.
  #
  ################################################################################
    species        N
  #     global species definitions
      nucleus             7
      mass                14.0067
  #
      l_hartree           4
  #
      cut_pot             3.5  1.5  1.0
      basis_dep_cutoff    1e-4
  #
      radial_base         35 5.0
      radial_multiplier   1
      angular_grids       specified
        division   0.2599   50
        division   0.4601  110
        division   0.5885  194
        division   0.6503  302
  #      division   0.6939  434
  #      division   0.7396  590
  #      division   0.7632  770
  #      division   0.8122  974
  #      division   1.1604 1202
  #      outer_grid  974
        outer_grid  302
  ################################################################################
  #
  #  Definition of "minimal" basis
  #
  ################################################################################
  #     valence basis states
      valence      2  s   2.
      valence      2  p   3.
  #     ion occupancy
      ion_occ      2  s   1.
      ion_occ      2  p   2.
  ################################################################################
  #
  #  Suggested additional basis functions. For production calculations,
  #  uncomment them one after another (the most important basis functions are
  #  listed first).
  #
  #  Constructed for dimers: 1.0 A, 1.1 A, 1.5 A, 2.0 A, 3.0 A
  #
  ################################################################################
  #  "First tier" - improvements: -1193.42 meV to -220.60 meV
       hydro 2 p 1.8
       hydro 3 d 6.8
       hydro 3 s 5.8
  #  "Second tier" - improvements: -80.21 meV to -6.86 meV
  #     hydro 4 f 10.8
  #     hydro 3 p 5.8
  #     hydro 1 s 0.8
  #     hydro 5 g 16
  #     hydro 3 d 4.9
  #  "Third tier" - improvements: -4.29 meV to -0.53 meV
  #     hydro 3 s 16
  #     ionic 2 p auto
  #     hydro 3 d 6.6
  #     hydro 4 f 11.6
  #  "Fourth tier" - improvements: -0.75 meV to -0.25 meV
  #     hydro 2 p 4.5
  #     hydro 2 s 2.4
  #     hydro 5 g 14.4
  #     hydro 4 d 14.4
  #     hydro 4 f 16.8
  # Further basis functions - -0.21 meV and below
  #     hydro 3 p 14.8
  #     hydro 3 s 4.4
  #     hydro 3 d 19.6
  #     hydro 5 g 12.8
  ################################################################################
  #
  #  FHI-aims code project
  #  VB, Fritz-Haber Institut, 2009
  #
  #  Suggested "light" defaults for O atom (to be pasted into control.in file)
  #  Be sure to double-check any results obtained with these settings for post-processing,
  #  e.g., with the "tight" defaults and larger basis sets.
  #
  ################################################################################
    species        O
  #     global species definitions
      nucleus             8
      mass                15.9994
  #
      l_hartree           4
  #
      cut_pot             3.5  1.5  1.0
      basis_dep_cutoff    1e-4
  #
      radial_base         36 5.0
      radial_multiplier   1
       angular_grids specified
        division   0.2659   50
        division   0.4451  110
        division   0.6052  194
        division   0.7543  302
  #      division   0.8014  434
  #      division   0.8507  590
  #      division   0.8762  770
  #      division   0.9023  974
  #      division   1.2339 1202
  #      outer_grid 974
        outer_grid 302
  ################################################################################
  #
  #  Definition of "minimal" basis
  #
  ################################################################################
  #     valence basis states
      valence      2  s   2.
      valence      2  p   4.
  #     ion occupancy
      ion_occ      2  s   1.
      ion_occ      2  p   3.
  ################################################################################
  #
  #  Suggested additional basis functions. For production calculations,
  #  uncomment them one after another (the most important basis functions are
  #  listed first).
  #
  #  Constructed for dimers: 1.0 A, 1.208 A, 1.5 A, 2.0 A, 3.0 A
  #
  ################################################################################
  #  "First tier" - improvements: -699.05 meV to -159.38 meV
       hydro 2 p 1.8
       hydro 3 d 7.6
       hydro 3 s 6.4
  #  "Second tier" - improvements: -49.91 meV to -5.39 meV
  #     hydro 4 f 11.6
  #     hydro 3 p 6.2
  #     hydro 3 d 5.6
  #     hydro 5 g 17.6
  #     hydro 1 s 0.75
  #  "Third tier" - improvements: -2.83 meV to -0.50 meV
  #     ionic 2 p auto
  #     hydro 4 f 10.8
  #     hydro 4 d 4.7
  #     hydro 2 s 6.8
  #  "Fourth tier" - improvements: -0.40 meV to -0.12 meV
  #     hydro 3 p 5
  #     hydro 3 s 3.3
  #     hydro 5 g 15.6
  #     hydro 4 f 17.6
  #     hydro 4 d 14
  # Further basis functions - -0.08 meV and below
  #     hydro 3 s 2.1
  #     hydro 4 d 11.6
  #     hydro 3 p 16
  #     hydro 2 s 17.2
  
  -----------------------------------------------------------------------
  Completed first pass over input file control.in .
  -----------------------------------------------------------------------
  
  
  -----------------------------------------------------------------------
  Parsing geometry.in (first pass over file, find array dimensions only).
  The contents of geometry.in will be repeated verbatim below
  unless switched off by setting 'verbatim_writeout .false.' .
  in the first line of geometry.in .
  -----------------------------------------------------------------------
  
  atom  0.00000 0.00000 0.00000 C
  atom  1.09300 0.00000 0.00000 H
  atom  -0.47961 0.00000 -1.41207 N
  atom  -0.39198 -0.94519 -1.78727 H
  atom  -1.45361 0.29535 -1.42645 H
  atom  -0.49584 1.26211 0.72868 C
  atom  -1.58789 1.28919 0.74431 H
  atom  -0.13407 1.27425 1.75947 H
  atom  -0.13407 2.16087 0.22380 H
  atom  -0.39425 -1.28861 0.74398 C
  atom  -0.10189 -1.56493 1.88303 O
  atom  -1.10210 -2.13717 0.06896 O
  atom  -1.98490 -1.81400 0.31635 H
  
  -----------------------------------------------------------------------
  Completed first pass over input file geometry.in .
  -----------------------------------------------------------------------
  

  Basic array size parameters:
  | Number of species                 :        4
  | Number of atoms                   :       13
  | Max. basis fn. angular momentum   :        2
  | Max. atomic/ionic basis occupied n:        2
  | Max. number of basis fn. types    :        2
  | Max. radial fns per species/type  :        3
  | Max. logarithmic grid size        :     1301
  | Max. radial integration grid size :       36
  | Max. angular integration grid size:      302
  | Max. angular grid division number :        8
  | Radial grid for Hartree potential :     1301
  | Number of spin channels           :        1

------------------------------------------------------------
          Reading file control.in.
------------------------------------------------------------
  XC: Using PBE gradient-corrected functionals.
  Spin treatment: No spin polarisation.
  Non-relativistic treatment of kinetic energy.
  Charge =   0.000000E+00: Neutral system requested explicitly.
  Occupation type: Gaussian broadening, width =   0.100000E-01 eV.
  Using pulay charge density mixing.
  Pulay mixing - number of memorized iterations:   10
  Charge density mixing - mixing parameter:     0.2000
  Convergence accuracy of self-consistent charge density:  0.1000E-04
  Convergence accuracy of sum of eigenvalues:  0.1000E-02
  Convergence accuracy of total energy:  0.1000E-05
  Convergence accuracy of forces:  0.1000E-03
  Maximum number of s.-c. iterations  :   100
 
  Reading configuration options for species H                   .
  | Found nuclear charge :   1.0000
  | Found atomic mass :    1.00794000000000      amu
  | Found l_max for Hartree potential  :   4
  | Found cutoff potl. onset [A], width [A], scale factor :    3.50000    1.50000    1.00000
  | Threshold for basis-dependent cutoff potential is   0.100000E-03
  | Found data for basic radial integration grid :    24 points, outermost radius =    5.000 A
  | Found multiplier for basic radial grid :   1
  | Found angular grid specification: user-specified.
  | Specified grid contains     5 separate shells.
  | Check grid settings after all constraints further below.
  | Found free-atom valence shell :  1 s   1.000
  | No ionic wave fns used. Skipping ion_occ.
  | Found hydrogenic basis function :  2 s   2.100
  | Found hydrogenic basis function :  2 p   3.500
  Species H                   : Missing cutoff potential type.
  Defaulting to exp(1/x)/(1-x)^2 type cutoff potential.
  Species H : No 'logarithmic' tag. Using default grid for free atom:
  | Default logarithmic grid data [bohr] : 0.1000E-03 0.1000E+03 0.1012E+01
  Species H : On-site basis accuracy parameter (for Gram-Schmidt orthonormalisation) not specified.
  Using default value basis_acc =  0.1000000E-03.
  Species H                   : Using default innermost maximum threshold i_radial=  2 for radial functions.
  Species H                   : Default cutoff onset for free atom density etc. : 0.35000000E+01 AA.
  Species H                   : Basic radial grid will be enhanced according to radial_multiplier =   1, to contain    24 grid points.
 
  Reading configuration options for species C                   .
  | Found nuclear charge :   6.0000
  | Found atomic mass :    12.0107000000000      amu
  | Found l_max for Hartree potential  :   4
  | Found cutoff potl. onset [A], width [A], scale factor :    3.50000    1.50000    1.00000
  | Threshold for basis-dependent cutoff potential is   0.100000E-03
  | Found data for basic radial integration grid :    34 points, outermost radius =    5.000 A
  | Found multiplier for basic radial grid :   1
  | Found angular grid specification: user-specified.
  | Specified grid contains     5 separate shells.
  | Check grid settings after all constraints further below.
  | Found free-atom valence shell :  2 s   2.000
  | Found free-atom valence shell :  2 p   2.000
  | No ionic wave fns used. Skipping ion_occ.
  | No ionic wave fns used. Skipping ion_occ.
  | Found hydrogenic basis function :  2 p   1.700
  | Found hydrogenic basis function :  3 d   6.000
  | Found hydrogenic basis function :  2 s   4.900
  Species C                   : Missing cutoff potential type.
  Defaulting to exp(1/x)/(1-x)^2 type cutoff potential.
  Species C : No 'logarithmic' tag. Using default grid for free atom:
  | Default logarithmic grid data [bohr] : 0.1000E-03 0.1000E+03 0.1012E+01
  Species C : On-site basis accuracy parameter (for Gram-Schmidt orthonormalisation) not specified.
  Using default value basis_acc =  0.1000000E-03.
  Species C                   : Using default innermost maximum threshold i_radial=  2 for radial functions.
  Species C                   : Default cutoff onset for free atom density etc. : 0.35000000E+01 AA.
  Species C                   : Basic radial grid will be enhanced according to radial_multiplier =   1, to contain    34 grid points.
 
  Reading configuration options for species N                   .
  | Found nuclear charge :   7.0000
  | Found atomic mass :    14.0067000000000      amu
  | Found l_max for Hartree potential  :   4
  | Found cutoff potl. onset [A], width [A], scale factor :    3.50000    1.50000    1.00000
  | Threshold for basis-dependent cutoff potential is   0.100000E-03
  | Found data for basic radial integration grid :    35 points, outermost radius =    5.000 A
  | Found multiplier for basic radial grid :   1
  | Found angular grid specification: user-specified.
  | Specified grid contains     5 separate shells.
  | Check grid settings after all constraints further below.
  | Found free-atom valence shell :  2 s   2.000
  | Found free-atom valence shell :  2 p   3.000
  | No ionic wave fns used. Skipping ion_occ.
  | No ionic wave fns used. Skipping ion_occ.
  | Found hydrogenic basis function :  2 p   1.800
  | Found hydrogenic basis function :  3 d   6.800
  | Found hydrogenic basis function :  3 s   5.800
  Species N                   : Missing cutoff potential type.
  Defaulting to exp(1/x)/(1-x)^2 type cutoff potential.
  Species N : No 'logarithmic' tag. Using default grid for free atom:
  | Default logarithmic grid data [bohr] : 0.1000E-03 0.1000E+03 0.1012E+01
  Species N : On-site basis accuracy parameter (for Gram-Schmidt orthonormalisation) not specified.
  Using default value basis_acc =  0.1000000E-03.
  Species N                   : Using default innermost maximum threshold i_radial=  2 for radial functions.
  Species N                   : Default cutoff onset for free atom density etc. : 0.35000000E+01 AA.
  Species N                   : Basic radial grid will be enhanced according to radial_multiplier =   1, to contain    35 grid points.
 
  Reading configuration options for species O                   .
  | Found nuclear charge :   8.0000
  | Found atomic mass :    15.9994000000000      amu
  | Found l_max for Hartree potential  :   4
  | Found cutoff potl. onset [A], width [A], scale factor :    3.50000    1.50000    1.00000
  | Threshold for basis-dependent cutoff potential is   0.100000E-03
  | Found data for basic radial integration grid :    36 points, outermost radius =    5.000 A
  | Found multiplier for basic radial grid :   1
  | Found angular grid specification: user-specified.
  | Specified grid contains     5 separate shells.
  | Check grid settings after all constraints further below.
  | Found free-atom valence shell :  2 s   2.000
  | Found free-atom valence shell :  2 p   4.000
  | No ionic wave fns used. Skipping ion_occ.
  | No ionic wave fns used. Skipping ion_occ.
  | Found hydrogenic basis function :  2 p   1.800
  | Found hydrogenic basis function :  3 d   7.600
  | Found hydrogenic basis function :  3 s   6.400
  Species O                   : Missing cutoff potential type.
  Defaulting to exp(1/x)/(1-x)^2 type cutoff potential.
  Species O : No 'logarithmic' tag. Using default grid for free atom:
  | Default logarithmic grid data [bohr] : 0.1000E-03 0.1000E+03 0.1012E+01
  Species O : On-site basis accuracy parameter (for Gram-Schmidt orthonormalisation) not specified.
  Using default value basis_acc =  0.1000000E-03.
  Species O                   : Using default innermost maximum threshold i_radial=  2 for radial functions.
  Species O                   : Default cutoff onset for free atom density etc. : 0.35000000E+01 AA.
  Species O                   : Basic radial grid will be enhanced according to radial_multiplier =   1, to contain    36 grid points.
 
  Finished reading input file 'control.in'. Consistency checks are next.
 
  MPI_IN_PLACE appears to work with this MPI implementation.
  | Keeping use_mpi_in_place .true. (see manual).
  Target number of points in a grid batch is not set. Defaulting to  100
  Method for grid partitioning is not set. Defaulting to parallel hash+maxmin partitioning.
  Batch size limit is not set. Defaulting to    200
  By default, will store active basis functions for each batch.
  If in need of memory, prune_basis_once .false. can be used to disable this option.
  communication_type for Hartree potential was not specified.
  Defaulting to calc_hartree .
  Pulay mixer: Number of initial linear mixing iterations not set.
  Defaulting to    0 iterations.
  Work space size for distributed Hartree potential not set.
  Defaulting to   0.200000E+03 MB.
  Algorithm-dependent basis array size parameters:
  | n_max_pulay                         :       10
  Presetting      1001 iterations before the initial mixing cycle
  is restarted anyway using the sc_init_iter criterion / keyword.
  Presetting a factor      1.000 between actual scf density residual
  and density convergence criterion sc_accuracy_rho below which sc_init_iter
  takes no effect.
  Geometry relaxation not requested: no relaxation will be performed.
  Handling of forces: Unphysical translation and rotation will be removed from forces.
  No accuracy limit for integral partition fn. given. Defaulting to  0.1000E-14.
  No threshold value for u(r) in integrations given. Defaulting to  0.1000E-05.
  No accuracy for occupation numbers given. Defaulting to  0.1000E-12.
  No threshold value for occupation numbers given. Defaulting to  0.0000E+00.
  No accuracy for fermi level given. Defaulting to  0.1000E-19.
  Maximum # of iterations to find E_F not set. Defaulting to  200.
  Preferred method for the eigenvalue solver ('KS_method') not specified in 'control.in'.
  Calling BLACS routine to test compilation state
  Since ScaLAPACK support is enabled, defaulting to 'elsi'.
  Will not use alltoall communication since running on < 1024 CPUs.
  Threshold for basis singularities not set.
  Default threshold for basis singularities:  0.1000E-04
  partition_type (choice of integration weights) for integrals was not specified.
  | Using a version of the partition function of Stratmann and coworkers ('stratmann_smoother').
  | At each grid point, the set of atoms used to build the partition table is smoothly restricted to
  | only those atoms whose free-atom density would be non-zero at that grid point.
  Partitioning for Hartree potential was not defined. Using partition_type for integrals.
  | Adjusted default value of keyword multip_moments_threshold to:       0.10000000E-11
  | This value may affect high angular momentum components of the Hartree potential in periodic systems.
  No q(lm)/r^(l+1) cutoff set for long-range Hartree potential.
  | Using default value of  0.100000E-09 .
  | Verify using the multipole_threshold keyword.
  Defaulting to new monopole extrapolation.
  Density update method: automatic selection selected.
------------------------------------------------------------


------------------------------------------------------------
          Reading geometry description geometry.in.
------------------------------------------------------------
  Input structure read successfully.
  The structure contains       13 atoms,  and a total of         48.000 electrons.

  Input geometry:
  | No unit cell requested.
  | Atomic structure:
  |       Atom                x [A]            y [A]            z [A]
  |    1: Species C             0.00000000        0.00000000        0.00000000
  |    2: Species H             1.09300000        0.00000000        0.00000000
  |    3: Species N            -0.47961000        0.00000000       -1.41207000
  |    4: Species H            -0.39198000       -0.94519000       -1.78727000
  |    5: Species H            -1.45361000        0.29535000       -1.42645000
  |    6: Species C            -0.49584000        1.26211000        0.72868000
  |    7: Species H            -1.58789000        1.28919000        0.74431000
  |    8: Species H            -0.13407000        1.27425000        1.75947000
  |    9: Species H            -0.13407000        2.16087000        0.22380000
  |   10: Species C            -0.39425000       -1.28861000        0.74398000
  |   11: Species O            -0.10189000       -1.56493000        1.88303000
  |   12: Species O            -1.10210000       -2.13717000        0.06896000
  |   13: Species H            -1.98490000       -1.81400000        0.31635000
  |

  | The smallest distance between any two atoms is         0.97209902 AA.
  |
  | The first atom of this pair is atom number                     12 .
  | The second atom of this pair is atom number                    13 .

  Number of empty states per atom not set in control.in - providing a guess from actual geometry.
  | Total number of empty states used during s.c.f. cycle:       29
  If you use a very high smearing, use empty_states (per atom!) in control.in to increase this value.

  Structure-dependent array size parameters: 
  | Maximum number of distinct radial functions  :       21
  | Maximum number of basis functions            :      119
  | Number of Kohn-Sham states (occupied + empty):       53
------------------------------------------------------------

------------------------------------------------------------
          Preparing all fixed parts of the calculation.
------------------------------------------------------------
  Determining machine precision:
    2.225073858507201E-308
  Setting up grids for atomic and cluster calculations.

  Creating wave function, potential, and density for free atoms.

  Species: H

  List of occupied orbitals and eigenvalues:
    n    l              occ      energy [Ha]    energy [eV]
    1    0           1.0000        -0.237589        -6.4651


  Species: C

  List of occupied orbitals and eigenvalues:
    n    l              occ      energy [Ha]    energy [eV]
    1    0           2.0000       -10.038835      -273.1706
    2    0           2.0000        -0.502696       -13.6791
    2    1           2.0000        -0.191971        -5.2238


  Species: N

  List of occupied orbitals and eigenvalues:
    n    l              occ      energy [Ha]    energy [eV]
    1    0           2.0000       -14.128000      -384.4424
    2    0           2.0000        -0.681077       -18.5330
    2    1           3.0000        -0.259788        -7.0692


  Species: O

  List of occupied orbitals and eigenvalues:
    n    l              occ      energy [Ha]    energy [eV]
    1    0           2.0000       -18.898188      -514.2459
    2    0           2.0000        -0.878505       -23.9053
    2    1           4.0000        -0.331779        -9.0282

  Creating fixed part of basis set: Ionic, confined, hydrogenic.
 
  H                    hydrogenic:
 
  List of hydrogenic basis orbitals: 
    n    l      effective z      eigenvalue [eV]  inner max. [A]     outer max. [A]     outer radius [A]   
    2    0         2.100000       -14.9728           0.193243           1.317208           4.583499
    2    1         3.500000       -41.6669           0.602369           0.602369           3.723403
 
 
  C                    hydrogenic:
 
  List of hydrogenic basis orbitals: 
    n    l      effective z      eigenvalue [eV]  inner max. [A]     outer max. [A]     outer radius [A]   
    2    1         1.700000        -9.7616           1.230570           1.230570           4.607917
    3    2         6.000000       -54.4224           0.792453           0.792453           3.883070
    2    0         4.900000       -81.6679           0.082559           0.562749           3.078220
 
 
  N                    hydrogenic:
 
  List of hydrogenic basis orbitals: 
    n    l      effective z      eigenvalue [eV]  inner max. [A]     outer max. [A]     outer radius [A]   
    2    1         1.800000       -10.9749           1.177451           1.177451           4.573712
    3    2         6.800000       -69.9026           0.704619           0.704619           3.538137
    3    0         5.800000       -50.8545           0.067388           1.191934           4.250239
 
 
  O                    hydrogenic:
 
  List of hydrogenic basis orbitals: 
    n    l      effective z      eigenvalue [eV]  inner max. [A]     outer max. [A]     outer radius [A]   
    2    1         1.800000       -10.9749           1.164242           1.164242           4.578029
    3    2         7.600000       -87.3180           0.624125           0.624125           3.251020
    3    0         6.400000       -61.9207           0.061167           1.081902           4.001998
 

  Adding cutoff potential to free-atom effective potential.
  Creating atomic-like basis functions for current effective potential.

  Species H                   :

  List of atomic basis orbitals and eigenvalues:
    n    l      energy [Ha]    energy [eV]    outer radius [A]
    1    0        -0.237589        -6.4651       4.527807


  Species C                   :

  List of atomic basis orbitals and eigenvalues:
    n    l      energy [Ha]    energy [eV]    outer radius [A]
    1    0       -10.038835      -273.1706       1.934409
    2    0        -0.502696       -13.6791       4.496620
    2    1        -0.191971        -5.2238       4.551928


  Species N                   :

  List of atomic basis orbitals and eigenvalues:
    n    l      energy [Ha]    energy [eV]    outer radius [A]
    1    0       -14.128000      -384.4424       1.637919
    2    0        -0.681077       -18.5330       4.463241
    2    1        -0.259788        -7.0692       4.518138


  Species O                   :

  List of atomic basis orbitals and eigenvalues:
    n    l      energy [Ha]    energy [eV]    outer radius [A]
    1    0       -18.898188      -514.2459       1.415765
    2    0        -0.878505       -23.9053       4.413171
    2    1        -0.331779        -9.0282       4.522403

  Assembling full basis from fixed parts.
  | Species H :   atomic orbital   1 s accepted.
  | Species H :    hydro orbital   2 s accepted.
  | Species H :    hydro orbital   2 p accepted.
  | Species C :   atomic orbital   1 s accepted.
  | Species C :    hydro orbital   2 s accepted.
  | Species C :   atomic orbital   2 s accepted.
  | Species C :   atomic orbital   2 p accepted.
  | Species C :    hydro orbital   2 p accepted.
  | Species C :    hydro orbital   3 d accepted.
  | Species N :   atomic orbital   1 s accepted.
  | Species N :    hydro orbital   3 s accepted.
  | Species N :   atomic orbital   2 s accepted.
  | Species N :   atomic orbital   2 p accepted.
  | Species N :    hydro orbital   2 p accepted.
  | Species N :    hydro orbital   3 d accepted.
  | Species O :   atomic orbital   1 s accepted.
  | Species O :    hydro orbital   3 s accepted.
  | Species O :   atomic orbital   2 s accepted.
  | Species O :   atomic orbital   2 p accepted.
  | Species O :    hydro orbital   2 p accepted.
  | Species O :    hydro orbital   3 d accepted.
 
  Basis size parameters after reduction:
  | Total number of radial functions:       21
  | Total number of basis functions :      119
 
  Per-task memory consumption for arrays in subroutine allocate_ext:
  |           5.250512MB.
  Testing on-site integration grid accuracy.
  |  Species  Function  <phi|h_atom|phi> (log., in eV)  <phi|h_atom|phi> (rad., in eV)
           1        1                 -6.4663192853                 -6.4651273558
           1        2                 13.7111246313                 13.7170609718
           1        3                 25.2673269279                 25.2674696378
           2        4               -273.1705927641               -273.1705631568
           2        5                -10.7109323383                -10.7107120029
           2        6                 17.4381822266                 17.4352413244
           2        7                 -5.2255326521                 -5.2270484734
           2        8                  8.6835629259                  8.6603288385
           2        9                 27.4952418996                 27.4953360207
           3       10               -384.4424306495               -384.4423701208
           3       11                 12.5842251816                 12.5842222903
           3       12                -15.7264628251                -15.7264433455
           3       13                 -7.0696854293                 -7.0701769954
           3       14                  8.8090390882                  8.7901077751
           3       15                 35.9586762123                 35.9588528632
           4       16               -514.2458688638               -514.2457643834
           4       17                 15.1795651126                 15.1795290741
           4       18                -21.5359799773                -21.5360846186
           4       19                 -9.0283069236                 -9.0284644067
           4       20                  8.3027758564                  8.2834874195
           4       21                 45.8339351984                 45.8338762259

  Preparing densities etc. for the partition functions (integrals / Hartree potential).

  Preparations completed.
  max(cpu_time)          :      0.163 s.
  Wall clock time (cpu1) :      0.163 s.
------------------------------------------------------------

------------------------------------------------------------
          Begin self-consistency loop: Initialization.

          Date     :  20200505, Time     :  093442.723
------------------------------------------------------------

  Initializing index lists of integration centers etc. from given atomic structure:
  | Number of centers in hartree potential         :        13
  | Number of centers in hartree multipole         :        13
  | Number of centers in electron density summation:        13
  | Number of centers in basis integrals           :        13
  | Number of centers in integrals                 :        13
  | Number of centers in hamiltonian               :        13
  * Using 20 tasks for Scalapack Eigenvalue solver.
  Detailed listing of tasks and assigned k-points:
  (for non-periodic systems, the "k-point" denotes an internal label only)
   Task     0 k-point     1 on r07c27.bullx
   Task     1 k-point     1 on r07c27.bullx
   Task     2 k-point     1 on r07c27.bullx
   Task     3 k-point     1 on r07c27.bullx
   Task     4 k-point     1 on r07c27.bullx
   Task     5 k-point     1 on r07c27.bullx
   Task     6 k-point     1 on r07c27.bullx
   Task     7 k-point     1 on r07c27.bullx
   Task     8 k-point     1 on r07c27.bullx
   Task     9 k-point     1 on r07c27.bullx
   Task    10 k-point     1 on r07c27.bullx
   Task    11 k-point     1 on r07c27.bullx
   Task    12 k-point     1 on r07c27.bullx
   Task    13 k-point     1 on r07c27.bullx
   Task    14 k-point     1 on r07c27.bullx
   Task    15 k-point     1 on r07c27.bullx
   Task    16 k-point     1 on r07c27.bullx
   Task    17 k-point     1 on r07c27.bullx
   Task    18 k-point     1 on r07c27.bullx
   Task    19 k-point     1 on r07c27.bullx
  Tasks:    20 split into      5 X      4 BLACS grid
  Calculating block size based on n_basis =          119  max_nprow =            5  max_npcol =            4
  ScaLAPACK block size set to:           16
  Allocating        0.008 MB for ovlp
  Allocating        0.008 MB for ham
  Allocating        0.008 MB for eigenvec
  Required Scalapack workspace - INTEGER:            1  REAL:             1
  Partitioning the integration grid into batches with parallel hashing+maxmin method.
  | Number of batches:      861
  | Maximal batch size:     198
  | Minimal batch size:      49
  | Average batch size:      80.890
  | Standard deviation of batch sizes:      20.140

  Integration load balanced across    20 MPI tasks.
  Work distribution over tasks is as follows:
  Task     0 has       3447 integration points.
  Task     1 has       3478 integration points.
  Task     2 has       3478 integration points.
  Task     3 has       3455 integration points.
  Task     4 has       3462 integration points.
  Task     5 has       3604 integration points.
  Task     6 has       3476 integration points.
  Task     7 has       3442 integration points.
  Task     8 has       3463 integration points.
  Task     9 has       3468 integration points.
  Task    10 has       3481 integration points.
  Task    11 has       3453 integration points.
  Task    12 has       3463 integration points.
  Task    13 has       3513 integration points.
  Task    14 has       3468 integration points.
  Task    15 has       3449 integration points.
  Task    16 has       3453 integration points.
  Task    17 has       3532 integration points.
  Task    18 has       3458 integration points.
  Task    19 has       3603 integration points.
  Initializing partition tables, free-atom densities, potentials, etc. across the integration grid (initialize_grid_storage).
  | initialize_grid_storage: Actual outermost partition radius vs. multipole_radius_free
  | (-- VB: in principle, multipole_radius_free should be larger, hence this output)
  | Species        1: Confinement radius =              4.999999999999999 AA, multipole_radius_free =              5.054417573612229 AA.
  | Species        1: outer_partition_radius set to              5.054417573612229 AA .
  | Species        2: Confinement radius =              4.999999999999999 AA, multipole_radius_free =              5.019602836301480 AA.
  | Species        2: outer_partition_radius set to              5.019602836301480 AA .
  | Species        3: Confinement radius =              4.999999999999999 AA, multipole_radius_free =              5.043624274424571 AA.
  | Species        3: outer_partition_radius set to              5.043624274424571 AA .
  | Species        4: Confinement radius =              4.999999999999999 AA, multipole_radius_free =              5.048384829883283 AA.
  | Species        4: outer_partition_radius set to              5.048384829883283 AA .
  | Original list of interatomic distances with          13 x         13 entries is created.
  | Net number of integration points:    69646
  | of which are non-zero points    :    59364
  Renormalizing the initial density to the exact electron count on the 3D integration grid.
  | Initial density: Formal number of electrons (from input files) :      48.0000000000
  | Integrated number of electrons on 3D grid     :      48.0000071418
  | Charge integration error                      :       0.0000071418
  | Normalization factor for density and gradient :       0.9999998512
  Obtaining max. number of non-zero basis functions in each batch (get_n_compute_maxes).
  | Maximal number of non-zero basis functions:      119 in task     0
  | Maximal number of non-zero basis functions:      118 in task     1
  | Maximal number of non-zero basis functions:      118 in task     2
  | Maximal number of non-zero basis functions:      118 in task     3
  | Maximal number of non-zero basis functions:      118 in task     4
  | Maximal number of non-zero basis functions:      118 in task     5
  | Maximal number of non-zero basis functions:      119 in task     6
  | Maximal number of non-zero basis functions:      118 in task     7
  | Maximal number of non-zero basis functions:      117 in task     8
  | Maximal number of non-zero basis functions:      118 in task     9
  | Maximal number of non-zero basis functions:      118 in task    10
  | Maximal number of non-zero basis functions:      118 in task    11
  | Maximal number of non-zero basis functions:      118 in task    12
  | Maximal number of non-zero basis functions:      118 in task    13
  | Maximal number of non-zero basis functions:      119 in task    14
  | Maximal number of non-zero basis functions:      118 in task    15
  | Maximal number of non-zero basis functions:      117 in task    16
  | Maximal number of non-zero basis functions:      118 in task    17
  | Maximal number of non-zero basis functions:      118 in task    18
  | Maximal number of non-zero basis functions:      118 in task    19
  Selecting the method for density update.
  Loop over occupied states selected for charge density update.
  Allocating        0.050 MB for KS_eigenvector
  Integrating Hamiltonian matrix: batch-based integration.
  Time summed over all CPUs for integration: real work        0.514 s, elapsed        0.558 s
  Integrating overlap matrix.
  Time summed over all CPUs for integration: real work        0.216 s, elapsed        0.228 s
  Deallocating overlap matrix.

  Updating Kohn-Sham eigenvalues and eigenvectors using ELSI and the ELPA eigensolver.
  ELPA settings:
  | ELPA solver          1
  | Time full => band           :     0.001 s
  | Time band => tridiagonal    :     0.001 s
  | Time solve tridiagonal      :     0.001 s
  Overlap matrix is nonsingular
  | Lowest eigenvalue of overlap  :  0.54E-02
  | Highest eigenvalue of overlap :  0.63E+01
  Finished singularity check of overlap matrix
  | Time :     0.003 s
  Finished Cholesky decomposition
  | Time :     0.002 s
  Finished transformation to standard eigenproblem
  | Time :     0.001 s
  Starting ELPA eigensolver
  | Time full => tridiagonal    :     0.002 s
  | Time solve tridiagonal      :     0.000 s
  | Time ev tridiagonal => full :     0.001 s
  Finished solving standard eigenproblem
  | Time :     0.003 s
  Finished back-transformation of eigenvectors
  | Time :     0.000 s

  Obtaining occupation numbers and chemical potential using ELSI.
  | Chemical potential (Fermi level):    -8.47321590eV
  Writing Kohn-Sham eigenvalues.

  State    Occupation    Eigenvalue [Ha]    Eigenvalue [eV]
      1       2.00000         -19.007961         -517.23292
      2       2.00000         -18.977317         -516.39908
      3       2.00000         -14.245825         -387.64863
      4       2.00000         -10.166751         -276.65137
      5       2.00000         -10.141322         -275.95942
      6       2.00000         -10.132090         -275.70820
      7       2.00000          -1.183886          -32.21519
      8       2.00000          -1.097365          -29.86082
      9       2.00000          -0.991218          -26.97240
     10       2.00000          -0.860352          -23.41137
     11       2.00000          -0.755824          -20.56701
     12       2.00000          -0.679419          -18.48793
     13       2.00000          -0.624594          -16.99608
     14       2.00000          -0.619455          -16.85624
     15       2.00000          -0.580493          -15.79602
     16       2.00000          -0.575318          -15.65519
     17       2.00000          -0.551432          -15.00522
     18       2.00000          -0.529889          -14.41902
     19       2.00000          -0.513850          -13.98256
     20       2.00000          -0.497076          -13.52613
     21       2.00000          -0.457308          -12.44399
     22       2.00000          -0.432055          -11.75682
     23       2.00000          -0.417150          -11.35124
     24       2.00000          -0.376522          -10.24570
     25       0.00000          -0.163320           -4.44417
     26       0.00000          -0.068312           -1.85885
     27       0.00000          -0.030534           -0.83089
     28       0.00000          -0.010630           -0.28927
     29       0.00000          -0.000677           -0.01843
     30       0.00000           0.008196            0.22302
     31       0.00000           0.015830            0.43075
     32       0.00000           0.028542            0.77667
     33       0.00000           0.045321            1.23326
     34       0.00000           0.056924            1.54898
     35       0.00000           0.094084            2.56016
     36       0.00000           0.133675            3.63749
     37       0.00000           0.164994            4.48971
     38       0.00000           0.202006            5.49685
     39       0.00000           0.215725            5.87017
     40       0.00000           0.238259            6.48334
     41       0.00000           0.249172            6.78032
     42       0.00000           0.270713            7.36646
     43       0.00000           0.277818            7.55981
     44       0.00000           0.295038            8.02840
     45       0.00000           0.321015            8.73527
     46       0.00000           0.359954            9.79484
     47       0.00000           0.371450           10.10767
     48       0.00000           0.392289           10.67474
     49       0.00000           0.445680           12.12757
     50       0.00000           0.465454           12.66565
     51       0.00000           0.500148           13.60972
     52       0.00000           0.524582           14.27461
     53       0.00000           0.608119           16.54775

  Highest occupied state (VBM) at    -10.24569779 eV
  | Occupation number:      2.00000000

  Lowest unoccupied state (CBM) at    -4.44416515 eV
  | Occupation number:      0.00000000

  Overall HOMO-LUMO gap:      5.80153264 eV.
  Calculating total energy contributions from superposition of free atom densities.

  Total energy components:
  | Sum of eigenvalues            :        -188.82894818 Ha       -5138.29711366 eV
  | XC energy correction          :         -41.78804188 Ha       -1137.11047523 eV
  | XC potential correction       :          53.71926045 Ha        1461.77545107 eV
  | Free-atom electrostatic energy:        -146.85841291 Ha       -3996.22074062 eV
  | Hartree energy correction     :           0.00000000 Ha           0.00000000 eV
  | vdW energy correction         :           0.00000000 Ha           0.00000000 eV
  | Entropy correction            :           0.00000000 Ha           0.00000000 eV
  | ---------------------------
  | Total energy                  :        -323.75614252 Ha       -8809.85287843 eV
  | Total energy, T -> 0          :        -323.75614252 Ha       -8809.85287843 eV  <-- do not rely on this value for anything but (periodic) metals
  | Electronic free energy        :        -323.75614252 Ha       -8809.85287843 eV

  Derived energy quantities:
  | Kinetic energy                :         320.49836185 Ha        8721.20415599 eV
  | Electrostatic energy          :        -602.46646249 Ha      -16393.94655920 eV
  | Energy correction for multipole
  | error in Hartree potential    :           0.00000000 Ha           0.00000000 eV
  | Sum of eigenvalues per atom                           :        -395.25362413 eV
  | Total energy (T->0) per atom                          :        -677.68099065 eV  <-- do not rely on this value for anything but (periodic) metals
  | Electronic free energy per atom                       :        -677.68099065 eV
  Initialize hartree_potential_storage
  Max. number of atoms included in rho_multipole:           13

  End scf initialization - timings             :  max(cpu_time)    wall_clock(cpu1)
  | Time for scf. initialization               :        0.096 s           0.097 s
  | Boundary condition initialization          :        0.000 s           0.000 s
  | Integration                                :        0.041 s           0.040 s
  | Solution of K.-S. eqns.                    :        0.010 s           0.011 s
  | Grid partitioning                          :        0.022 s           0.022 s
  | Preloading free-atom quantities on grid    :        0.002 s           0.003 s
  | Free-atom superposition energy             :        0.005 s           0.004 s
  | Total energy evaluation                    :        0.000 s           0.000 s

  Partial memory accounting:
  | Current value for overall tracked memory usage on task 0  :           0.133 MB
  | Peak value for overall tracked memory usage on task 0     :           0.872 MB after allocating wave
  | Largest tracked array allocation on task 0 so far         :           0.188 MB  when allocating H_times_psi
  Note:  These values currently only include a subset of arrays which are explicitly tracked.
  The "true" memory usage will be greater.
------------------------------------------------------------

------------------------------------------------------------
          Begin self-consistency iteration #    1

  Date     :  20200505, Time     :  093442.820
------------------------------------------------------------
  Evaluating new KS density.
  Integration grid: deviation in total charge (<rho> - N_e) =   7.105427E-15
  Pulay mixing of updated and previous charge densities.

  Evaluating partitioned Hartree potential by multipole expansion.
  | Analytical far-field extrapolation by fixed multipoles:
  | Hartree multipole sum: apparent total charge =  -0.104593E-03
  Summing up the Hartree potential.
  Time summed over all CPUs for potential: real work        0.422 s, elapsed        0.432 s
  | RMS charge density error from multipole expansion :   0.596135E-02

  Integrating Hamiltonian matrix: batch-based integration.
  Time summed over all CPUs for integration: real work        0.505 s, elapsed        0.531 s

  Updating Kohn-Sham eigenvalues and eigenvectors using ELSI and the ELPA eigensolver.
  ELPA settings:
  | ELPA solver          1
  Finished transformation to standard eigenproblem
  | Time :     0.001 s
  Starting ELPA eigensolver
  | Time full => tridiagonal    :     0.002 s
  | Time solve tridiagonal      :     0.001 s
  | Time ev tridiagonal => full :     0.000 s
  Finished solving standard eigenproblem
  | Time :     0.003 s
  Finished back-transformation of eigenvectors
  | Time :     0.000 s

  Obtaining occupation numbers and chemical potential using ELSI.
  | Chemical potential (Fermi level):    -7.31050001eV
  Writing Kohn-Sham eigenvalues.

  State    Occupation    Eigenvalue [Ha]    Eigenvalue [eV]
      1       2.00000         -18.898686         -514.25941
      2       2.00000         -18.840190         -512.66765
      3       2.00000         -14.096344         -383.58103
      4       2.00000         -10.118427         -275.33640
      5       2.00000         -10.063120         -273.83144
      6       2.00000         -10.034130         -273.04256
      7       2.00000          -1.134996          -30.88481
      8       2.00000          -1.035575          -28.17944
      9       2.00000          -0.922090          -25.09134
     10       2.00000          -0.795437          -21.64495
     11       2.00000          -0.705369          -19.19406
     12       2.00000          -0.634507          -17.26582
     13       2.00000          -0.574282          -15.62701
     14       2.00000          -0.559697          -15.23012
     15       2.00000          -0.520937          -14.17542
     16       2.00000          -0.517551          -14.08328
     17       2.00000          -0.490677          -13.35199
     18       2.00000          -0.470958          -12.81542
     19       2.00000          -0.448677          -12.20913
     20       2.00000          -0.441904          -12.02483
     21       2.00000          -0.396420          -10.78713
     22       2.00000          -0.373718          -10.16938
     23       2.00000          -0.348479           -9.48260
     24       2.00000          -0.304453           -8.28458
     25       0.00000          -0.129496           -3.52377
     26       0.00000          -0.050101           -1.36331
     27       0.00000           0.005868            0.15968
     28       0.00000           0.017494            0.47603
     29       0.00000           0.025430            0.69199
     30       0.00000           0.047174            1.28367
     31       0.00000           0.057104            1.55387
     32       0.00000           0.066157            1.80022
     33       0.00000           0.080301            2.18510
     34       0.00000           0.098188            2.67182
     35       0.00000           0.135709            3.69283
     36       0.00000           0.161933            4.40642
     37       0.00000           0.188531            5.13018
     38       0.00000           0.229012            6.23174
     39       0.00000           0.246410            6.70515
     40       0.00000           0.273378            7.43899
     41       0.00000           0.282086            7.67595
     42       0.00000           0.305004            8.29959
     43       0.00000           0.314385            8.55484
     44       0.00000           0.331178            9.01180
     45       0.00000           0.359609            9.78547
     46       0.00000           0.397329           10.81189
     47       0.00000           0.414933           11.29091
     48       0.00000           0.423604           11.52685
     49       0.00000           0.484436           13.18217
     50       0.00000           0.500684           13.62430
     51       0.00000           0.529823           14.41722
     52       0.00000           0.557762           15.17747
     53       0.00000           0.647575           17.62141

  Highest occupied state (VBM) at     -8.28457922 eV
  | Occupation number:      2.00000000

  Lowest unoccupied state (CBM) at    -3.52377153 eV
  | Occupation number:      0.00000000

  Overall HOMO-LUMO gap:      4.76080769 eV.

  Total energy components:
  | Sum of eigenvalues            :        -185.45324576 Ha       -5046.43957703 eV
  | XC energy correction          :         -42.11848163 Ha       -1146.10219820 eV
  | XC potential correction       :          54.14904165 Ha        1473.47039260 eV
  | Free-atom electrostatic energy:        -146.85841291 Ha       -3996.22074062 eV
  | Hartree energy correction     :          -3.29026377 Ha         -89.53263249 eV
  | vdW energy correction         :           0.00000000 Ha           0.00000000 eV
  | Entropy correction            :           0.00000000 Ha           0.00000000 eV
  | ---------------------------
  | Total energy                  :        -323.57136241 Ha       -8804.82475573 eV
  | Total energy, T -> 0          :        -323.57136241 Ha       -8804.82475573 eV  <-- do not rely on this value for anything but (periodic) metals
  | Electronic free energy        :        -323.57136241 Ha       -8804.82475573 eV

  Derived energy quantities:
  | Kinetic energy                :         322.30285809 Ha        8770.30699697 eV
  | Electrostatic energy          :        -603.75573887 Ha      -16429.02955451 eV
  | Energy correction for multipole
  | error in Hartree potential    :           0.01195324 Ha           0.32526434 eV
  | Sum of eigenvalues per atom                           :        -388.18765977 eV
  | Total energy (T->0) per atom                          :        -677.29421198 eV  <-- do not rely on this value for anything but (periodic) metals
  | Electronic free energy per atom                       :        -677.29421198 eV

  Self-consistency convergence accuracy:
  | Change of charge density      :  0.5897E+00
  | Change of sum of eigenvalues  :  0.9186E+02 eV
  | Change of total energy        :  0.5028E+01 eV

  End self-consistency iteration #     1       :  max(cpu_time)    wall_clock(cpu1)
  | Time for this iteration                    :        0.078 s           0.078 s
  | Charge density update                      :        0.022 s           0.022 s
  | Density mixing                             :        0.000 s           0.000 s
  | Hartree multipole update                   :        0.001 s           0.002 s
  | Hartree multipole summation                :        0.022 s           0.022 s
  | Integration                                :        0.027 s           0.027 s
  | Solution of K.-S. eqns.                    :        0.005 s           0.005 s
  | Total energy evaluation                    :        0.000 s           0.000 s

  Partial memory accounting:
  | Current value for overall tracked memory usage on task 0  :           0.133 MB
  | Peak value for overall tracked memory usage on task 0     :           0.887 MB after allocating gradient_basis_wave
  | Largest tracked array allocation on task 0 so far         :           0.565 MB  when allocating gradient_basis_wave
  Note:  These values currently only include a subset of arrays which are explicitly tracked.
  The "true" memory usage will be greater.
------------------------------------------------------------

------------------------------------------------------------
          Begin self-consistency iteration #    2

  Date     :  20200505, Time     :  093442.906
------------------------------------------------------------
  Evaluating new KS density.
  Integration grid: deviation in total charge (<rho> - N_e) =   1.421085E-14
  Pulay mixing of updated and previous charge densities.

  Evaluating partitioned Hartree potential by multipole expansion.
  | Analytical far-field extrapolation by fixed multipoles:
  | Hartree multipole sum: apparent total charge =  -0.245578E-03
  Summing up the Hartree potential.
  Time summed over all CPUs for potential: real work        0.419 s, elapsed        0.430 s
  | RMS charge density error from multipole expansion :   0.140597E-01

  Integrating Hamiltonian matrix: batch-based integration.
  Time summed over all CPUs for integration: real work        0.505 s, elapsed        0.531 s

  Updating Kohn-Sham eigenvalues and eigenvectors using ELSI and the ELPA eigensolver.
  ELPA settings:
  | ELPA solver          1
  Finished transformation to standard eigenproblem
  | Time :     0.000 s
  Starting ELPA eigensolver
  | Time full => tridiagonal    :     0.002 s
  | Time solve tridiagonal      :     0.000 s
  | Time ev tridiagonal => full :     0.000 s
  Finished solving standard eigenproblem
  | Time :     0.003 s
  Finished back-transformation of eigenvectors
  | Time :     0.000 s

  Obtaining occupation numbers and chemical potential using ELSI.
  | Chemical potential (Fermi level):    -6.00809546eV
  Highest occupied state (VBM) at     -6.32869432 eV
  | Occupation number:      2.00000000

  Lowest unoccupied state (CBM) at    -2.33523201 eV
  | Occupation number:      0.00000000

  Overall HOMO-LUMO gap:      3.99346231 eV.

  Checking to see if s.c.f. parameters should be adjusted.

  Total energy components:
  | Sum of eigenvalues            :        -181.91310156 Ha       -4950.10735207 eV
  | XC energy correction          :         -42.47741714 Ha       -1155.86933026 eV
  | XC potential correction       :          54.61435562 Ha        1486.13223012 eV
  | Free-atom electrostatic energy:        -146.85841291 Ha       -3996.22074062 eV
  | Hartree energy correction     :          -6.85695460 Ha        -186.58722822 eV
  | vdW energy correction         :           0.00000000 Ha           0.00000000 eV
  | Entropy correction            :           0.00000000 Ha           0.00000000 eV
  | ---------------------------
  | Total energy                  :        -323.49153058 Ha       -8802.65242106 eV
  | Total energy, T -> 0          :        -323.49153058 Ha       -8802.65242106 eV  <-- do not rely on this value for anything but (periodic) metals
  | Electronic free energy        :        -323.49153058 Ha       -8802.65242106 eV

  Derived energy quantities:
  | Kinetic energy                :         323.62128229 Ha        8806.18314467 eV
  | Electrostatic energy          :        -604.63539573 Ha      -16452.96623547 eV
  | Energy correction for multipole
  | error in Hartree potential    :           0.02616924 Ha           0.71210138 eV
  | Sum of eigenvalues per atom                           :        -380.77748862 eV
  | Total energy (T->0) per atom                          :        -677.12710931 eV  <-- do not rely on this value for anything but (periodic) metals
  | Electronic free energy per atom                       :        -677.12710931 eV

  Self-consistency convergence accuracy:
  | Change of charge density      :  0.3692E+00
  | Change of sum of eigenvalues  :  0.9633E+02 eV
  | Change of total energy        :  0.2172E+01 eV

  End self-consistency iteration #     2       :  max(cpu_time)    wall_clock(cpu1)
  | Time for this iteration                    :        0.081 s           0.078 s
  | Charge density update                      :        0.025 s           0.022 s
  | Density mixing                             :        0.001 s           0.001 s
  | Hartree multipole update                   :        0.001 s           0.001 s
  | Hartree multipole summation                :        0.022 s           0.022 s
  | Integration                                :        0.027 s           0.027 s
  | Solution of K.-S. eqns.                    :        0.004 s           0.004 s
  | Total energy evaluation                    :        0.000 s           0.001 s

  Partial memory accounting:
  | Current value for overall tracked memory usage on task 0  :           0.134 MB
  | Peak value for overall tracked memory usage on task 0     :           0.887 MB after allocating gradient_basis_wave
  | Largest tracked array allocation on task 0 so far         :           0.565 MB  when allocating gradient_basis_wave
  Note:  These values currently only include a subset of arrays which are explicitly tracked.
  The "true" memory usage will be greater.
------------------------------------------------------------

------------------------------------------------------------
          Begin self-consistency iteration #    3

  Date     :  20200505, Time     :  093442.991
------------------------------------------------------------
  Evaluating new KS density.
  Integration grid: deviation in total charge (<rho> - N_e) =   0.000000E+00
  Pulay mixing of updated and previous charge densities.

  Evaluating partitioned Hartree potential by multipole expansion.
  | Analytical far-field extrapolation by fixed multipoles:
  | Hartree multipole sum: apparent total charge =  -0.343727E-03
  Summing up the Hartree potential.
  Time summed over all CPUs for potential: real work        0.420 s, elapsed        0.429 s
  | RMS charge density error from multipole expansion :   0.219572E-01

  Integrating Hamiltonian matrix: batch-based integration.
  Time summed over all CPUs for integration: real work        0.506 s, elapsed        0.533 s

  Updating Kohn-Sham eigenvalues and eigenvectors using ELSI and the ELPA eigensolver.
  ELPA settings:
  | ELPA solver          1
  Finished transformation to standard eigenproblem
  | Time :     0.000 s
  Starting ELPA eigensolver
  | Time full => tridiagonal    :     0.002 s
  | Time solve tridiagonal      :     0.000 s
  | Time ev tridiagonal => full :     0.000 s
  Finished solving standard eigenproblem
  | Time :     0.003 s
  Finished back-transformation of eigenvectors
  | Time :     0.000 s

  Obtaining occupation numbers and chemical potential using ELSI.
  | Chemical potential (Fermi level):    -5.41344832eV
  Highest occupied state (VBM) at     -5.64225744 eV
  | Occupation number:      2.00000000

  Lowest unoccupied state (CBM) at    -1.64665741 eV
  | Occupation number:      0.00000000

  Overall HOMO-LUMO gap:      3.99560003 eV.

  Total energy components:
  | Sum of eigenvalues            :        -180.57905248 Ha       -4913.80602975 eV
  | XC energy correction          :         -42.63109168 Ha       -1160.05102738 eV
  | XC potential correction       :          54.81054791 Ha        1491.47089371 eV
  | Free-atom electrostatic energy:        -146.85841291 Ha       -3996.22074062 eV
  | Hartree energy correction     :          -8.22023616 Ha        -223.68400674 eV
  | vdW energy correction         :           0.00000000 Ha           0.00000000 eV
  | Entropy correction            :          -0.00000000 Ha          -0.00000000 eV
  | ---------------------------
  | Total energy                  :        -323.47824532 Ha       -8802.29091078 eV
  | Total energy, T -> 0          :        -323.47824532 Ha       -8802.29091078 eV  <-- do not rely on this value for anything but (periodic) metals
  | Electronic free energy        :        -323.47824532 Ha       -8802.29091078 eV

  Derived energy quantities:
  | Kinetic energy                :         323.24159366 Ha        8795.85129156 eV
  | Electrostatic energy          :        -604.08874730 Ha      -16438.09117496 eV
  | Energy correction for multipole
  | error in Hartree potential    :           0.03681034 Ha           1.00166026 eV
  | Sum of eigenvalues per atom                           :        -377.98507921 eV
  | Total energy (T->0) per atom                          :        -677.09930083 eV  <-- do not rely on this value for anything but (periodic) metals
  | Electronic free energy per atom                       :        -677.09930083 eV

  Self-consistency convergence accuracy:
  | Change of charge density      :  0.2078E+00
  | Change of sum of eigenvalues  :  0.3630E+02 eV
  | Change of total energy        :  0.3615E+00 eV

  End self-consistency iteration #     3       :  max(cpu_time)    wall_clock(cpu1)
  | Time for this iteration                    :        0.082 s           0.078 s
  | Charge density update                      :        0.027 s           0.022 s
  | Density mixing                             :        0.001 s           0.001 s
  | Hartree multipole update                   :        0.001 s           0.001 s
  | Hartree multipole summation                :        0.022 s           0.022 s
  | Integration                                :        0.027 s           0.028 s
  | Solution of K.-S. eqns.                    :        0.004 s           0.004 s
  | Total energy evaluation                    :        0.000 s           0.000 s

  Partial memory accounting:
  | Current value for overall tracked memory usage on task 0  :           0.134 MB
  | Peak value for overall tracked memory usage on task 0     :           0.888 MB after allocating gradient_basis_wave
  | Largest tracked array allocation on task 0 so far         :           0.565 MB  when allocating gradient_basis_wave
  Note:  These values currently only include a subset of arrays which are explicitly tracked.
  The "true" memory usage will be greater.
------------------------------------------------------------

------------------------------------------------------------
          Begin self-consistency iteration #    4

  Date     :  20200505, Time     :  093443.077
------------------------------------------------------------
  Evaluating new KS density.
  Integration grid: deviation in total charge (<rho> - N_e) =   3.552714E-14
  Pulay mixing of updated and previous charge densities.

  Evaluating partitioned Hartree potential by multipole expansion.
  | Analytical far-field extrapolation by fixed multipoles:
  | Hartree multipole sum: apparent total charge =  -0.377482E-03
  Summing up the Hartree potential.
  Time summed over all CPUs for potential: real work        0.412 s, elapsed        0.426 s
  | RMS charge density error from multipole expansion :   0.254947E-01

  Integrating Hamiltonian matrix: batch-based integration.
  Time summed over all CPUs for integration: real work        0.504 s, elapsed        0.530 s

  Updating Kohn-Sham eigenvalues and eigenvectors using ELSI and the ELPA eigensolver.
  ELPA settings:
  | ELPA solver          1
  Finished transformation to standard eigenproblem
  | Time :     0.000 s
  Starting ELPA eigensolver
  | Time full => tridiagonal    :     0.002 s
  | Time solve tridiagonal      :     0.000 s
  | Time ev tridiagonal => full :     0.000 s
  Finished solving standard eigenproblem
  | Time :     0.003 s
  Finished back-transformation of eigenvectors
  | Time :     0.000 s

  Obtaining occupation numbers and chemical potential using ELSI.
  | Chemical potential (Fermi level):    -5.32605194eV
  Highest occupied state (VBM) at     -5.45080022 eV
  | Occupation number:      2.00000000

  Lowest unoccupied state (CBM) at    -1.54916403 eV
  | Occupation number:      0.00000000

  Overall HOMO-LUMO gap:      3.90163619 eV.

  Total energy components:
  | Sum of eigenvalues            :        -180.44363988 Ha       -4910.12126526 eV
  | XC energy correction          :         -42.66902923 Ha       -1161.08336067 eV
  | XC potential correction       :          54.85823024 Ha        1492.76839615 eV
  | Free-atom electrostatic energy:        -146.85841291 Ha       -3996.22074062 eV
  | Hartree energy correction     :          -8.36427608 Ha        -227.60353256 eV
  | vdW energy correction         :           0.00000000 Ha           0.00000000 eV
  | Entropy correction            :          -0.00000000 Ha          -0.00000000 eV
  | ---------------------------
  | Total energy                  :        -323.47712785 Ha       -8802.26050296 eV
  | Total energy, T -> 0          :        -323.47712785 Ha       -8802.26050296 eV  <-- do not rely on this value for anything but (periodic) metals
  | Electronic free energy        :        -323.47712785 Ha       -8802.26050296 eV

  Derived energy quantities:
  | Kinetic energy                :         322.82784422 Ha        8784.59259632 eV
  | Electrostatic energy          :        -603.63594284 Ha      -16425.76973861 eV
  | Energy correction for multipole
  | error in Hartree potential    :           0.04106022 Ha           1.11730537 eV
  | Sum of eigenvalues per atom                           :        -377.70163579 eV
  | Total energy (T->0) per atom                          :        -677.09696177 eV  <-- do not rely on this value for anything but (periodic) metals
  | Electronic free energy per atom                       :        -677.09696177 eV

  Self-consistency convergence accuracy:
  | Change of charge density      :  0.6959E-01
  | Change of sum of eigenvalues  :  0.3685E+01 eV
  | Change of total energy        :  0.3041E-01 eV

  End self-consistency iteration #     4       :  max(cpu_time)    wall_clock(cpu1)
  | Time for this iteration                    :        0.083 s           0.078 s
  | Charge density update                      :        0.028 s           0.023 s
  | Density mixing                             :        0.001 s           0.001 s
  | Hartree multipole update                   :        0.001 s           0.001 s
  | Hartree multipole summation                :        0.022 s           0.022 s
  | Integration                                :        0.027 s           0.027 s
  | Solution of K.-S. eqns.                    :        0.004 s           0.004 s
  | Total energy evaluation                    :        0.000 s           0.000 s

  Partial memory accounting:
  | Current value for overall tracked memory usage on task 0  :           0.134 MB
  | Peak value for overall tracked memory usage on task 0     :           0.888 MB after allocating gradient_basis_wave
  | Largest tracked array allocation on task 0 so far         :           0.565 MB  when allocating gradient_basis_wave
  Note:  These values currently only include a subset of arrays which are explicitly tracked.
  The "true" memory usage will be greater.
------------------------------------------------------------

------------------------------------------------------------
          Begin self-consistency iteration #    5

  Date     :  20200505, Time     :  093443.162
------------------------------------------------------------
  Evaluating new KS density.
  Integration grid: deviation in total charge (<rho> - N_e) =  -7.105427E-15
  Pulay mixing of updated and previous charge densities.

  Evaluating partitioned Hartree potential by multipole expansion.
  | Analytical far-field extrapolation by fixed multipoles:
  | Hartree multipole sum: apparent total charge =  -0.371058E-03
  Summing up the Hartree potential.
  Time summed over all CPUs for potential: real work        0.411 s, elapsed        0.424 s
  | RMS charge density error from multipole expansion :   0.252724E-01

  Integrating Hamiltonian matrix: batch-based integration.
  Time summed over all CPUs for integration: real work        0.506 s, elapsed        0.532 s

  Updating Kohn-Sham eigenvalues and eigenvectors using ELSI and the ELPA eigensolver.
  ELPA settings:
  | ELPA solver          1
  Finished transformation to standard eigenproblem
  | Time :     0.000 s
  Starting ELPA eigensolver
  | Time full => tridiagonal    :     0.002 s
  | Time solve tridiagonal      :     0.000 s
  | Time ev tridiagonal => full :     0.000 s
  Finished solving standard eigenproblem
  | Time :     0.003 s
  Finished back-transformation of eigenvectors
  | Time :     0.000 s

  Obtaining occupation numbers and chemical potential using ELSI.
  | Chemical potential (Fermi level):    -5.39139926eV
  Highest occupied state (VBM) at     -5.55123574 eV
  | Occupation number:      2.00000000

  Lowest unoccupied state (CBM) at    -1.65061653 eV
  | Occupation number:      0.00000000

  Overall HOMO-LUMO gap:      3.90061921 eV.

  Total energy components:
  | Sum of eigenvalues            :        -180.65548504 Ha       -4915.88586546 eV
  | XC energy correction          :         -42.64325859 Ha       -1160.38210585 eV
  | XC potential correction       :          54.82478246 Ha        1491.85823575 eV
  | Free-atom electrostatic energy:        -146.85841291 Ha       -3996.22074062 eV
  | Hartree energy correction     :          -8.14447116 Ha        -221.62233638 eV
  | vdW energy correction         :           0.00000000 Ha           0.00000000 eV
  | Entropy correction            :          -0.00000000 Ha          -0.00000000 eV
  | ---------------------------
  | Total energy                  :        -323.47684524 Ha       -8802.25281256 eV
  | Total energy, T -> 0          :        -323.47684524 Ha       -8802.25281256 eV  <-- do not rely on this value for anything but (periodic) metals
  | Electronic free energy        :        -323.47684524 Ha       -8802.25281256 eV

  Derived energy quantities:
  | Kinetic energy                :         322.69933960 Ha        8781.09580774 eV
  | Electrostatic energy          :        -603.53292624 Ha      -16422.96651445 eV
  | Energy correction for multipole
  | error in Hartree potential    :           0.04043683 Ha           1.10034200 eV
  | Sum of eigenvalues per atom                           :        -378.14506657 eV
  | Total energy (T->0) per atom                          :        -677.09637020 eV  <-- do not rely on this value for anything but (periodic) metals
  | Electronic free energy per atom                       :        -677.09637020 eV

  Self-consistency convergence accuracy:
  | Change of charge density      :  0.2038E-01
  | Change of sum of eigenvalues  : -0.5765E+01 eV
  | Change of total energy        :  0.7690E-02 eV

  End self-consistency iteration #     5       :  max(cpu_time)    wall_clock(cpu1)
  | Time for this iteration                    :        0.081 s           0.078 s
  | Charge density update                      :        0.026 s           0.022 s
  | Density mixing                             :        0.001 s           0.001 s
  | Hartree multipole update                   :        0.001 s           0.002 s
  | Hartree multipole summation                :        0.022 s           0.021 s
  | Integration                                :        0.027 s           0.027 s
  | Solution of K.-S. eqns.                    :        0.004 s           0.004 s
  | Total energy evaluation                    :        0.000 s           0.001 s

  Partial memory accounting:
  | Current value for overall tracked memory usage on task 0  :           0.134 MB
  | Peak value for overall tracked memory usage on task 0     :           0.888 MB after allocating gradient_basis_wave
  | Largest tracked array allocation on task 0 so far         :           0.565 MB  when allocating gradient_basis_wave
  Note:  These values currently only include a subset of arrays which are explicitly tracked.
  The "true" memory usage will be greater.
------------------------------------------------------------

------------------------------------------------------------
          Begin self-consistency iteration #    6

  Date     :  20200505, Time     :  093443.245
------------------------------------------------------------
  Evaluating new KS density.
  Integration grid: deviation in total charge (<rho> - N_e) =   7.105427E-15
  Pulay mixing of updated and previous charge densities.

[...]
  |   Hirshfeld dipole moment :      0.05744967
  |   Hirshfeld second moments:      0.01710697      -0.03102080      -0.01911435
  |                                 -0.03102080      -0.02360391       0.00815693
  |                                 -0.01911435       0.00815693      -0.01675514
  ----------------------------------------------------------------------
  | Atom    12: O
  |   Hirshfeld charge        :     -0.16645151
  |   Free atom volume        :     23.61338643
  |   Hirshfeld volume        :     20.83336801
  |   Hirshfeld dipole vector :      0.00575466       0.04018771       0.01266063
  |   Hirshfeld dipole moment :      0.04252599
  |   Hirshfeld second moments:      0.11414566      -0.00156948      -0.01024969
  |                                 -0.00156948       0.02732325       0.01115859
  |                                 -0.01024969       0.01115859       0.03203623
  ----------------------------------------------------------------------
  | Atom    13: H
  |   Hirshfeld charge        :      0.18666249
  |   Free atom volume        :      9.95071624
  |   Hirshfeld volume        :      6.03477176
  |   Hirshfeld dipole vector :     -0.12155570       0.03627182       0.02647775
  |   Hirshfeld dipole moment :      0.12958590
  |   Hirshfeld second moments:      0.12591894       0.00426960      -0.00196333
  |                                  0.00426960       0.11482494       0.00514151
  |                                 -0.00196333       0.00514151       0.11452788
  ----------------------------------------------------------------------


  Total energy components:
  | Sum of eigenvalues            :        -180.63407433 Ha       -4915.30325050 eV
  | XC energy correction          :         -42.64212643 Ha       -1160.35129815 eV
  | XC potential correction       :          54.82338779 Ha        1491.82028481 eV
  | Free-atom electrostatic energy:        -146.85841291 Ha       -3996.22074062 eV
  | Hartree energy correction     :          -8.16555406 Ha        -222.19603123 eV
  | vdW energy correction         :          -0.00341072 Ha          -0.09281045 eV
  | Entropy correction            :          -0.00000000 Ha          -0.00000000 eV
  | ---------------------------
  | Total energy                  :        -323.48019066 Ha       -8802.34384614 eV
  | Total energy, T -> 0          :        -323.48019066 Ha       -8802.34384614 eV  <-- do not rely on this value for anything but (periodic) metals
  | Electronic free energy        :        -323.48019066 Ha       -8802.34384614 eV

  Derived energy quantities:
  | Kinetic energy                :         322.59646403 Ha        8778.29642101 eV
  | Electrostatic energy          :        -603.43111754 Ha      -16420.19615855 eV
  | Energy correction for multipole
  | error in Hartree potential    :           0.04092259 Ha           1.11356028 eV
  | Sum of eigenvalues per atom                           :        -378.10025004 eV
  | Total energy (T->0) per atom                          :        -677.10337278 eV  <-- do not rely on this value for anything but (periodic) metals
  | Electronic free energy per atom                       :        -677.10337278 eV

  atomic forces [eV/Ang]:
  -----------------------
  atom #    1
   Hellmann-Feynman              :  0.369765E+00 -0.591513E+00  0.883273E+00
   Ionic forces                  :  0.000000E+00  0.000000E+00  0.000000E+00
   Multipole                     : -0.969274E-01  0.296173E+00 -0.253939E+00
   Pulay + GGA                   : -0.849922E+00  0.320521E+00 -0.137635E+01
   Van der Waals                 :  0.659413E-02  0.498560E-02 -0.224445E-02
   ----------------------------------------------------------------
   Total forces(   1)            : -0.570491E+00  0.301659E-01 -0.749264E+00
  atom #    2
   Hellmann-Feynman              :  0.343558E+00  0.505432E-02 -0.133248E-01
   Ionic forces                  :  0.000000E+00  0.000000E+00  0.000000E+00
   Multipole                     :  0.174991E+00  0.435456E-01 -0.319878E-01
   Pulay + GGA                   : -0.160080E+00  0.336951E-01 -0.328554E-03
   Van der Waals                 :  0.501975E-02 -0.216058E-02 -0.513713E-02
   ----------------------------------------------------------------
   Total forces(   2)            :  0.363488E+00  0.801344E-01 -0.507783E-01
  atom #    3
   Hellmann-Feynman              :  0.704661E+01  0.758900E+01 -0.488647E+01
   Ionic forces                  :  0.000000E+00  0.000000E+00  0.000000E+00
   Multipole                     : -0.146629E+00  0.136924E+00 -0.102932E+01
   Pulay + GGA                   : -0.601850E+01 -0.722477E+01  0.657062E+01
   Van der Waals                 :  0.543693E-02 -0.311032E-02 -0.103511E-01
   ----------------------------------------------------------------
   Total forces(   3)            :  0.886910E+00  0.498037E+00  0.644480E+00
  atom #    4
   Hellmann-Feynman              : -0.230734E+00 -0.456981E-01 -0.996997E-01
   Ionic forces                  :  0.000000E+00  0.000000E+00  0.000000E+00
   Multipole                     : -0.393720E-01 -0.772373E-01 -0.723627E-01
   Pulay + GGA                   :  0.541228E-02  0.219774E+00  0.676533E-01
   Van der Waals                 : -0.277300E-02  0.351502E-02 -0.170124E-02
   ----------------------------------------------------------------
   Total forces(   4)            : -0.267467E+00  0.100353E+00 -0.106110E+00
  atom #    5
   Hellmann-Feynman              : -0.348878E+00 -0.198522E+00 -0.494171E-01
   Ionic forces                  :  0.000000E+00  0.000000E+00  0.000000E+00
   Multipole                     : -0.951594E-01  0.512684E-02 -0.452493E-01
   Pulay + GGA                   :  0.240079E+00  0.180121E-01 -0.650847E-01
   Van der Waals                 : -0.143069E-02  0.392016E-02 -0.105601E-01
   ----------------------------------------------------------------
   Total forces(   5)            : -0.205389E+00 -0.171463E+00 -0.170311E+00
  atom #    6
   Hellmann-Feynman              :  0.348724E+00 -0.311576E+00  0.201368E+00
   Ionic forces                  :  0.000000E+00  0.000000E+00  0.000000E+00
   Multipole                     : -0.159634E+00  0.609412E+00  0.258532E+00
   Pulay + GGA                   :  0.120901E+00 -0.695271E+00 -0.461209E+00
   Van der Waals                 : -0.317700E-02  0.241614E-02 -0.317040E-02
   ----------------------------------------------------------------
   Total forces(   6)            :  0.306815E+00 -0.395019E+00 -0.448048E-02
  atom #    7
   Hellmann-Feynman              : -0.277370E+00 -0.528427E-01 -0.430671E-01
   Ionic forces                  :  0.000000E+00  0.000000E+00  0.000000E+00
   Multipole                     : -0.117468E+00  0.494188E-01  0.377870E-01
   Pulay + GGA                   :  0.105384E+00  0.413744E-01  0.294015E-01
   Van der Waals                 : -0.271415E-02  0.205379E-02  0.812601E-02
   ----------------------------------------------------------------
   Total forces(   7)            : -0.292169E+00  0.400042E-01  0.322475E-01
  atom #    8
   Hellmann-Feynman              :  0.407395E-01 -0.625545E-01  0.127500E+00
   Ionic forces                  :  0.000000E+00  0.000000E+00  0.000000E+00
   Multipole                     :  0.137938E-01  0.677600E-01  0.129178E+00
   Pulay + GGA                   : -0.396161E-01 -0.414086E-01 -0.106712E+00
   Van der Waals                 : -0.325999E-02  0.110979E-01  0.105843E-02
   ----------------------------------------------------------------
   Total forces(   8)            :  0.116572E-01 -0.251052E-01  0.151025E+00
  atom #    9
   Hellmann-Feynman              :  0.717656E-01  0.546958E-01 -0.174276E+00
   Ionic forces                  :  0.000000E+00  0.000000E+00  0.000000E+00
   Multipole                     :  0.226864E-01  0.130481E+00 -0.913347E-02
   Pulay + GGA                   : -0.390506E-01 -0.114793E+00  0.260947E-01
   Van der Waals                 : -0.258687E-02  0.344579E-02  0.425438E-02
   ----------------------------------------------------------------
   Total forces(   9)            :  0.528145E-01  0.738290E-01 -0.153061E+00
  atom #   10
   Hellmann-Feynman              :  0.332469E+01  0.591119E+01  0.242898E+01
   Ionic forces                  :  0.000000E+00  0.000000E+00  0.000000E+00
   Multipole                     :  0.122620E+00 -0.505132E-01  0.244188E+00
   Pulay + GGA                   : -0.107833E+01 -0.377573E+01 -0.525126E+00
   Van der Waals                 :  0.544184E-02 -0.171278E-01  0.786212E-02
   ----------------------------------------------------------------
   Total forces(  10)            :  0.237443E+01  0.206782E+01  0.215590E+01
  atom #   11
   Hellmann-Feynman              :  0.387577E+01 -0.223877E+01  0.137347E+02
   Ionic forces                  :  0.000000E+00  0.000000E+00  0.000000E+00
   Multipole                     :  0.885502E-01 -0.641632E+00  0.794284E+00
   Pulay + GGA                   : -0.311781E+01  0.348969E+01 -0.134828E+02
   Van der Waals                 : -0.121291E-02 -0.116622E-01  0.263972E-02
   ----------------------------------------------------------------
   Total forces(  11)            :  0.845298E+00  0.597621E+00  0.104886E+01
  atom #   12
   Hellmann-Feynman              :  0.185852E+01 -0.118311E+02 -0.104564E+02
   Ionic forces                  :  0.000000E+00  0.000000E+00  0.000000E+00
   Multipole                     : -0.670194E+00 -0.145146E+01 -0.443783E+00
   Pulay + GGA                   : -0.383449E+01  0.111414E+02  0.860425E+01
   Van der Waals                 :  0.110435E-03  0.125345E-02  0.801081E-02
   ----------------------------------------------------------------
   Total forces(  12)            : -0.264606E+01 -0.213993E+01 -0.228791E+01
  atom #   13
   Hellmann-Feynman              : -0.116902E+01 -0.568532E+00 -0.431088E+00
   Ionic forces                  :  0.000000E+00  0.000000E+00  0.000000E+00
   Multipole                     : -0.548481E-01  0.890278E-02  0.838210E-02
   Pulay + GGA                   :  0.363390E+00 -0.198136E+00 -0.906634E-01
   Van der Waals                 : -0.544847E-02  0.137310E-02  0.121302E-02
   ----------------------------------------------------------------
   Total forces(  13)            : -0.865926E+00 -0.756392E+00 -0.512156E+00

  Timings for VdW correction (Tkatchenko-Scheffler 2009 or later):
  | CPU time:        0.010 s, Wall clock time:        0.007 s.
  Removing unitary transformations (pure translations, rotations) from forces on atoms.
  Atomic forces before filtering:
  | Net force on center of mass :  -0.608985E-02  0.543489E-04 -0.155537E-02 eV/A
  | Net torque on center of mass:  -0.651490E-02  0.353324E-02 -0.621065E-02 eV
  Atomic forces after filtering:
  | Net force on center of mass :   0.000000E+00  0.267609E-15 -0.356812E-15 eV/A
  | Net torque on center of mass:  -0.778870E-15  0.141613E-14 -0.169935E-14 eV

  Energy and forces in a compact form:
  | Total energy uncorrected      :         -0.880234384613855E+04 eV
  | Total energy corrected        :         -0.880234384613855E+04 eV  <-- do not rely on this value for anything but (periodic) metals
  | Electronic free energy        :         -0.880234384613855E+04 eV
  Total atomic forces (unitary forces cleaned) [eV/Ang]:
  |   1         -0.570029109084242E+00          0.303010026375415E-01         -0.749058885725187E+00
  |   2          0.363950000963547E+00          0.804972584373157E-01         -0.504428108757550E-01
  |   3          0.887540940122189E+00          0.498315846277762E+00          0.644627827906976E+00
  |   4         -0.266594830836538E+00          0.100715106743731E+00         -0.106115259047638E+00
  |   5         -0.204818265786247E+00         -0.171384809574211E+00         -0.170229011774600E+00
  |   6          0.306926672829262E+00         -0.395112820350590E+00         -0.411702207014231E-02
  |   7         -0.292064409342097E+00          0.396801544986970E-01          0.324852233705220E-01
  |   8          0.116433936691026E-01         -0.253014762619749E-01          0.151433978963623E+00
  |   9          0.527994852453373E-01          0.738976281525279E-01         -0.152498893540733E+00
  |  10          0.237506815985994E+01          0.206774807254076E+01          0.215583736094560E+01
  |  11          0.845861152548371E+00          0.597410180120475E+00          0.104878060932404E+01
  |  12         -0.264515896556378E+01         -0.214004098713980E+01         -0.228820213411214E+01
  |  13         -0.865124224624849E+00         -0.756725156082237E+00         -0.512500983364557E+00

  ------------------------------------ 
  Start decomposition of the XC Energy 
  ------------------------------------ 
  X and C from original XC functional choice 
  Hartree-Fock Energy :          0.000000000 Ha              0.000000000 eV
  X Energy            :        -41.041076636 Ha          -1116.784516644 eV
  C Energy            :         -1.601049792 Ha            -43.566781506 eV
  Total XC Energy     :        -42.642126429 Ha          -1160.351298150 eV
  ------------------------------------ 
  LDA X and C from self-consistent density 
  X Energy LDA        :        -37.260241056 Ha          -1013.902745924 eV
  C Energy LDA        :         -3.138843162 Ha            -85.412268165 eV
  ------------------------------------ 
  End decomposition of the XC Energy 
  ------------------------------------ 

------------------------------------------------------------

------------------------------------------------------------------------------
  Final output of selected total energy values:

  The following output summarizes some interesting total energy values
  at the end of a run (AFTER all relaxation, molecular dynamics, etc.).

  | Total energy of the DFT / Hartree-Fock s.c.f. calculation      :          -8802.343846139 eV
  | Final zero-broadening corrected energy (caution - metals only) :          -8802.343846139 eV
  | For reference only, the value of 1 Hartree used in FHI-aims is :             27.211384500 eV

  Before relying on these values, please be sure to understand exactly which
  total energy value is referred to by a given number. Different objects may
  all carry the same name 'total energy'. Definitions:

  Total energy of the DFT / Hartree-Fock s.c.f. calculation:
  | Note that this energy does not include ANY quantities calculated after the
  | s.c.f. cycle, in particular not ANY RPA, MP2, etc. many-body perturbation terms.

  Final zero-broadening corrected energy:
  | For metallic systems only, a broadening of the occupation numbers at the Fermi
  | level can be extrapolated back to zero broadening by an electron-gas inspired
  | formula. For all systems that are not real metals, this value can be
  | meaningless and should be avoided.

------------------------------------------------------------------------------
  Methods described in the following list of references were used in this FHI-aims run.
  If you publish the results, please make sure to cite these reference if they apply.
  FHI-aims is an academic code, and for our developers (often, Ph.D. students
  and postdocs), scientific credit in the community is essential.
  Thank you for helping us!

  For any use of FHI-aims, please cite:

    Volker Blum, Ralf Gehrke, Felix Hanke, Paula Havu, Ville Havu,
    Xinguo Ren, Karsten Reuter, and Matthias Scheffler
    'Ab initio molecular simulations with numeric atom-centered orbitals'
    Computer Physics Communications 180, 2175-2196 (2009)
    http://dx.doi.org/10.1016/j.cpc.2009.06.022


  The scalable eigensolver library ELPA was used in your run.
  ELPA is essential especially for large systems on hundreds or thousands of CPUs.
  For ELPA, please cite:

    Andreas Marek, Volker Blum, Rainer Johanni, Ville Havu, Bruno Lang,
    Thomas Auckenthaler, Alexander Heinecke, Hans-Joachim Bungartz, and Hermann Lederer,
    'The ELPA Library - Scalable Parallel Eigenvalue Solutions
    for Electronic Structure Theory and Computational Science'
    The Journal of Physics: Condensed Matter 26, 213201 (2014).
    http://dx.doi.org/10.1088/0953-8984/26/21/213201


  The ELSI infrastructure was used in your run to solve the Kohn-Sham electronic structure.
  Please check out http://elsi-interchange.org to learn more.
  If scalability is important for your project, please acknowledge ELSI by citing:

    V. W-z. Yu, F. Corsetti, A. Garcia, W. P. Huhn, M. Jacquelin, W. Jia,
    B. Lange, L. Lin, J. Lu, W. Mi, A. Seifitokaldani, A. Vazquez-Mayagoitia,
    C. Yang, H. Yang, and V. Blum
    'ELSI: A unified software interface for Kohn-Sham electronic structure solvers'
    Computer Physics Communications 222, 267-285 (2018).
    http://dx.doi.org/10.1016/j.cpc.2017.09.007


  For the real-space grid partitioning and parallelization used in this calculation, please cite:

    Ville Havu, Volker Blum, Paula Havu, and Matthias Scheffler,
    'Efficient O(N) integration for all-electron electronic structure calculation'
    'using numerically tabulated basis functions'
    Journal of Computational Physics 228, 8367-8379 (2009).
    http://dx.doi.org/10.1016/j.jcp.2009.08.008

  Of course, there are many other important community references, e.g., those cited in the
  above references. Our list is limited to references that describe implementations in the
  FHI-aims code. The reason is purely practical (length of this list) - please credit others as well.

------------------------------------------------------------
          Leaving FHI-aims.
          Date     :  20200505, Time     :  093444.343

          Computational steps:
          | Number of self-consistency cycles          :           16
          | Number of SCF (re)initializations          :            1

          Detailed time accounting                     :  max(cpu_time)    wall_clock(cpu1)
          | Total time                                 :        1.749 s           1.824 s
          | Preparation time                           :        0.163 s           0.163 s
          | Boundary condition initalization           :        0.000 s           0.000 s
          | Grid partitioning                          :        0.022 s           0.022 s
          | Preloading free-atom quantities on grid    :        0.002 s           0.003 s
          | Free-atom superposition energy             :        0.005 s           0.004 s
          | Total time for integrations                :        0.474 s           0.475 s
          | Total time for solution of K.-S. equations :        0.075 s           0.077 s
          | Total time for density & force components  :        0.475 s           0.396 s
          | Total time for mixing                      :        0.019 s           0.019 s
          | Total time for Hartree multipole update    :        0.021 s           0.021 s
          | Total time for Hartree multipole sum       :        0.432 s           0.428 s
          | Total time for total energy evaluation     :        0.003 s           0.004 s
          | Total time for vdW correction              :        0.010 s           0.007 s

          Partial memory accounting:
          | Residual value for overall tracked memory usage across tasks :           0.000 MB (should be 0.000 MB)
          | Peak values for overall tracked memory usage (after allocating hessian_basis_wave):
          |   Minimum:        2.163 MB (on task 17)
          |   Maximum:        2.207 MB (on task  1)
          |   Average:        2.185 MB
          | Largest tracked array allocation (hessian_basis_wave):
          |   Minimum:        1.112 MB (on task  9)
          |   Maximum:        1.131 MB (on task  1)
          |   Average:        1.122 MB
          Note:  These values currently only include a subset of arrays which are explicitly tracked.
          The "true" memory usage will be greater.

          Have a nice day.
------------------------------------------------------------
