  MPI-parallelism will be employed.
------------------------------------------------------------
          Invoking FHI-aims ...
          Version 171221_1
          Compiled on 2019/09/09 at 14:39:39 on host puhti-login2.bullx.

          When using FHI-aims, please cite the following reference:

          Volker Blum, Ralf Gehrke, Felix Hanke, Paula Havu,
          Ville Havu, Xinguo Ren, Karsten Reuter, and Matthias Scheffler,
          'Ab Initio Molecular Simulations with Numeric Atom-Centered Orbitals',
          Computer Physics Communications 180, 2175-2196 (2009)

          For any questions about FHI-aims, please visit the aimsclub website
          with its forums and wiki. Contributions to both the forums and the
          wiki are warmly encouraged - they are for you, and everyone is welcome there.

------------------------------------------------------------



  Date     :  20200902, Time     :  105407.558
  Time zero on CPU 1             :   0.119110000000000E-01  s.
  Internal wall clock time zero  :           368276047.558  s.

  FHI-aims created a unique identifier for this run for later identification
  aims_uuid : 1C3A6C7C-C211-4D1D-A9A8-512A0B1663A8

  Using        1 parallel tasks.
  Task        0 on host r18c47.bullx reporting.

  Performing system and environment tests:
  | Environment variable OMP_NUM_THREADS correctly set to 1.
  | Stacksize not measured: no C compiler
  | Checking for scalapack...
  | Testing pdtran()...
  | All pdtran() tests passed.

  Obtaining array dimensions for all initial allocations:
  
  -----------------------------------------------------------------------
  Parsing control.in (first pass over file, find array dimensions only).
  The contents of control.in will be repeated verbatim below
  unless switched off by setting 'verbatim_writeout .false.' .
  in the first line of control.in .
  -----------------------------------------------------------------------
  
  #########################################################################################
  #
  #  Volker Blum, FHI 2009 : Test run input file control.in for simple H2O
  #
  #########################################################################################
  #
  #  Physical model
  #
    xc                 pbe
    vdw_correction_hirshfeld
    spin               none
    relativistic       none
    charge             0.
  #
  #  SCF convergence
  #
    occupation_type    gaussian 0.01
    mixer              pulay
      n_max_pulay        10
      charge_mix_param   0.2
    sc_accuracy_rho    1E-5
    sc_accuracy_eev    1E-3
    sc_accuracy_etot   1E-6
    sc_accuracy_forces 1E-4
    sc_iter_limit      100
  #
  #  Relaxation
  #
  #  relax_geometry   bfgs 1.e-3
  #
  ################################################################################
  #
  #  FHI-aims code project
  #  VB, Fritz-Haber Institut, 2009
  #
  #  Suggested "light" defaults for H atom (to be pasted into control.in file)
  #  Be sure to double-check any results obtained with these settings for post-processing,
  #  e.g., with the "tight" defaults and larger basis sets.
  #
  ################################################################################
    species        H
  #     global species definitions
      nucleus             1
      mass                1.00794
  #
      l_hartree           4
  #
      cut_pot             3.5  1.5  1.0
      basis_dep_cutoff    1e-4
  #
      radial_base         24 5.0
      radial_multiplier   1
      angular_grids       specified
        division   0.2421   50
        division   0.3822  110
        division   0.4799  194
        division   0.5341  302
  #      division   0.5626  434
  #      division   0.5922  590
  #      division   0.6542  770
  #      division   0.6868 1202
  #      outer_grid  770
        outer_grid  302
  ################################################################################
  #
  #  Definition of "minimal" basis
  #
  ################################################################################
  #     valence basis states
      valence      1  s   1.
  #     ion occupancy
      ion_occ      1  s   0.5
  ################################################################################
  #
  #  Suggested additional basis functions. For production calculations,
  #  uncomment them one after another (the most important basis functions are
  #  listed first).
  #
  #  Basis constructed for dimers: 0.5 A, 0.7 A, 1.0 A, 1.5 A, 2.5 A
  #
  ################################################################################
  #  "First tier" - improvements: -1014.90 meV to -62.69 meV
       hydro 2 s 2.1
       hydro 2 p 3.5
  #  "Second tier" - improvements: -12.89 meV to -1.83 meV
  #     hydro 1 s 0.85
  #     hydro 2 p 3.7
  #     hydro 2 s 1.2
  #     hydro 3 d 7
  #  "Third tier" - improvements: -0.25 meV to -0.12 meV
  #     hydro 4 f 11.2
  #     hydro 3 p 4.8
  #     hydro 4 d 9
  #     hydro 3 s 3.2
  ################################################################################
  #
  #  FHI-aims code project
  #  VB, Fritz-Haber Institut, 2009
  #
  #  Suggested "light" defaults for C atom (to be pasted into control.in file)
  #  Be sure to double-check any results obtained with these settings for post-processing,
  #  e.g., with the "tight" defaults and larger basis sets.
  #
  ################################################################################
    species        C
  #     global species definitions
      nucleus             6
      mass                12.0107
  #
      l_hartree           4
  #
      cut_pot             3.5  1.5  1.0
      basis_dep_cutoff    1e-4
  #
      radial_base         34 5.0
      radial_multiplier   1
      angular_grids specified
        division   0.3326   50
        division   0.5710  110
        division   0.7727  194
        division   0.8772  302
  #      division   0.9334  434
  #      division   0.9625  590
  #      division   0.9924  770
  #      division   1.0230  974
  #      division   1.4589 1202
  #     outer_grid  974
       outer_grid 302
  ################################################################################
  #
  #  Definition of "minimal" basis
  #
  ################################################################################
  #     valence basis states
      valence      2  s   2.
      valence      2  p   2.
  #     ion occupancy
      ion_occ      2  s   1.
      ion_occ      2  p   1.
  ################################################################################
  #
  #  Suggested additional basis functions. For production calculations,
  #  uncomment them one after another (the most important basis functions are
  #  listed first).
  #
  #  Constructed for dimers: 1.0 A, 1.25 A, 1.5 A, 2.0 A, 3.0 A
  #
  ################################################################################
  #  "First tier" - improvements: -1214.57 meV to -155.61 meV
       hydro 2 p 1.7
       hydro 3 d 6
       hydro 2 s 4.9
  #  "Second tier" - improvements: -67.75 meV to -5.23 meV
  #     hydro 4 f 9.8
  #     hydro 3 p 5.2
  #     hydro 3 s 4.3
  #     hydro 5 g 14.4
  #     hydro 3 d 6.2
  #  "Third tier" - improvements: -2.43 meV to -0.60 meV
  #     hydro 2 p 5.6
  #     hydro 2 s 1.4
  #     hydro 3 d 4.9
  #     hydro 4 f 11.2
  #  "Fourth tier" - improvements: -0.39 meV to -0.18 meV
  #     hydro 2 p 2.1
  #     hydro 5 g 16.4
  #     hydro 4 d 13.2
  #     hydro 3 s 13.6
  #     hydro 4 f 17.6
  #  Further basis functions - improvements: -0.08 meV and below
  #     hydro 3 s 2
  #     hydro 3 p 6
  #     hydro 4 d 20
  ################################################################################
  #
  #  FHI-aims code project
  #  VB, Fritz-Haber Institut, 2009
  #
  #  Suggested "light" defaults for N atom (to be pasted into control.in file)
  #  Be sure to double-check any results obtained with these settings for post-processing,
  #  e.g., with the "tight" defaults and larger basis sets.
  #
  ################################################################################
    species        N
  #     global species definitions
      nucleus             7
      mass                14.0067
  #
      l_hartree           4
  #
      cut_pot             3.5  1.5  1.0
      basis_dep_cutoff    1e-4
  #
      radial_base         35 5.0
      radial_multiplier   1
      angular_grids       specified
        division   0.2599   50
        division   0.4601  110
        division   0.5885  194
        division   0.6503  302
  #      division   0.6939  434
  #      division   0.7396  590
  #      division   0.7632  770
  #      division   0.8122  974
  #      division   1.1604 1202
  #      outer_grid  974
        outer_grid  302
  ################################################################################
  #
  #  Definition of "minimal" basis
  #
  ################################################################################
  #     valence basis states
      valence      2  s   2.
      valence      2  p   3.
  #     ion occupancy
      ion_occ      2  s   1.
      ion_occ      2  p   2.
  ################################################################################
  #
  #  Suggested additional basis functions. For production calculations,
  #  uncomment them one after another (the most important basis functions are
  #  listed first).
  #
  #  Constructed for dimers: 1.0 A, 1.1 A, 1.5 A, 2.0 A, 3.0 A
  #
  ################################################################################
  #  "First tier" - improvements: -1193.42 meV to -220.60 meV
       hydro 2 p 1.8
       hydro 3 d 6.8
       hydro 3 s 5.8
  #  "Second tier" - improvements: -80.21 meV to -6.86 meV
  #     hydro 4 f 10.8
  #     hydro 3 p 5.8
  #     hydro 1 s 0.8
  #     hydro 5 g 16
  #     hydro 3 d 4.9
  #  "Third tier" - improvements: -4.29 meV to -0.53 meV
  #     hydro 3 s 16
  #     ionic 2 p auto
  #     hydro 3 d 6.6
  #     hydro 4 f 11.6
  #  "Fourth tier" - improvements: -0.75 meV to -0.25 meV
  #     hydro 2 p 4.5
  #     hydro 2 s 2.4
  #     hydro 5 g 14.4
  #     hydro 4 d 14.4
  #     hydro 4 f 16.8
  # Further basis functions - -0.21 meV and below
  #     hydro 3 p 14.8
  #     hydro 3 s 4.4
  #     hydro 3 d 19.6
  #     hydro 5 g 12.8
  ################################################################################
  #
  #  FHI-aims code project
  #  VB, Fritz-Haber Institut, 2009
  #
  #  Suggested "light" defaults for O atom (to be pasted into control.in file)
  #  Be sure to double-check any results obtained with these settings for post-processing,
  #  e.g., with the "tight" defaults and larger basis sets.
  #
  ################################################################################
    species        O
  #     global species definitions
      nucleus             8
      mass                15.9994
  #
      l_hartree           4
  #
      cut_pot             3.5  1.5  1.0
      basis_dep_cutoff    1e-4
  #
      radial_base         36 5.0
      radial_multiplier   1
       angular_grids specified
        division   0.2659   50
        division   0.4451  110
        division   0.6052  194
        division   0.7543  302
  #      division   0.8014  434
  #      division   0.8507  590
  #      division   0.8762  770
  #      division   0.9023  974
  #      division   1.2339 1202
  #      outer_grid 974
        outer_grid 302
  ################################################################################
  #
  #  Definition of "minimal" basis
  #
  ################################################################################
  #     valence basis states
      valence      2  s   2.
      valence      2  p   4.
  #     ion occupancy
      ion_occ      2  s   1.
      ion_occ      2  p   3.
  ################################################################################
  #
  #  Suggested additional basis functions. For production calculations,
  #  uncomment them one after another (the most important basis functions are
  #  listed first).
  #
  #  Constructed for dimers: 1.0 A, 1.208 A, 1.5 A, 2.0 A, 3.0 A
  #
  ################################################################################
  #  "First tier" - improvements: -699.05 meV to -159.38 meV
       hydro 2 p 1.8
       hydro 3 d 7.6
       hydro 3 s 6.4
  #  "Second tier" - improvements: -49.91 meV to -5.39 meV
  #     hydro 4 f 11.6
  #     hydro 3 p 6.2
  #     hydro 3 d 5.6
  #     hydro 5 g 17.6
  #     hydro 1 s 0.75
  #  "Third tier" - improvements: -2.83 meV to -0.50 meV
  #     ionic 2 p auto
  #     hydro 4 f 10.8
  #     hydro 4 d 4.7
  #     hydro 2 s 6.8
  #  "Fourth tier" - improvements: -0.40 meV to -0.12 meV
  #     hydro 3 p 5
  #     hydro 3 s 3.3
  #     hydro 5 g 15.6
  #     hydro 4 f 17.6
  #     hydro 4 d 14
  # Further basis functions - -0.08 meV and below
  #     hydro 3 s 2.1
  #     hydro 4 d 11.6
  #     hydro 3 p 16
  #     hydro 2 s 17.2
  
  -----------------------------------------------------------------------
  Completed first pass over input file control.in .
  -----------------------------------------------------------------------
  
  
  -----------------------------------------------------------------------
  Parsing geometry.in (first pass over file, find array dimensions only).
  The contents of geometry.in will be repeated verbatim below
  unless switched off by setting 'verbatim_writeout .false.' .
  in the first line of geometry.in .
  -----------------------------------------------------------------------
  
  atom  0.00000 0.00000 0.00000 C
  atom  1.09300 0.00000 0.00000 H
  atom  -0.47961 0.00000 -1.41207 N
  atom  -1.16840 -0.74496 -1.52356 H
  atom  -0.90286 0.90355 -1.61351 H
  atom  -0.49584 1.26211 0.72868 C
  atom  -1.58789 1.28919 0.74431 H
  atom  -0.13407 1.27425 1.75947 H
  atom  -0.13407 2.16087 0.22380 H
  atom  -0.39425 -1.28861 0.74398 C
  atom  -0.10189 -1.56493 1.88303 O
  atom  -1.10210 -2.13717 0.06896 O
  atom  -1.81115 -2.27897 0.71867 H
  
  -----------------------------------------------------------------------
  Completed first pass over input file geometry.in .
  -----------------------------------------------------------------------
  

  Basic array size parameters:
  | Number of species                 :        4
  | Number of atoms                   :       13
  | Max. basis fn. angular momentum   :        2
  | Max. atomic/ionic basis occupied n:        2
  | Max. number of basis fn. types    :        2
  | Max. radial fns per species/type  :        3
  | Max. logarithmic grid size        :     1301
  | Max. radial integration grid size :       36
  | Max. angular integration grid size:      302
  | Max. angular grid division number :        8
  | Radial grid for Hartree potential :     1301
  | Number of spin channels           :        1

------------------------------------------------------------
          Reading file control.in.
------------------------------------------------------------
  XC: Using PBE gradient-corrected functionals.
  Spin treatment: No spin polarisation.
  Non-relativistic treatment of kinetic energy.
  Charge =   0.000000E+00: Neutral system requested explicitly.
  Occupation type: Gaussian broadening, width =   0.100000E-01 eV.
  Using pulay charge density mixing.
  Pulay mixing - number of memorized iterations:   10
  Charge density mixing - mixing parameter:     0.2000
  Convergence accuracy of self-consistent charge density:  0.1000E-04
  Convergence accuracy of sum of eigenvalues:  0.1000E-02
  Convergence accuracy of total energy:  0.1000E-05
  Convergence accuracy of forces:  0.1000E-03
  Maximum number of s.-c. iterations  :   100
 
  Reading configuration options for species H                   .
  | Found nuclear charge :   1.0000
  | Found atomic mass :    1.00794000000000      amu
  | Found l_max for Hartree potential  :   4
  | Found cutoff potl. onset [A], width [A], scale factor :    3.50000    1.50000    1.00000
  | Threshold for basis-dependent cutoff potential is   0.100000E-03
  | Found data for basic radial integration grid :    24 points, outermost radius =    5.000 A
  | Found multiplier for basic radial grid :   1
  | Found angular grid specification: user-specified.
  | Specified grid contains     5 separate shells.
  | Check grid settings after all constraints further below.
  | Found free-atom valence shell :  1 s   1.000
  | No ionic wave fns used. Skipping ion_occ.
  | Found hydrogenic basis function :  2 s   2.100
  | Found hydrogenic basis function :  2 p   3.500
  Species H                   : Missing cutoff potential type.
  Defaulting to exp(1/x)/(1-x)^2 type cutoff potential.
  Species H : No 'logarithmic' tag. Using default grid for free atom:
  | Default logarithmic grid data [bohr] : 0.1000E-03 0.1000E+03 0.1012E+01
  Species H : On-site basis accuracy parameter (for Gram-Schmidt orthonormalisation) not specified.
  Using default value basis_acc =  0.1000000E-03.
  Species H                   : Using default innermost maximum threshold i_radial=  2 for radial functions.
  Species H                   : Default cutoff onset for free atom density etc. : 0.35000000E+01 AA.
  Species H                   : Basic radial grid will be enhanced according to radial_multiplier =   1, to contain    24 grid points.
 
  Reading configuration options for species C                   .
  | Found nuclear charge :   6.0000
  | Found atomic mass :    12.0107000000000      amu
  | Found l_max for Hartree potential  :   4
  | Found cutoff potl. onset [A], width [A], scale factor :    3.50000    1.50000    1.00000
  | Threshold for basis-dependent cutoff potential is   0.100000E-03
  | Found data for basic radial integration grid :    34 points, outermost radius =    5.000 A
  | Found multiplier for basic radial grid :   1
  | Found angular grid specification: user-specified.
  | Specified grid contains     5 separate shells.
  | Check grid settings after all constraints further below.
  | Found free-atom valence shell :  2 s   2.000
  | Found free-atom valence shell :  2 p   2.000
  | No ionic wave fns used. Skipping ion_occ.
  | No ionic wave fns used. Skipping ion_occ.
  | Found hydrogenic basis function :  2 p   1.700
  | Found hydrogenic basis function :  3 d   6.000
  | Found hydrogenic basis function :  2 s   4.900
  Species C                   : Missing cutoff potential type.
  Defaulting to exp(1/x)/(1-x)^2 type cutoff potential.
  Species C : No 'logarithmic' tag. Using default grid for free atom:
  | Default logarithmic grid data [bohr] : 0.1000E-03 0.1000E+03 0.1012E+01
  Species C : On-site basis accuracy parameter (for Gram-Schmidt orthonormalisation) not specified.
  Using default value basis_acc =  0.1000000E-03.
  Species C                   : Using default innermost maximum threshold i_radial=  2 for radial functions.
  Species C                   : Default cutoff onset for free atom density etc. : 0.35000000E+01 AA.
  Species C                   : Basic radial grid will be enhanced according to radial_multiplier =   1, to contain    34 grid points.
 
  Reading configuration options for species N                   .
  | Found nuclear charge :   7.0000
  | Found atomic mass :    14.0067000000000      amu
  | Found l_max for Hartree potential  :   4
  | Found cutoff potl. onset [A], width [A], scale factor :    3.50000    1.50000    1.00000
  | Threshold for basis-dependent cutoff potential is   0.100000E-03
  | Found data for basic radial integration grid :    35 points, outermost radius =    5.000 A
  | Found multiplier for basic radial grid :   1
  | Found angular grid specification: user-specified.
  | Specified grid contains     5 separate shells.
  | Check grid settings after all constraints further below.
  | Found free-atom valence shell :  2 s   2.000
  | Found free-atom valence shell :  2 p   3.000
  | No ionic wave fns used. Skipping ion_occ.
  | No ionic wave fns used. Skipping ion_occ.
  | Found hydrogenic basis function :  2 p   1.800
  | Found hydrogenic basis function :  3 d   6.800
  | Found hydrogenic basis function :  3 s   5.800
  Species N                   : Missing cutoff potential type.
  Defaulting to exp(1/x)/(1-x)^2 type cutoff potential.
  Species N : No 'logarithmic' tag. Using default grid for free atom:
  | Default logarithmic grid data [bohr] : 0.1000E-03 0.1000E+03 0.1012E+01
  Species N : On-site basis accuracy parameter (for Gram-Schmidt orthonormalisation) not specified.
  Using default value basis_acc =  0.1000000E-03.
  Species N                   : Using default innermost maximum threshold i_radial=  2 for radial functions.
  Species N                   : Default cutoff onset for free atom density etc. : 0.35000000E+01 AA.
  Species N                   : Basic radial grid will be enhanced according to radial_multiplier =   1, to contain    35 grid points.
 
  Reading configuration options for species O                   .
  | Found nuclear charge :   8.0000
  | Found atomic mass :    15.9994000000000      amu
  | Found l_max for Hartree potential  :   4
  | Found cutoff potl. onset [A], width [A], scale factor :    3.50000    1.50000    1.00000
  | Threshold for basis-dependent cutoff potential is   0.100000E-03
  | Found data for basic radial integration grid :    36 points, outermost radius =    5.000 A
  | Found multiplier for basic radial grid :   1
  | Found angular grid specification: user-specified.
  | Specified grid contains     5 separate shells.
  | Check grid settings after all constraints further below.
  | Found free-atom valence shell :  2 s   2.000
  | Found free-atom valence shell :  2 p   4.000
  | No ionic wave fns used. Skipping ion_occ.
  | No ionic wave fns used. Skipping ion_occ.
  | Found hydrogenic basis function :  2 p   1.800
  | Found hydrogenic basis function :  3 d   7.600
  | Found hydrogenic basis function :  3 s   6.400
  Species O                   : Missing cutoff potential type.
  Defaulting to exp(1/x)/(1-x)^2 type cutoff potential.
  Species O : No 'logarithmic' tag. Using default grid for free atom:
  | Default logarithmic grid data [bohr] : 0.1000E-03 0.1000E+03 0.1012E+01
  Species O : On-site basis accuracy parameter (for Gram-Schmidt orthonormalisation) not specified.
  Using default value basis_acc =  0.1000000E-03.
  Species O                   : Using default innermost maximum threshold i_radial=  2 for radial functions.
  Species O                   : Default cutoff onset for free atom density etc. : 0.35000000E+01 AA.
  Species O                   : Basic radial grid will be enhanced according to radial_multiplier =   1, to contain    36 grid points.
 
  Finished reading input file 'control.in'. Consistency checks are next.
 
  MPI_IN_PLACE appears to work with this MPI implementation.
  | Keeping use_mpi_in_place .true. (see manual).
  Target number of points in a grid batch is not set. Defaulting to  100
  Method for grid partitioning is not set. Defaulting to parallel hash+maxmin partitioning.
  Batch size limit is not set. Defaulting to    200
  By default, will store active basis functions for each batch.
  If in need of memory, prune_basis_once .false. can be used to disable this option.
  communication_type for Hartree potential was not specified.
  Defaulting to calc_hartree .
  Pulay mixer: Number of initial linear mixing iterations not set.
  Defaulting to    0 iterations.
  Work space size for distributed Hartree potential not set.
  Defaulting to   0.200000E+03 MB.
  Algorithm-dependent basis array size parameters:
  | n_max_pulay                         :       10
  Presetting      1001 iterations before the initial mixing cycle
  is restarted anyway using the sc_init_iter criterion / keyword.
  Presetting a factor      1.000 between actual scf density residual
  and density convergence criterion sc_accuracy_rho below which sc_init_iter
  takes no effect.
  Geometry relaxation not requested: no relaxation will be performed.
  Handling of forces: Unphysical translation and rotation will be removed from forces.
  No accuracy limit for integral partition fn. given. Defaulting to  0.1000E-14.
  No threshold value for u(r) in integrations given. Defaulting to  0.1000E-05.
  No accuracy for occupation numbers given. Defaulting to  0.1000E-12.
  No threshold value for occupation numbers given. Defaulting to  0.0000E+00.
  No accuracy for fermi level given. Defaulting to  0.1000E-19.
  Maximum # of iterations to find E_F not set. Defaulting to  200.
  Preferred method for the eigenvalue solver ('KS_method') not specified in 'control.in'.
  Defaulting to serial version, 'lapack_fast'.
  Will not use alltoall communication since running on < 1024 CPUs.
  Threshold for basis singularities not set.
  Default threshold for basis singularities:  0.1000E-04
  partition_type (choice of integration weights) for integrals was not specified.
  | Using a version of the partition function of Stratmann and coworkers ('stratmann_smoother').
  | At each grid point, the set of atoms used to build the partition table is smoothly restricted to
  | only those atoms whose free-atom density would be non-zero at that grid point.
  Partitioning for Hartree potential was not defined. Using partition_type for integrals.
  | Adjusted default value of keyword multip_moments_threshold to:       0.10000000E-11
  | This value may affect high angular momentum components of the Hartree potential in periodic systems.
  No q(lm)/r^(l+1) cutoff set for long-range Hartree potential.
  | Using default value of  0.100000E-09 .
  | Verify using the multipole_threshold keyword.
  Defaulting to new monopole extrapolation.
  Density update method: automatic selection selected.
------------------------------------------------------------


------------------------------------------------------------
          Reading geometry description geometry.in.
------------------------------------------------------------
  Input structure read successfully.
  The structure contains       13 atoms,  and a total of         48.000 electrons.

  Input geometry:
  | No unit cell requested.
  | Atomic structure:
  |       Atom                x [A]            y [A]            z [A]
  |    1: Species C             0.00000000        0.00000000        0.00000000
  |    2: Species H             1.09300000        0.00000000        0.00000000
  |    3: Species N            -0.47961000        0.00000000       -1.41207000
  |    4: Species H            -1.16840000       -0.74496000       -1.52356000
  |    5: Species H            -0.90286000        0.90355000       -1.61351000
  |    6: Species C            -0.49584000        1.26211000        0.72868000
  |    7: Species H            -1.58789000        1.28919000        0.74431000
  |    8: Species H            -0.13407000        1.27425000        1.75947000
  |    9: Species H            -0.13407000        2.16087000        0.22380000
  |   10: Species C            -0.39425000       -1.28861000        0.74398000
  |   11: Species O            -0.10189000       -1.56493000        1.88303000
  |   12: Species O            -1.10210000       -2.13717000        0.06896000
  |   13: Species H            -1.81115000       -2.27897000        0.71867000
  |

  | The smallest distance between any two atoms is         0.97210196 AA.
  |
  | The first atom of this pair is atom number                     12 .
  | The second atom of this pair is atom number                    13 .

  Number of empty states per atom not set in control.in - providing a guess from actual geometry.
  | Total number of empty states used during s.c.f. cycle:       29
  If you use a very high smearing, use empty_states (per atom!) in control.in to increase this value.

  Structure-dependent array size parameters: 
  | Maximum number of distinct radial functions  :       21
  | Maximum number of basis functions            :      119
  | Number of Kohn-Sham states (occupied + empty):       53
------------------------------------------------------------

------------------------------------------------------------
          Preparing all fixed parts of the calculation.
------------------------------------------------------------
  Determining machine precision:
    2.225073858507201E-308
  Setting up grids for atomic and cluster calculations.

  Creating wave function, potential, and density for free atoms.

  Species: H

  List of occupied orbitals and eigenvalues:
    n    l              occ      energy [Ha]    energy [eV]
    1    0           1.0000        -0.237589        -6.4651


  Species: C

  List of occupied orbitals and eigenvalues:
    n    l              occ      energy [Ha]    energy [eV]
    1    0           2.0000       -10.038835      -273.1706
    2    0           2.0000        -0.502696       -13.6791
    2    1           2.0000        -0.191971        -5.2238


  Species: N

  List of occupied orbitals and eigenvalues:
    n    l              occ      energy [Ha]    energy [eV]
    1    0           2.0000       -14.128000      -384.4424
    2    0           2.0000        -0.681077       -18.5330
    2    1           3.0000        -0.259788        -7.0692


  Species: O

  List of occupied orbitals and eigenvalues:
    n    l              occ      energy [Ha]    energy [eV]
    1    0           2.0000       -18.898188      -514.2459
    2    0           2.0000        -0.878505       -23.9053
    2    1           4.0000        -0.331779        -9.0282

  Creating fixed part of basis set: Ionic, confined, hydrogenic.
 
  H                    hydrogenic:
 
  List of hydrogenic basis orbitals: 
    n    l      effective z      eigenvalue [eV]  inner max. [A]     outer max. [A]     outer radius [A]   
    2    0         2.100000       -14.9728           0.193243           1.317208           4.583499
    2    1         3.500000       -41.6669           0.602369           0.602369           3.723403
 
 
  C                    hydrogenic:
 
  List of hydrogenic basis orbitals: 
    n    l      effective z      eigenvalue [eV]  inner max. [A]     outer max. [A]     outer radius [A]   
    2    1         1.700000        -9.7616           1.230570           1.230570           4.607917
    3    2         6.000000       -54.4224           0.792453           0.792453           3.883070
    2    0         4.900000       -81.6679           0.082559           0.562749           3.078220
 
 
  N                    hydrogenic:
 
  List of hydrogenic basis orbitals: 
    n    l      effective z      eigenvalue [eV]  inner max. [A]     outer max. [A]     outer radius [A]   
    2    1         1.800000       -10.9749           1.177451           1.177451           4.573712
    3    2         6.800000       -69.9026           0.704619           0.704619           3.538137
    3    0         5.800000       -50.8545           0.067388           1.191934           4.250239
 
 
  O                    hydrogenic:
 
  List of hydrogenic basis orbitals: 
    n    l      effective z      eigenvalue [eV]  inner max. [A]     outer max. [A]     outer radius [A]   
    2    1         1.800000       -10.9749           1.164242           1.164242           4.578029
    3    2         7.600000       -87.3180           0.624125           0.624125           3.251020
    3    0         6.400000       -61.9207           0.061167           1.081902           4.001998
 

  Adding cutoff potential to free-atom effective potential.
  Creating atomic-like basis functions for current effective potential.

  Species H                   :

  List of atomic basis orbitals and eigenvalues:
    n    l      energy [Ha]    energy [eV]    outer radius [A]
    1    0        -0.237589        -6.4651       4.527807


  Species C                   :

  List of atomic basis orbitals and eigenvalues:
    n    l      energy [Ha]    energy [eV]    outer radius [A]
    1    0       -10.038835      -273.1706       1.934409
    2    0        -0.502696       -13.6791       4.496620
    2    1        -0.191971        -5.2238       4.551928


  Species N                   :

  List of atomic basis orbitals and eigenvalues:
    n    l      energy [Ha]    energy [eV]    outer radius [A]
    1    0       -14.128000      -384.4424       1.637919
    2    0        -0.681077       -18.5330       4.463241
    2    1        -0.259788        -7.0692       4.518138


  Species O                   :

  List of atomic basis orbitals and eigenvalues:
    n    l      energy [Ha]    energy [eV]    outer radius [A]
    1    0       -18.898188      -514.2459       1.415765
    2    0        -0.878505       -23.9053       4.413171
    2    1        -0.331779        -9.0282       4.522403

  Assembling full basis from fixed parts.
  | Species H :   atomic orbital   1 s accepted.
  | Species H :    hydro orbital   2 s accepted.
  | Species H :    hydro orbital   2 p accepted.
  | Species C :   atomic orbital   1 s accepted.
  | Species C :    hydro orbital   2 s accepted.
  | Species C :   atomic orbital   2 s accepted.
  | Species C :   atomic orbital   2 p accepted.
  | Species C :    hydro orbital   2 p accepted.
  | Species C :    hydro orbital   3 d accepted.
  | Species N :   atomic orbital   1 s accepted.
  | Species N :    hydro orbital   3 s accepted.
  | Species N :   atomic orbital   2 s accepted.
  | Species N :   atomic orbital   2 p accepted.
  | Species N :    hydro orbital   2 p accepted.
  | Species N :    hydro orbital   3 d accepted.
  | Species O :   atomic orbital   1 s accepted.
  | Species O :    hydro orbital   3 s accepted.
  | Species O :   atomic orbital   2 s accepted.
  | Species O :   atomic orbital   2 p accepted.
  | Species O :    hydro orbital   2 p accepted.
  | Species O :    hydro orbital   3 d accepted.
 
  Basis size parameters after reduction:
  | Total number of radial functions:       21
  | Total number of basis functions :      119
 
  Per-task memory consumption for arrays in subroutine allocate_ext:
  |           5.250512MB.
  Testing on-site integration grid accuracy.
  |  Species  Function  <phi|h_atom|phi> (log., in eV)  <phi|h_atom|phi> (rad., in eV)
           1        1                 -6.4663192853                 -6.4651273558
           1        2                 13.7111246313                 13.7170609718
           1        3                 25.2673269279                 25.2674696378
           2        4               -273.1705927641               -273.1705631568
           2        5                -10.7109323383                -10.7107120029
           2        6                 17.4381822266                 17.4352413244
           2        7                 -5.2255326521                 -5.2270484734
           2        8                  8.6835629259                  8.6603288385
           2        9                 27.4952418996                 27.4953360207
           3       10               -384.4424306495               -384.4423701208
           3       11                 12.5842251816                 12.5842222903
           3       12                -15.7264628251                -15.7264433455
           3       13                 -7.0696854293                 -7.0701769954
           3       14                  8.8090390882                  8.7901077751
           3       15                 35.9586762123                 35.9588528632
           4       16               -514.2458688638               -514.2457643834
           4       17                 15.1795651126                 15.1795290741
           4       18                -21.5359799773                -21.5360846186
           4       19                 -9.0283069236                 -9.0284644067
           4       20                  8.3027758564                  8.2834874195
           4       21                 45.8339351984                 45.8338762259

  Preparing densities etc. for the partition functions (integrals / Hartree potential).

  Preparations completed.
  max(cpu_time)          :      0.152 s.
  Wall clock time (cpu1) :      0.156 s.
------------------------------------------------------------

------------------------------------------------------------
          Begin self-consistency loop: Initialization.

          Date     :  20200902, Time     :  105407.729
------------------------------------------------------------

  Initializing index lists of integration centers etc. from given atomic structure:
  | Number of centers in hartree potential         :        13
  | Number of centers in hartree multipole         :        13
  | Number of centers in electron density summation:        13
  | Number of centers in basis integrals           :        13
  | Number of centers in integrals                 :        13
  | Number of centers in hamiltonian               :        13
  Partitioning the integration grid into batches with parallel hashing+maxmin method.
  | Number of batches:      958
  | Maximal batch size:     139
  | Minimal batch size:      66
  | Average batch size:      72.699
  | Standard deviation of batch sizes:      17.269

  Integration load balanced across     1 MPI tasks.
  Work distribution over tasks is as follows:
  Task     0 has      69646 integration points.
  Initializing partition tables, free-atom densities, potentials, etc. across the integration grid (initialize_grid_storage).
  | initialize_grid_storage: Actual outermost partition radius vs. multipole_radius_free
  | (-- VB: in principle, multipole_radius_free should be larger, hence this output)
  | Species        1: Confinement radius =              4.999999999999999 AA, multipole_radius_free =              5.054417573612229 AA.
  | Species        1: outer_partition_radius set to              5.054417573612229 AA .
  | Species        2: Confinement radius =              4.999999999999999 AA, multipole_radius_free =              5.019602836301480 AA.
  | Species        2: outer_partition_radius set to              5.019602836301480 AA .
  | Species        3: Confinement radius =              4.999999999999999 AA, multipole_radius_free =              5.043624274424571 AA.
  | Species        3: outer_partition_radius set to              5.043624274424571 AA .
  | Species        4: Confinement radius =              4.999999999999999 AA, multipole_radius_free =              5.048384829883283 AA.
  | Species        4: outer_partition_radius set to              5.048384829883283 AA .
  | Original list of interatomic distances with          13 x         13 entries is created.
  | Net number of integration points:    69646
  | of which are non-zero points    :    59512
  Renormalizing the initial density to the exact electron count on the 3D integration grid.
  | Initial density: Formal number of electrons (from input files) :      48.0000000000
  | Integrated number of electrons on 3D grid     :      47.9998919818
  | Charge integration error                      :      -0.0001080182
  | Normalization factor for density and gradient :       1.0000022504
  Obtaining max. number of non-zero basis functions in each batch (get_n_compute_maxes).
  | Maximal number of non-zero basis functions:      119 in task     0
  Selecting the method for density update.
  Loop over occupied states selected for charge density update.
  Allocating        0.050 MB for KS_eigenvector
  Integrating Hamiltonian matrix: batch-based integration.
  Time summed over all CPUs for integration: real work        0.505 s, elapsed        0.505 s
  Integrating overlap matrix.
  Time summed over all CPUs for integration: real work        0.214 s, elapsed        0.214 s

  Updating Kohn-Sham eigenvalues and eigenvectors using ELSI and the ELPA eigensolver.
  Overlap matrix is nonsingular
  | Lowest eigenvalue of overlap  :  0.51E-02
  | Highest eigenvalue of overlap :  0.62E+01
  Finished singularity check of overlap matrix
  | Time :     0.002 s
  Finished Cholesky decomposition
  | Time :     0.000 s
  Finished transformation to standard eigenproblem
  | Time :     0.000 s
  Starting LAPACK eigensolver
  Finished solving standard eigenproblem
  | Time :     0.002 s
  Finished back-transformation of eigenvectors
  | Time :     0.000 s

  Obtaining occupation numbers and chemical potential using ELSI.
  | Chemical potential (Fermi level):   -10.04497289eV
  Writing Kohn-Sham eigenvalues.

  State    Occupation    Eigenvalue [Ha]    Eigenvalue [eV]
      1       2.00000         -19.008382         -517.24439
      2       2.00000         -18.977764         -516.41122
      3       2.00000         -14.245792         -387.64771
      4       2.00000         -10.166902         -276.65549
      5       2.00000         -10.141251         -275.95749
      6       2.00000         -10.132136         -275.70945
      7       2.00000          -1.186759          -32.29336
      8       2.00000          -1.095009          -29.79670
      9       2.00000          -0.992183          -26.99867
     10       2.00000          -0.858933          -23.37276
     11       2.00000          -0.762127          -20.73852
     12       2.00000          -0.681201          -18.53641
     13       2.00000          -0.625609          -17.02368
     14       2.00000          -0.604481          -16.44876
     15       2.00000          -0.582787          -15.85844
     16       2.00000          -0.574382          -15.62973
     17       2.00000          -0.550219          -14.97221
     18       2.00000          -0.528143          -14.37151
     19       2.00000          -0.522711          -14.22368
     20       2.00000          -0.501935          -13.65833
     21       2.00000          -0.466239          -12.68700
     22       2.00000          -0.429212          -11.67945
     23       2.00000          -0.406434          -11.05964
     24       2.00000          -0.384205          -10.45475
     25       0.00000          -0.159018           -4.32711
     26       0.00000          -0.058720           -1.59786
     27       0.00000          -0.028551           -0.77690
     28       0.00000          -0.023432           -0.63762
     29       0.00000           0.000817            0.02224
     30       0.00000           0.008489            0.23100
     31       0.00000           0.021629            0.58855
     32       0.00000           0.033814            0.92014
     33       0.00000           0.036299            0.98774
     34       0.00000           0.063507            1.72812
     35       0.00000           0.093404            2.54166
     36       0.00000           0.133557            3.63428
     37       0.00000           0.158002            4.29946
     38       0.00000           0.200007            5.44246
     39       0.00000           0.204986            5.57795
     40       0.00000           0.239371            6.51361
     41       0.00000           0.261275            7.10965
     42       0.00000           0.276995            7.53742
     43       0.00000           0.299124            8.13958
     44       0.00000           0.308393            8.39180
     45       0.00000           0.321699            8.75386
     46       0.00000           0.351721            9.57080
     47       0.00000           0.372874           10.14643
     48       0.00000           0.378470           10.29869
     49       0.00000           0.476476           12.96557
     50       0.00000           0.501896           13.65727
     51       0.00000           0.508046           13.82463
     52       0.00000           0.532627           14.49352
     53       0.00000           0.547538           14.89926

  Highest occupied state (VBM) at    -10.45474522 eV
  | Occupation number:      2.00000000

  Lowest unoccupied state (CBM) at    -4.32711286 eV
  | Occupation number:      0.00000000

  Overall HOMO-LUMO gap:      6.12763236 eV.
  Calculating total energy contributions from superposition of free atom densities.

  Total energy components:
  | Sum of eigenvalues            :        -188.84958662 Ha       -5138.85871411 eV
  | XC energy correction          :         -41.79274476 Ha       -1137.23844701 eV
  | XC potential correction       :          53.72563264 Ha        1461.94884723 eV
  | Free-atom electrostatic energy:        -146.84445242 Ha       -3995.84085649 eV
  | Hartree energy correction     :           0.00000000 Ha           0.00000000 eV
  | vdW energy correction         :           0.00000000 Ha           0.00000000 eV
  | Entropy correction            :           0.00000000 Ha           0.00000000 eV
  | ---------------------------
  | Total energy                  :        -323.76115116 Ha       -8809.98917037 eV
  | Total energy, T -> 0          :        -323.76115116 Ha       -8809.98917037 eV  <-- do not rely on this value for anything but (periodic) metals
  | Electronic free energy        :        -323.76115116 Ha       -8809.98917037 eV

  Derived energy quantities:
  | Kinetic energy                :         320.50372215 Ha        8721.35001715 eV
  | Electrostatic energy          :        -602.47212855 Ha      -16394.10074051 eV
  | Energy correction for multipole
  | error in Hartree potential    :           0.00000000 Ha           0.00000000 eV
  | Sum of eigenvalues per atom                           :        -395.29682416 eV
  | Total energy (T->0) per atom                          :        -677.69147464 eV  <-- do not rely on this value for anything but (periodic) metals
  | Electronic free energy per atom                       :        -677.69147464 eV
  Initialize hartree_potential_storage
  Max. number of atoms included in rho_multipole:           13

  End scf initialization - timings             :  max(cpu_time)    wall_clock(cpu1)
  | Time for scf. initialization               :        1.168 s           1.181 s
  | Boundary condition initialization          :        0.000 s           0.000 s
  | Integration                                :        0.717 s           0.720 s
  | Solution of K.-S. eqns.                    :        0.004 s           0.004 s
  | Grid partitioning                          :        0.114 s           0.115 s
  | Preloading free-atom quantities on grid    :        0.002 s           0.002 s
  | Free-atom superposition energy             :        0.087 s           0.088 s
  | Total energy evaluation                    :        0.000 s           0.000 s

  Partial memory accounting:
  | Current value for overall tracked memory usage on task 0  :           0.165 MB
  | Peak value for overall tracked memory usage on task 0     :           0.678 MB after allocating wave
  | Largest tracked array allocation on task 0 so far         :           0.132 MB  when allocating H_times_psi
  Note:  These values currently only include a subset of arrays which are explicitly tracked.
  The "true" memory usage will be greater.
------------------------------------------------------------

------------------------------------------------------------
          Begin self-consistency iteration #    1

  Date     :  20200902, Time     :  105408.910
------------------------------------------------------------
  Evaluating new KS density.
  Integration grid: deviation in total charge (<rho> - N_e) =  -7.105427E-15
  Pulay mixing of updated and previous charge densities.

  Evaluating partitioned Hartree potential by multipole expansion.
  | Analytical far-field extrapolation by fixed multipoles:
  | Hartree multipole sum: apparent total charge =  -0.212438E-03
  Summing up the Hartree potential.
  Time summed over all CPUs for potential: real work        0.287 s, elapsed        0.287 s
  | RMS charge density error from multipole expansion :   0.590318E-02

  Integrating Hamiltonian matrix: batch-based integration.
  Time summed over all CPUs for integration: real work        0.501 s, elapsed        0.501 s

  Updating Kohn-Sham eigenvalues and eigenvectors using ELSI and the ELPA eigensolver.
  Finished Cholesky decomposition
  | Time :     0.000 s
  Finished transformation to standard eigenproblem
  | Time :     0.000 s
  Starting LAPACK eigensolver
  Finished solving standard eigenproblem
  | Time :     0.002 s
  Finished back-transformation of eigenvectors
  | Time :     0.000 s

  Obtaining occupation numbers and chemical potential using ELSI.
  | Chemical potential (Fermi level):    -4.88403836eV
  Writing Kohn-Sham eigenvalues.

  State    Occupation    Eigenvalue [Ha]    Eigenvalue [eV]
      1       2.00000         -18.905752         -514.45168
      2       2.00000         -18.840565         -512.67787
      3       2.00000         -14.092868         -383.48644
      4       2.00000         -10.118839         -275.34762
      5       2.00000         -10.061597         -273.78997
      6       2.00000         -10.033882         -273.03582
      7       2.00000          -1.139734          -31.01374
      8       2.00000          -1.034402          -28.14751
      9       2.00000          -0.920624          -25.05145
     10       2.00000          -0.793021          -21.57920
     11       2.00000          -0.712602          -19.39090
     12       2.00000          -0.635015          -17.27965
     13       2.00000          -0.570553          -15.52553
     14       2.00000          -0.548302          -14.92005
     15       2.00000          -0.524460          -14.27128
     16       2.00000          -0.512981          -13.95893
     17       2.00000          -0.491416          -13.37210
     18       2.00000          -0.466428          -12.69215
     19       2.00000          -0.463209          -12.60457
     20       2.00000          -0.442512          -12.04137
     21       2.00000          -0.411407          -11.19496
     22       2.00000          -0.372920          -10.14767
     23       2.00000          -0.335155           -9.12003
     24       2.00000          -0.309849           -8.43142
     25       0.00000          -0.124956           -3.40022
     26       0.00000          -0.036096           -0.98222
     27       0.00000          -0.001014           -0.02759
     28       0.00000           0.016733            0.45533
     29       0.00000           0.031488            0.85683
     30       0.00000           0.046631            1.26890
     31       0.00000           0.059592            1.62157
     32       0.00000           0.067766            1.84400
     33       0.00000           0.076290            2.07595
     34       0.00000           0.105630            2.87434
     35       0.00000           0.135277            3.68108
     36       0.00000           0.160145            4.35776
     37       0.00000           0.181834            4.94796
     38       0.00000           0.231059            6.28744
     39       0.00000           0.232944            6.33873
     40       0.00000           0.276496            7.52385
     41       0.00000           0.294215            8.00600
     42       0.00000           0.309522            8.42251
     43       0.00000           0.338604            9.21389
     44       0.00000           0.348342            9.47887
     45       0.00000           0.360748            9.81645
     46       0.00000           0.387443           10.54285
     47       0.00000           0.411672           11.20216
     48       0.00000           0.415128           11.29620
     49       0.00000           0.509745           13.87087
     50       0.00000           0.536818           14.60757
     51       0.00000           0.540867           14.71773
     52       0.00000           0.569185           15.48831
     53       0.00000           0.581745           15.83009

  Highest occupied state (VBM) at     -8.43142377 eV
  | Occupation number:      2.00000000

  Lowest unoccupied state (CBM) at    -3.40022190 eV
  | Occupation number:      0.00000000

  Overall HOMO-LUMO gap:      5.03120188 eV.

  Total energy components:
  | Sum of eigenvalues            :        -185.47618484 Ha       -5047.06378119 eV
  | XC energy correction          :         -42.12079836 Ha       -1146.16523965 eV
  | XC potential correction       :          54.15227894 Ha        1473.55848380 eV
  | Free-atom electrostatic energy:        -146.84445242 Ha       -3995.84085649 eV
  | Hartree energy correction     :          -3.29025188 Ha         -89.53230911 eV
  | vdW energy correction         :           0.00000000 Ha           0.00000000 eV
  | Entropy correction            :           0.00000000 Ha           0.00000000 eV
  | ---------------------------
  | Total energy                  :        -323.57940856 Ha       -8805.04370264 eV
  | Total energy, T -> 0          :        -323.57940856 Ha       -8805.04370264 eV  <-- do not rely on this value for anything but (periodic) metals
  | Electronic free energy        :        -323.57940856 Ha       -8805.04370264 eV

  Derived energy quantities:
  | Kinetic energy                :         322.29329333 Ha        8770.04672663 eV
  | Electrostatic energy          :        -603.75190353 Ha      -16428.92518962 eV
  | Energy correction for multipole
  | error in Hartree potential    :           0.01210838 Ha           0.32948565 eV
  | Sum of eigenvalues per atom                           :        -388.23567548 eV
  | Total energy (T->0) per atom                          :        -677.31105405 eV  <-- do not rely on this value for anything but (periodic) metals
  | Electronic free energy per atom                       :        -677.31105405 eV

  Self-consistency convergence accuracy:
  | Change of charge density      :  0.5854E+00
  | Change of sum of eigenvalues  :  0.9179E+02 eV
  | Change of total energy        :  0.4945E+01 eV

  End self-consistency iteration #     1       :  max(cpu_time)    wall_clock(cpu1)
  | Time for this iteration                    :        1.210 s           1.213 s
  | Charge density update                      :        0.404 s           0.405 s
  | Density mixing                             :        0.006 s           0.006 s
  | Hartree multipole update                   :        0.009 s           0.009 s
  | Hartree multipole summation                :        0.288 s           0.288 s
  | Integration                                :        0.501 s           0.502 s
  | Solution of K.-S. eqns.                    :        0.002 s           0.002 s
  | Total energy evaluation                    :        0.000 s           0.001 s

  Partial memory accounting:
  | Current value for overall tracked memory usage on task 0  :           0.165 MB
  | Peak value for overall tracked memory usage on task 0     :           0.695 MB after allocating gradient_basis_wave
  | Largest tracked array allocation on task 0 so far         :           0.397 MB  when allocating gradient_basis_wave
  Note:  These values currently only include a subset of arrays which are explicitly tracked.
  The "true" memory usage will be greater.
------------------------------------------------------------

------------------------------------------------------------
          Begin self-consistency iteration #    2

  Date     :  20200902, Time     :  105410.123
------------------------------------------------------------
  Evaluating new KS density.
  Integration grid: deviation in total charge (<rho> - N_e) =   6.394885E-14
  Pulay mixing of updated and previous charge densities.

  Evaluating partitioned Hartree potential by multipole expansion.
  | Analytical far-field extrapolation by fixed multipoles:
  | Hartree multipole sum: apparent total charge =  -0.344951E-03
  Summing up the Hartree potential.
  Time summed over all CPUs for potential: real work        0.288 s, elapsed        0.288 s
  | RMS charge density error from multipole expansion :   0.140753E-01

  Integrating Hamiltonian matrix: batch-based integration.
  Time summed over all CPUs for integration: real work        0.504 s, elapsed        0.504 s

  Updating Kohn-Sham eigenvalues and eigenvectors using ELSI and the ELPA eigensolver.
  Finished Cholesky decomposition
  | Time :     0.000 s
  Finished transformation to standard eigenproblem
  | Time :     0.000 s
  Starting LAPACK eigensolver
  Finished solving standard eigenproblem
  | Time :     0.002 s
  Finished back-transformation of eigenvectors
  | Time :     0.000 s

  Obtaining occupation numbers and chemical potential using ELSI.
  | Chemical potential (Fermi level):    -3.66864669eV
  Highest occupied state (VBM) at     -6.34814116 eV
  | Occupation number:      2.00000000

  Lowest unoccupied state (CBM) at    -2.21188901 eV
  | Occupation number:      0.00000000

  Overall HOMO-LUMO gap:      4.13625216 eV.

  Checking to see if s.c.f. parameters should be adjusted.

  Total energy components:
  | Sum of eigenvalues            :        -181.91178467 Ha       -4950.07151771 eV
  | XC energy correction          :         -42.48200496 Ha       -1155.99417117 eV
  | XC potential correction       :          54.62049856 Ha        1486.29938788 eV
  | Free-atom electrostatic energy:        -146.84445242 Ha       -3995.84085649 eV
  | Hartree energy correction     :          -6.88311824 Ha        -187.29917705 eV
  | vdW energy correction         :           0.00000000 Ha           0.00000000 eV
  | Entropy correction            :           0.00000000 Ha           0.00000000 eV
  | ---------------------------
  | Total energy                  :        -323.50086173 Ha       -8802.90633453 eV
  | Total energy, T -> 0          :        -323.50086173 Ha       -8802.90633453 eV  <-- do not rely on this value for anything but (periodic) metals
  | Electronic free energy        :        -323.50086173 Ha       -8802.90633453 eV

  Derived energy quantities:
  | Kinetic energy                :         323.61894649 Ha        8806.11958450 eV
  | Electrostatic energy          :        -604.63780326 Ha      -16453.03174786 eV
  | Energy correction for multipole
  | error in Hartree potential    :           0.02676529 Ha           0.72832050 eV
  | Sum of eigenvalues per atom                           :        -380.77473213 eV
  | Total energy (T->0) per atom                          :        -677.14664112 eV  <-- do not rely on this value for anything but (periodic) metals
  | Electronic free energy per atom                       :        -677.14664112 eV

  Self-consistency convergence accuracy:
  | Change of charge density      :  0.3657E+00
  | Change of sum of eigenvalues  :  0.9699E+02 eV
  | Change of total energy        :  0.2137E+01 eV

  End self-consistency iteration #     2       :  max(cpu_time)    wall_clock(cpu1)
  | Time for this iteration                    :        1.204 s           1.208 s
  | Charge density update                      :        0.396 s           0.398 s
  | Density mixing                             :        0.007 s           0.007 s
  | Hartree multipole update                   :        0.009 s           0.009 s
  | Hartree multipole summation                :        0.287 s           0.288 s
  | Integration                                :        0.502 s           0.504 s
  | Solution of K.-S. eqns.                    :        0.002 s           0.002 s
  | Total energy evaluation                    :        0.000 s           0.000 s

  Partial memory accounting:
  | Current value for overall tracked memory usage on task 0  :           0.166 MB
  | Peak value for overall tracked memory usage on task 0     :           0.695 MB after allocating gradient_basis_wave
  | Largest tracked array allocation on task 0 so far         :           0.397 MB  when allocating gradient_basis_wave
  Note:  These values currently only include a subset of arrays which are explicitly tracked.
  The "true" memory usage will be greater.
------------------------------------------------------------

------------------------------------------------------------
          Begin self-consistency iteration #    3

  Date     :  20200902, Time     :  105411.332
------------------------------------------------------------
  Evaluating new KS density.
  Integration grid: deviation in total charge (<rho> - N_e) =  -2.131628E-14
  Pulay mixing of updated and previous charge densities.

  Evaluating partitioned Hartree potential by multipole expansion.
  | Analytical far-field extrapolation by fixed multipoles:
  | Hartree multipole sum: apparent total charge =  -0.433398E-03
  Summing up the Hartree potential.
  Time summed over all CPUs for potential: real work        0.288 s, elapsed        0.288 s
  | RMS charge density error from multipole expansion :   0.222000E-01

  Integrating Hamiltonian matrix: batch-based integration.
  Time summed over all CPUs for integration: real work        0.502 s, elapsed        0.502 s

  Updating Kohn-Sham eigenvalues and eigenvectors using ELSI and the ELPA eigensolver.
  Finished Cholesky decomposition
  | Time :     0.000 s
  Finished transformation to standard eigenproblem
  | Time :     0.000 s
  Starting LAPACK eigensolver
  Finished solving standard eigenproblem
  | Time :     0.001 s
  Finished back-transformation of eigenvectors
  | Time :     0.000 s

  Obtaining occupation numbers and chemical potential using ELSI.
  | Chemical potential (Fermi level):    -3.01042642eV
  Highest occupied state (VBM) at     -5.66644161 eV
  | Occupation number:      2.00000000

  Lowest unoccupied state (CBM) at    -1.55006071 eV
  | Occupation number:      0.00000000

  Overall HOMO-LUMO gap:      4.11638090 eV.

  Total energy components:
  | Sum of eigenvalues            :        -180.64420861 Ha       -4915.57901819 eV
  | XC energy correction          :         -42.63104756 Ha       -1160.04982675 eV
  | XC potential correction       :          54.81048042 Ha        1491.46905742 eV
  | Free-atom electrostatic energy:        -146.84445242 Ha       -3995.84085649 eV
  | Hartree energy correction     :          -8.17916194 Ha        -222.56632042 eV
  | vdW energy correction         :           0.00000000 Ha           0.00000000 eV
  | Entropy correction            :           0.00000000 Ha           0.00000000 eV
  | ---------------------------
  | Total energy                  :        -323.48839010 Ha       -8802.56696442 eV
  | Total energy, T -> 0          :        -323.48839010 Ha       -8802.56696442 eV  <-- do not rely on this value for anything but (periodic) metals
  | Electronic free energy        :        -323.48839010 Ha       -8802.56696442 eV

  Derived energy quantities:
  | Kinetic energy                :         323.18986607 Ha        8794.44371213 eV
  | Electrostatic energy          :        -604.04720862 Ha      -16436.96084980 eV
  | Energy correction for multipole
  | error in Hartree potential    :           0.03778192 Ha           1.02809842 eV
  | Sum of eigenvalues per atom                           :        -378.12146294 eV
  | Total energy (T->0) per atom                          :        -677.12053572 eV  <-- do not rely on this value for anything but (periodic) metals
  | Electronic free energy per atom                       :        -677.12053572 eV

  Self-consistency convergence accuracy:
  | Change of charge density      :  0.2033E+00
  | Change of sum of eigenvalues  :  0.3449E+02 eV
  | Change of total energy        :  0.3394E+00 eV

  End self-consistency iteration #     3       :  max(cpu_time)    wall_clock(cpu1)
  | Time for this iteration                    :        1.204 s           1.206 s
  | Charge density update                      :        0.394 s           0.395 s
  | Density mixing                             :        0.009 s           0.009 s
  | Hartree multipole update                   :        0.009 s           0.009 s
  | Hartree multipole summation                :        0.289 s           0.289 s
  | Integration                                :        0.502 s           0.502 s
  | Solution of K.-S. eqns.                    :        0.002 s           0.002 s
  | Total energy evaluation                    :        0.000 s           0.000 s

  Partial memory accounting:
  | Current value for overall tracked memory usage on task 0  :           0.166 MB
  | Peak value for overall tracked memory usage on task 0     :           0.695 MB after allocating gradient_basis_wave
  | Largest tracked array allocation on task 0 so far         :           0.397 MB  when allocating gradient_basis_wave
  Note:  These values currently only include a subset of arrays which are explicitly tracked.
  The "true" memory usage will be greater.
------------------------------------------------------------

------------------------------------------------------------
          Begin self-consistency iteration #    4

  Date     :  20200902, Time     :  105412.541
------------------------------------------------------------
  Evaluating new KS density.
  Integration grid: deviation in total charge (<rho> - N_e) =   7.105427E-14
  Pulay mixing of updated and previous charge densities.

  Evaluating partitioned Hartree potential by multipole expansion.
  | Analytical far-field extrapolation by fixed multipoles:
  | Hartree multipole sum: apparent total charge =  -0.461564E-03
  Summing up the Hartree potential.
  Time summed over all CPUs for potential: real work        0.294 s, elapsed        0.294 s
  | RMS charge density error from multipole expansion :   0.255897E-01

  Integrating Hamiltonian matrix: batch-based integration.
  Time summed over all CPUs for integration: real work        0.499 s, elapsed        0.499 s

  Updating Kohn-Sham eigenvalues and eigenvectors using ELSI and the ELPA eigensolver.
  Finished Cholesky decomposition
  | Time :     0.000 s
  Finished transformation to standard eigenproblem
  | Time :     0.000 s
  Starting LAPACK eigensolver
  Finished solving standard eigenproblem
  | Time :     0.001 s
  Finished back-transformation of eigenvectors
  | Time :     0.000 s

  Obtaining occupation numbers and chemical potential using ELSI.
  | Chemical potential (Fermi level):    -2.89259739eV
  Highest occupied state (VBM) at     -5.50221410 eV
  | Occupation number:      2.00000000

  Lowest unoccupied state (CBM) at    -1.47067429 eV
  | Occupation number:      0.00000000

  Overall HOMO-LUMO gap:      4.03153982 eV.

  Total energy components:
  | Sum of eigenvalues            :        -180.50410031 Ha       -4911.76647741 eV
  | XC energy correction          :         -42.66824233 Ha       -1161.06194798 eV
  | XC potential correction       :          54.85729659 Ha        1492.74299012 eV
  | Free-atom electrostatic energy:        -146.84445242 Ha       -3995.84085649 eV
  | Hartree energy correction     :          -8.32803831 Ha        -226.61745260 eV
  | vdW energy correction         :           0.00000000 Ha           0.00000000 eV
  | Entropy correction            :           0.00000000 Ha           0.00000000 eV
  | ---------------------------
  | Total energy                  :        -323.48753678 Ha       -8802.54374435 eV
  | Total energy, T -> 0          :        -323.48753678 Ha       -8802.54374435 eV  <-- do not rely on this value for anything but (periodic) metals
  | Electronic free energy        :        -323.48753678 Ha       -8802.54374435 eV

  Derived energy quantities:
  | Kinetic energy                :         322.81580760 Ha        8784.26506324 eV
  | Electrostatic energy          :        -603.63510205 Ha      -16425.74685961 eV
  | Energy correction for multipole
  | error in Hartree potential    :           0.04186767 Ha           1.13927733 eV
  | Sum of eigenvalues per atom                           :        -377.82819057 eV
  | Total energy (T->0) per atom                          :        -677.11874957 eV  <-- do not rely on this value for anything but (periodic) metals
  | Electronic free energy per atom                       :        -677.11874957 eV

  Self-consistency convergence accuracy:
  | Change of charge density      :  0.6367E-01
  | Change of sum of eigenvalues  :  0.3813E+01 eV
  | Change of total energy        :  0.2322E-01 eV

  End self-consistency iteration #     4       :  max(cpu_time)    wall_clock(cpu1)
  | Time for this iteration                    :        1.203 s           1.213 s
  | Charge density update                      :        0.395 s           0.398 s
  | Density mixing                             :        0.010 s           0.010 s
  | Hartree multipole update                   :        0.009 s           0.009 s
  | Hartree multipole summation                :        0.288 s           0.294 s
  | Integration                                :        0.499 s           0.500 s
  | Solution of K.-S. eqns.                    :        0.002 s           0.002 s
  | Total energy evaluation                    :        0.000 s           0.000 s

  Partial memory accounting:
  | Current value for overall tracked memory usage on task 0  :           0.166 MB
  | Peak value for overall tracked memory usage on task 0     :           0.696 MB after allocating gradient_basis_wave
  | Largest tracked array allocation on task 0 so far         :           0.397 MB  when allocating gradient_basis_wave
  Note:  These values currently only include a subset of arrays which are explicitly tracked.
  The "true" memory usage will be greater.
------------------------------------------------------------

------------------------------------------------------------
          Begin self-consistency iteration #    5

  Date     :  20200902, Time     :  105413.755
------------------------------------------------------------
  Evaluating new KS density.
  Integration grid: deviation in total charge (<rho> - N_e) =  -3.552714E-14
  Pulay mixing of updated and previous charge densities.

  Evaluating partitioned Hartree potential by multipole expansion.
  | Analytical far-field extrapolation by fixed multipoles:
  | Hartree multipole sum: apparent total charge =  -0.455466E-03
  Summing up the Hartree potential.
  Time summed over all CPUs for potential: real work        0.288 s, elapsed        0.288 s
  | RMS charge density error from multipole expansion :   0.253576E-01

  Integrating Hamiltonian matrix: batch-based integration.
  Time summed over all CPUs for integration: real work        0.501 s, elapsed        0.501 s

  Updating Kohn-Sham eigenvalues and eigenvectors using ELSI and the ELPA eigensolver.
  Finished Cholesky decomposition
  | Time :     0.000 s
  Finished transformation to standard eigenproblem
  | Time :     0.000 s
  Starting LAPACK eigensolver
  Finished solving standard eigenproblem
  | Time :     0.002 s
  Finished back-transformation of eigenvectors
  | Time :     0.000 s

  Obtaining occupation numbers and chemical potential using ELSI.
  | Chemical potential (Fermi level):    -2.95806048eV
  Highest occupied state (VBM) at     -5.58263689 eV
  | Occupation number:      2.00000000

  Lowest unoccupied state (CBM) at    -1.55787108 eV
  | Occupation number:      0.00000000

  Overall HOMO-LUMO gap:      4.02476581 eV.

  Total energy components:
  | Sum of eigenvalues            :        -180.70194192 Ha       -4917.15002137 eV
  | XC energy correction          :         -42.64408843 Ha       -1160.40468682 eV
  | XC potential correction       :          54.82596972 Ha        1491.89054274 eV
  | Free-atom electrostatic energy:        -146.84445242 Ha       -3995.84085649 eV
  | Hartree energy correction     :          -8.12273789 Ha        -221.03094390 eV
  | vdW energy correction         :           0.00000000 Ha           0.00000000 eV
  | Entropy correction            :           0.00000000 Ha           0.00000000 eV
  | ---------------------------
  | Total energy                  :        -323.48725093 Ha       -8802.53596585 eV
  | Total energy, T -> 0          :        -323.48725093 Ha       -8802.53596585 eV  <-- do not rely on this value for anything but (periodic) metals
  | Electronic free energy        :        -323.48725093 Ha       -8802.53596585 eV

  Derived energy quantities:
  | Kinetic energy                :         322.70181885 Ha        8781.16327155 eV
  | Electrostatic energy          :        -603.54498135 Ha      -16423.29455058 eV
  | Energy correction for multipole
  | error in Hartree potential    :           0.04123677 Ha           1.12210953 eV
  | Sum of eigenvalues per atom                           :        -378.24230934 eV
  | Total energy (T->0) per atom                          :        -677.11815122 eV  <-- do not rely on this value for anything but (periodic) metals
  | Electronic free energy per atom                       :        -677.11815122 eV

  Self-consistency convergence accuracy:
  | Change of charge density      :  0.2012E-01
  | Change of sum of eigenvalues  : -0.5384E+01 eV
  | Change of total energy        :  0.7779E-02 eV

  End self-consistency iteration #     5       :  max(cpu_time)    wall_clock(cpu1)
  | Time for this iteration                    :        1.205 s           1.208 s
  | Charge density update                      :        0.394 s           0.396 s
  | Density mixing                             :        0.011 s           0.011 s
  | Hartree multipole update                   :        0.009 s           0.009 s
  | Hartree multipole summation                :        0.288 s           0.288 s
  | Integration                                :        0.501 s           0.501 s
  | Solution of K.-S. eqns.                    :        0.002 s           0.002 s
  | Total energy evaluation                    :        0.000 s           0.000 s

  Partial memory accounting:
  | Current value for overall tracked memory usage on task 0  :           0.166 MB
  | Peak value for overall tracked memory usage on task 0     :           0.696 MB after allocating gradient_basis_wave
  | Largest tracked array allocation on task 0 so far         :           0.397 MB  when allocating gradient_basis_wave
  Note:  These values currently only include a subset of arrays which are explicitly tracked.
  The "true" memory usage will be greater.
------------------------------------------------------------

------------------------------------------------------------
          Begin self-consistency iteration #    6

  Date     :  20200902, Time     :  105414.965
------------------------------------------------------------
  Evaluating new KS density.
  Integration grid: deviation in total charge (<rho> - N_e) =   7.105427E-15
  Pulay mixing of updated and previous charge densities.

  Evaluating partitioned Hartree potential by multipole expansion.
  | Analytical far-field extrapolation by fixed multipoles:
  | Hartree multipole sum: apparent total charge =  -0.458540E-03
  Summing up the Hartree potential.
  Time summed over all CPUs for potential: real work        0.288 s, elapsed        0.288 s
  | RMS charge density error from multipole expansion :   0.258006E-01

  Integrating Hamiltonian matrix: batch-based integration.
  Time summed over all CPUs for integration: real work        0.499 s, elapsed        0.499 s

  Updating Kohn-Sham eigenvalues and eigenvectors using ELSI and the ELPA eigensolver.
  Finished Cholesky decomposition
  | Time :     0.000 s
  Finished transformation to standard eigenproblem
  | Time :     0.000 s
  Starting LAPACK eigensolver
  Finished solving standard eigenproblem
  | Time :     0.002 s
  Finished back-transformation of eigenvectors
  | Time :     0.000 s

  Obtaining occupation numbers and chemical potential using ELSI.
  | Chemical potential (Fermi level):    -2.95585810eV
  Highest occupied state (VBM) at     -5.54692515 eV
  | Occupation number:      2.00000000

  Lowest unoccupied state (CBM) at    -1.56970824 eV
  | Occupation number:      0.00000000

  Overall HOMO-LUMO gap:      3.97721690 eV.

  Total energy components:
  | Sum of eigenvalues            :        -180.69902831 Ha       -4917.07073815 eV
  | XC energy correction          :         -42.64388312 Ha       -1160.39910019 eV
  | XC potential correction       :          54.82567802 Ha        1491.88260513 eV
  | Free-atom electrostatic energy:        -146.84445242 Ha       -3995.84085649 eV
  | Hartree energy correction     :          -8.12552823 Ha        -221.10687281 eV
  | vdW energy correction         :           0.00000000 Ha           0.00000000 eV
  | Entropy correction            :           0.00000000 Ha           0.00000000 eV
  | ---------------------------
  | Total energy                  :        -323.48721406 Ha       -8802.53496252 eV
  | Total energy, T -> 0          :        -323.48721406 Ha       -8802.53496252 eV  <-- do not rely on this value for anything but (periodic) metals
  | Electronic free energy        :        -323.48721406 Ha       -8802.53496252 eV

  Derived energy quantities:
  | Kinetic energy                :         322.62635904 Ha        8779.10990566 eV
  | Electrostatic energy          :        -603.46968997 Ha      -16421.24576798 eV
  | Energy correction for multipole
  | error in Hartree potential    :           0.04161781 Ha           1.13247829 eV
  | Sum of eigenvalues per atom                           :        -378.23621063 eV
  | Total energy (T->0) per atom                          :        -677.11807404 eV  <-- do not rely on this value for anything but (periodic) metals
  | Electronic free energy per atom                       :        -677.11807404 eV

  Self-consistency convergence accuracy:
  | Change of charge density      :  0.1041E-01
  | Change of sum of eigenvalues  :  0.7928E-01 eV
  | Change of total energy        :  0.1003E-02 eV

  End self-consistency iteration #     6       :  max(cpu_time)    wall_clock(cpu1)
  | Time for this iteration                    :        1.205 s           1.209 s
  | Charge density update                      :        0.394 s           0.397 s
  | Density mixing                             :        0.012 s           0.013 s
  | Hartree multipole update                   :        0.009 s           0.009 s
  | Hartree multipole summation                :        0.288 s           0.288 s
  | Integration                                :        0.499 s           0.499 s
  | Solution of K.-S. eqns.                    :        0.002 s           0.003 s
  | Total energy evaluation                    :        0.000 s           0.000 s

  Partial memory accounting:
  | Current value for overall tracked memory usage on task 0  :           0.166 MB
  | Peak value for overall tracked memory usage on task 0     :           0.696 MB after allocating gradient_basis_wave
  | Largest tracked array allocation on task 0 so far         :           0.397 MB  when allocating gradient_basis_wave
  Note:  These values currently only include a subset of arrays which are explicitly tracked.
  The "true" memory usage will be greater.
------------------------------------------------------------

------------------------------------------------------------
          Begin self-consistency iteration #    7

  Date     :  20200902, Time     :  105416.176
------------------------------------------------------------
  Evaluating new KS density.
  Integration grid: deviation in total charge (<rho> - N_e) =   3.552714E-14
  Pulay mixing of updated and previous charge densities.

  Evaluating partitioned Hartree potential by multipole expansion.
  | Analytical far-field extrapolation by fixed multipoles:
  | Hartree multipole sum: apparent total charge =  -0.459171E-03
  Summing up the Hartree potential.
  Time summed over all CPUs for potential: real work        0.288 s, elapsed        0.288 s
  | RMS charge density error from multipole expansion :   0.259316E-01

  Integrating Hamiltonian matrix: batch-based integration.
  Time summed over all CPUs for integration: real work        0.501 s, elapsed        0.501 s

  Updating Kohn-Sham eigenvalues and eigenvectors using ELSI and the ELPA eigensolver.
  Finished Cholesky decomposition
  | Time :     0.000 s
  Finished transformation to standard eigenproblem
  | Time :     0.000 s
  Starting LAPACK eigensolver
  Finished solving standard eigenproblem
  | Time :     0.002 s
  Finished back-transformation of eigenvectors
  | Time :     0.000 s

[...]
  |   Hirshfeld dipole moment :      0.06050543
  |   Hirshfeld second moments:      0.02066795      -0.02187004      -0.01487608
  |                                 -0.02187004      -0.01835290       0.00585185
  |                                 -0.01487608       0.00585185      -0.02009255
  ----------------------------------------------------------------------
  | Atom    12: O
  |   Hirshfeld charge        :     -0.13863824
  |   Free atom volume        :     23.61338643
  |   Hirshfeld volume        :     20.48247468
  |   Hirshfeld dipole vector :      0.00396819       0.02224159       0.02266379
  |   Hirshfeld dipole moment :      0.03200129
  |   Hirshfeld second moments:      0.10094120       0.01714384      -0.02282085
  |                                  0.01714384       0.05741625      -0.00897183
  |                                 -0.02282085      -0.00897183       0.05197621
  ----------------------------------------------------------------------
  | Atom    13: H
  |   Hirshfeld charge        :      0.18560786
  |   Free atom volume        :      9.95071624
  |   Hirshfeld volume        :      6.07761178
  |   Hirshfeld dipole vector :     -0.10641988      -0.01896726       0.06206675
  |   Hirshfeld dipole moment :      0.12464842
  |   Hirshfeld second moments:      0.12248183       0.00312340      -0.00788939
  |                                  0.00312340       0.12513516      -0.00008729
  |                                 -0.00788939      -0.00008729       0.10164429
  ----------------------------------------------------------------------


  Total energy components:
  | Sum of eigenvalues            :        -180.69791655 Ha       -4917.04048554 eV
  | XC energy correction          :         -42.64064988 Ha       -1160.31111911 eV
  | XC potential correction       :          54.82157684 Ha        1491.77100618 eV
  | Free-atom electrostatic energy:        -146.84445242 Ha       -3995.84085649 eV
  | Hartree energy correction     :          -8.12574834 Ha        -221.11286241 eV
  | vdW energy correction         :          -0.00329383 Ha          -0.08962972 eV
  | Entropy correction            :           0.00000000 Ha           0.00000000 eV
  | ---------------------------
  | Total energy                  :        -323.49048418 Ha       -8802.62394708 eV
  | Total energy, T -> 0          :        -323.49048418 Ha       -8802.62394708 eV  <-- do not rely on this value for anything but (periodic) metals
  | Electronic free energy        :        -323.49048418 Ha       -8802.62394708 eV

  Derived energy quantities:
  | Kinetic energy                :         322.58502003 Ha        8777.98501407 eV
  | Electrostatic energy          :        -603.43156050 Ha      -16420.20821233 eV
  | Energy correction for multipole
  | error in Hartree potential    :           0.04166469 Ha           1.13375403 eV
  | Sum of eigenvalues per atom                           :        -378.23388350 eV
  | Total energy (T->0) per atom                          :        -677.12491901 eV  <-- do not rely on this value for anything but (periodic) metals
  | Electronic free energy per atom                       :        -677.12491901 eV

  atomic forces [eV/Ang]:
  -----------------------
  atom #    1
   Hellmann-Feynman              :  0.722567E+00 -0.318743E-01  0.712957E+00
   Ionic forces                  :  0.000000E+00  0.000000E+00  0.000000E+00
   Multipole                     : -0.359571E-01  0.394992E+00 -0.279483E+00
   Pulay + GGA                   : -0.113325E+01 -0.290822E+00 -0.117506E+01
   Van der Waals                 :  0.480337E-02  0.413731E-02 -0.266685E-02
   ----------------------------------------------------------------
   Total forces(   1)            : -0.441838E+00  0.764332E-01 -0.744256E+00
  atom #    2
   Hellmann-Feynman              :  0.374580E+00  0.482355E-01  0.124436E+00
   Ionic forces                  :  0.000000E+00  0.000000E+00  0.000000E+00
   Multipole                     :  0.173908E+00  0.157803E-01 -0.385173E-01
   Pulay + GGA                   : -0.151517E+00  0.461724E-02 -0.270151E-01
   Van der Waals                 :  0.635276E-02 -0.490317E-02 -0.586404E-02
   ----------------------------------------------------------------
   Total forces(   2)            :  0.403324E+00  0.637298E-01  0.530396E-01
  atom #    3
   Hellmann-Feynman              :  0.898458E+01 -0.275344E+01 -0.576123E+01
   Ionic forces                  :  0.000000E+00  0.000000E+00  0.000000E+00
   Multipole                     : -0.329189E+00  0.266183E+00 -0.120536E+01
   Pulay + GGA                   : -0.812350E+01  0.225302E+01  0.743139E+01
   Van der Waals                 :  0.199082E-02 -0.798736E-02 -0.566019E-02
   ----------------------------------------------------------------
   Total forces(   3)            :  0.533883E+00 -0.242217E+00  0.459149E+00
  atom #    4
   Hellmann-Feynman              : -0.231564E+00  0.104335E+00 -0.789575E-01
   Ionic forces                  :  0.000000E+00  0.000000E+00  0.000000E+00
   Multipole                     : -0.827514E-01 -0.401465E-01 -0.608930E-01
   Pulay + GGA                   :  0.213875E+00  0.920219E-01 -0.730332E-02
   Van der Waals                 : -0.751330E-03  0.205484E-02  0.855603E-03
   ----------------------------------------------------------------
   Total forces(   4)            : -0.101192E+00  0.158266E+00 -0.146298E+00
  atom #    5
   Hellmann-Feynman              : -0.263629E+00  0.856198E-01 -0.363879E-01
   Ionic forces                  :  0.000000E+00  0.000000E+00  0.000000E+00
   Multipole                     : -0.597900E-01  0.470471E-01 -0.752697E-01
   Pulay + GGA                   :  0.146603E+00 -0.185122E+00 -0.515871E-03
   Van der Waals                 : -0.148675E-02 -0.727530E-02 -0.587001E-02
   ----------------------------------------------------------------
   Total forces(   5)            : -0.178303E+00 -0.597302E-01 -0.118043E+00
  atom #    6
   Hellmann-Feynman              : -0.143514E-01 -0.772011E+00  0.569525E+00
   Ionic forces                  :  0.000000E+00  0.000000E+00  0.000000E+00
   Multipole                     : -0.936471E-01  0.574869E+00  0.258426E+00
   Pulay + GGA                   :  0.291547E+00 -0.318929E+00 -0.468518E+00
   Van der Waals                 : -0.297079E-02  0.685903E-02  0.110234E-02
   ----------------------------------------------------------------
   Total forces(   6)            :  0.180578E+00 -0.509212E+00  0.360535E+00
  atom #    7
   Hellmann-Feynman              : -0.237182E+00 -0.488483E-01 -0.257929E-01
   Ionic forces                  :  0.000000E+00  0.000000E+00  0.000000E+00
   Multipole                     : -0.116482E+00  0.485828E-01  0.250823E-01
   Pulay + GGA                   :  0.104317E+00  0.609545E-02  0.269976E-02
   Van der Waals                 : -0.360203E-02  0.124990E-02  0.815431E-02
   ----------------------------------------------------------------
   Total forces(   7)            : -0.252949E+00  0.707989E-02  0.101435E-01
  atom #    8
   Hellmann-Feynman              :  0.956559E-01  0.557242E-01  0.201902E+00
   Ionic forces                  :  0.000000E+00  0.000000E+00  0.000000E+00
   Multipole                     :  0.118523E-01  0.594289E-01  0.118122E+00
   Pulay + GGA                   : -0.410831E-01 -0.433962E-01 -0.112341E+00
   Van der Waals                 : -0.312567E-02  0.112401E-01  0.535305E-03
   ----------------------------------------------------------------
   Total forces(   8)            :  0.632994E-01  0.829970E-01  0.208218E+00
  atom #    9
   Hellmann-Feynman              :  0.130205E+00  0.368128E-01 -0.211190E+00
   Ionic forces                  :  0.000000E+00  0.000000E+00  0.000000E+00
   Multipole                     :  0.174855E-01  0.132497E+00 -0.918199E-02
   Pulay + GGA                   : -0.273509E-01 -0.821712E-01  0.717378E-01
   Van der Waals                 : -0.106494E-02  0.619790E-02  0.779420E-02
   ----------------------------------------------------------------
   Total forces(   9)            :  0.119274E+00  0.933363E-01 -0.140840E+00
  atom #   10
   Hellmann-Feynman              :  0.343949E+01  0.561902E+01  0.142047E+01
   Ionic forces                  :  0.000000E+00  0.000000E+00  0.000000E+00
   Multipole                     :  0.106449E-01 -0.826143E-01  0.238176E+00
   Pulay + GGA                   : -0.119369E+01 -0.332706E+01 -0.573947E+00
   Van der Waals                 :  0.294342E-02 -0.111364E-01 -0.123980E-02
   ----------------------------------------------------------------
   Total forces(  10)            :  0.225939E+01  0.219821E+01  0.108346E+01
  atom #   11
   Hellmann-Feynman              :  0.420257E+01 -0.224979E+01  0.139861E+02
   Ionic forces                  :  0.000000E+00  0.000000E+00  0.000000E+00
   Multipole                     : -0.476647E-01 -0.604637E+00  0.809245E+00
   Pulay + GGA                   : -0.360065E+01  0.362393E+01 -0.134072E+02
   Van der Waals                 : -0.324738E-02 -0.116248E-01  0.125787E-02
   ----------------------------------------------------------------
   Total forces(  11)            :  0.551003E+00  0.757879E+00  0.138939E+01
  atom #   12
   Hellmann-Feynman              : -0.706150E+00 -0.462031E+01 -0.156741E+02
   Ionic forces                  :  0.000000E+00  0.000000E+00  0.000000E+00
   Multipole                     : -0.619974E+00 -0.126372E+01 -0.586890E+00
   Pulay + GGA                   : -0.145998E+01  0.454429E+01  0.138901E+02
   Van der Waals                 :  0.428638E-03  0.747471E-02  0.367346E-02
   ----------------------------------------------------------------
   Total forces(  12)            : -0.278568E+01 -0.133227E+01 -0.236713E+01
  atom #   13
   Hellmann-Feynman              : -0.565038E+00 -0.133793E+01  0.158284E+00
   Ionic forces                  :  0.000000E+00  0.000000E+00  0.000000E+00
   Multipole                     : -0.869252E-01 -0.795550E-02  0.310891E-01
   Pulay + GGA                   :  0.297119E+00  0.460085E-01 -0.236228E+00
   Van der Waals                 : -0.270105E-03  0.371325E-02 -0.207221E-02
   ----------------------------------------------------------------
   Total forces(  13)            : -0.355115E+00 -0.129617E+01 -0.489277E-01

  Timings for VdW correction (Tkatchenko-Scheffler 2009 or later):
  | CPU time:        0.091 s, Wall clock time:        0.092 s.
  Removing unitary transformations (pure translations, rotations) from forces on atoms.
  Atomic forces before filtering:
  | Net force on center of mass :  -0.432048E-02 -0.165857E-02 -0.154934E-02 eV/A
  | Net torque on center of mass:  -0.657284E-02  0.211258E-02  0.377178E-03 eV
  Atomic forces after filtering:
  | Net force on center of mass :  -0.356812E-15 -0.178406E-15  0.144955E-15 eV/A
  | Net torque on center of mass:  -0.566451E-15  0.944085E-16 -0.169935E-14 eV

  Energy and forces in a compact form:
  | Total energy uncorrected      :         -0.880262394708187E+04 eV
  | Total energy corrected        :         -0.880262394708187E+04 eV  <-- do not rely on this value for anything but (periodic) metals
  | Electronic free energy        :         -0.880262394708187E+04 eV
  Total atomic forces (unitary forces cleaned) [eV/Ang]:
  |   1         -0.441492743951904E+00          0.765881431099421E-01         -0.744084367797148E+00
  |   2          0.403669455353058E+00          0.638830047722594E-01          0.532875920930479E-01
  |   3          0.534327086574113E+00         -0.241838042544176E+00          0.459287271249175E+00
  |   4         -0.100741525438469E+00          0.158663188704988E+00         -0.146325928714846E+00
  |   5         -0.177843538605076E+00         -0.593188043925643E-01         -0.117792094077187E+00
  |   6          0.180873903014803E+00         -0.509171370524767E+00          0.360871944941096E+00
  |   7         -0.252653894554269E+00          0.711971377864623E-02          0.104080269856342E-01
  |   8          0.635235305139455E-01          0.828740858307042E-01          0.208581515804218E+00
  |   9          0.119607069476012E+00          0.934561124413553E-01         -0.140336376057563E+00
  |  10          0.225968280860426E+01          0.219825040459920E+01          0.108340308558330E+01
  |  11          0.551213734271820E+00          0.757736189307508E+00          0.138931138190725E+01
  |  12         -0.278534219261311E+01         -0.133212094912509E+01         -0.236736930041504E+01
  |  13         -0.354823692645184E+00         -0.129612167595800E+01         -0.492427515019316E-01

  ------------------------------------ 
  Start decomposition of the XC Energy 
  ------------------------------------ 
  X and C from original XC functional choice 
  Hartree-Fock Energy :          0.000000000 Ha              0.000000000 eV
  X Energy            :        -41.039532308 Ha          -1116.742493346 eV
  C Energy            :         -1.601117568 Ha            -43.568625765 eV
  Total XC Energy     :        -42.640649876 Ha          -1160.311119111 eV
  ------------------------------------ 
  LDA X and C from self-consistent density 
  X Energy LDA        :        -37.259410943 Ha          -1013.880157419 eV
  C Energy LDA        :         -3.138787098 Ha            -85.410742575 eV
  ------------------------------------ 
  End decomposition of the XC Energy 
  ------------------------------------ 

------------------------------------------------------------

------------------------------------------------------------------------------
  Final output of selected total energy values:

  The following output summarizes some interesting total energy values
  at the end of a run (AFTER all relaxation, molecular dynamics, etc.).

  | Total energy of the DFT / Hartree-Fock s.c.f. calculation      :          -8802.623947082 eV
  | Final zero-broadening corrected energy (caution - metals only) :          -8802.623947082 eV
  | For reference only, the value of 1 Hartree used in FHI-aims is :             27.211384500 eV

  Before relying on these values, please be sure to understand exactly which
  total energy value is referred to by a given number. Different objects may
  all carry the same name 'total energy'. Definitions:

  Total energy of the DFT / Hartree-Fock s.c.f. calculation:
  | Note that this energy does not include ANY quantities calculated after the
  | s.c.f. cycle, in particular not ANY RPA, MP2, etc. many-body perturbation terms.

  Final zero-broadening corrected energy:
  | For metallic systems only, a broadening of the occupation numbers at the Fermi
  | level can be extrapolated back to zero broadening by an electron-gas inspired
  | formula. For all systems that are not real metals, this value can be
  | meaningless and should be avoided.

------------------------------------------------------------------------------
  Methods described in the following list of references were used in this FHI-aims run.
  If you publish the results, please make sure to cite these reference if they apply.
  FHI-aims is an academic code, and for our developers (often, Ph.D. students
  and postdocs), scientific credit in the community is essential.
  Thank you for helping us!

  For any use of FHI-aims, please cite:

    Volker Blum, Ralf Gehrke, Felix Hanke, Paula Havu, Ville Havu,
    Xinguo Ren, Karsten Reuter, and Matthias Scheffler
    'Ab initio molecular simulations with numeric atom-centered orbitals'
    Computer Physics Communications 180, 2175-2196 (2009)
    http://dx.doi.org/10.1016/j.cpc.2009.06.022


  The scalable eigensolver library ELPA was used in your run.
  ELPA is essential especially for large systems on hundreds or thousands of CPUs.
  For ELPA, please cite:

    Andreas Marek, Volker Blum, Rainer Johanni, Ville Havu, Bruno Lang,
    Thomas Auckenthaler, Alexander Heinecke, Hans-Joachim Bungartz, and Hermann Lederer,
    'The ELPA Library - Scalable Parallel Eigenvalue Solutions
    for Electronic Structure Theory and Computational Science'
    The Journal of Physics: Condensed Matter 26, 213201 (2014).
    http://dx.doi.org/10.1088/0953-8984/26/21/213201


  The ELSI infrastructure was used in your run to solve the Kohn-Sham electronic structure.
  Please check out http://elsi-interchange.org to learn more.
  If scalability is important for your project, please acknowledge ELSI by citing:

    V. W-z. Yu, F. Corsetti, A. Garcia, W. P. Huhn, M. Jacquelin, W. Jia,
    B. Lange, L. Lin, J. Lu, W. Mi, A. Seifitokaldani, A. Vazquez-Mayagoitia,
    C. Yang, H. Yang, and V. Blum
    'ELSI: A unified software interface for Kohn-Sham electronic structure solvers'
    Computer Physics Communications 222, 267-285 (2018).
    http://dx.doi.org/10.1016/j.cpc.2017.09.007


  For the real-space grid partitioning and parallelization used in this calculation, please cite:

    Ville Havu, Volker Blum, Paula Havu, and Matthias Scheffler,
    'Efficient O(N) integration for all-electron electronic structure calculation'
    'using numerically tabulated basis functions'
    Journal of Computational Physics 228, 8367-8379 (2009).
    http://dx.doi.org/10.1016/j.jcp.2009.08.008

  Of course, there are many other important community references, e.g., those cited in the
  above references. Our list is limited to references that describe implementations in the
  FHI-aims code. The reason is purely practical (length of this list) - please credit others as well.

------------------------------------------------------------
          Leaving FHI-aims.
          Date     :  20200902, Time     :  105430.658

          Computational steps:
          | Number of self-consistency cycles          :           16
          | Number of SCF (re)initializations          :            1

          Detailed time accounting                     :  max(cpu_time)    wall_clock(cpu1)
          | Total time                                 :       22.981 s          23.100 s
          | Preparation time                           :        0.152 s           0.156 s
          | Boundary condition initalization           :        0.000 s           0.000 s
          | Grid partitioning                          :        0.114 s           0.115 s
          | Preloading free-atom quantities on grid    :        0.002 s           0.002 s
          | Free-atom superposition energy             :        0.087 s           0.088 s
          | Total time for integrations                :        8.719 s           8.740 s
          | Total time for solution of K.-S. equations :        0.037 s           0.039 s
          | Total time for density & force components  :        7.239 s           7.274 s
          | Total time for mixing                      :        0.227 s           0.229 s
          | Total time for Hartree multipole update    :        0.140 s           0.143 s
          | Total time for Hartree multipole sum       :        5.859 s           5.874 s
          | Total time for total energy evaluation     :        0.003 s           0.005 s
          | Total time for vdW correction              :        0.091 s           0.092 s

          Partial memory accounting:
          | Residual value for overall tracked memory usage across tasks :           0.000 MB (should be 0.000 MB)
          | Peak values for overall tracked memory usage (after allocating hessian_basis_wave):
          |   Minimum:        1.622 MB (on task 1)
          |   Maximum:        1.622 MB (on task 1)
          |   Average:        1.622 MB
          | Largest tracked array allocation (hessian_basis_wave):
          |   Minimum:        0.794 MB (on task 1)
          |   Maximum:        0.794 MB (on task 1)
          |   Average:        0.794 MB
          Note:  These values currently only include a subset of arrays which are explicitly tracked.
          The "true" memory usage will be greater.

          Have a nice day.
------------------------------------------------------------
