  MPI-parallelism will be employed.
------------------------------------------------------------
          Invoking FHI-aims ...
          Version 171221_1
          Compiled on 2019/09/09 at 14:39:39 on host puhti-login2.bullx.

          When using FHI-aims, please cite the following reference:

          Volker Blum, Ralf Gehrke, Felix Hanke, Paula Havu,
          Ville Havu, Xinguo Ren, Karsten Reuter, and Matthias Scheffler,
          'Ab Initio Molecular Simulations with Numeric Atom-Centered Orbitals',
          Computer Physics Communications 180, 2175-2196 (2009)

          For any questions about FHI-aims, please visit the aimsclub website
          with its forums and wiki. Contributions to both the forums and the
          wiki are warmly encouraged - they are for you, and everyone is welcome there.

------------------------------------------------------------



  Date     :  20200710, Time     :  151527.122
  Time zero on CPU 1             :   0.118630000000000E-01  s.
  Internal wall clock time zero  :           363626127.122  s.

  FHI-aims created a unique identifier for this run for later identification
  aims_uuid : EA0EB7D9-A78B-490C-A033-05B1380C4DC3

  Using        1 parallel tasks.
  Task        0 on host r18c42.bullx reporting.

  Performing system and environment tests:
  | Environment variable OMP_NUM_THREADS correctly set to 1.
  | Stacksize not measured: no C compiler
  | Checking for scalapack...
  | Testing pdtran()...
  | All pdtran() tests passed.

  Obtaining array dimensions for all initial allocations:
  
  -----------------------------------------------------------------------
  Parsing control.in (first pass over file, find array dimensions only).
  The contents of control.in will be repeated verbatim below
  unless switched off by setting 'verbatim_writeout .false.' .
  in the first line of control.in .
  -----------------------------------------------------------------------
  
  #########################################################################################
  #
  #  Volker Blum, FHI 2009 : Test run input file control.in for simple H2O
  #
  #########################################################################################
  #
  #  Physical model
  #
    xc                 pbe
    vdw_correction_hirshfeld
    spin               none
    relativistic       none
    charge             0.
  #
  #  SCF convergence
  #
    occupation_type    gaussian 0.01
    mixer              pulay
      n_max_pulay        10
      charge_mix_param   0.2
    sc_accuracy_rho    1E-5
    sc_accuracy_eev    1E-3
    sc_accuracy_etot   1E-6
    sc_accuracy_forces 1E-4
    sc_iter_limit      100
  #
  #  Relaxation
  #
  #  relax_geometry   bfgs 1.e-3
  #
  ################################################################################
  #
  #  FHI-aims code project
  #  VB, Fritz-Haber Institut, 2009
  #
  #  Suggested "light" defaults for H atom (to be pasted into control.in file)
  #  Be sure to double-check any results obtained with these settings for post-processing,
  #  e.g., with the "tight" defaults and larger basis sets.
  #
  ################################################################################
    species        H
  #     global species definitions
      nucleus             1
      mass                1.00794
  #
      l_hartree           4
  #
      cut_pot             3.5  1.5  1.0
      basis_dep_cutoff    1e-4
  #
      radial_base         24 5.0
      radial_multiplier   1
      angular_grids       specified
        division   0.2421   50
        division   0.3822  110
        division   0.4799  194
        division   0.5341  302
  #      division   0.5626  434
  #      division   0.5922  590
  #      division   0.6542  770
  #      division   0.6868 1202
  #      outer_grid  770
        outer_grid  302
  ################################################################################
  #
  #  Definition of "minimal" basis
  #
  ################################################################################
  #     valence basis states
      valence      1  s   1.
  #     ion occupancy
      ion_occ      1  s   0.5
  ################################################################################
  #
  #  Suggested additional basis functions. For production calculations,
  #  uncomment them one after another (the most important basis functions are
  #  listed first).
  #
  #  Basis constructed for dimers: 0.5 A, 0.7 A, 1.0 A, 1.5 A, 2.5 A
  #
  ################################################################################
  #  "First tier" - improvements: -1014.90 meV to -62.69 meV
       hydro 2 s 2.1
       hydro 2 p 3.5
  #  "Second tier" - improvements: -12.89 meV to -1.83 meV
  #     hydro 1 s 0.85
  #     hydro 2 p 3.7
  #     hydro 2 s 1.2
  #     hydro 3 d 7
  #  "Third tier" - improvements: -0.25 meV to -0.12 meV
  #     hydro 4 f 11.2
  #     hydro 3 p 4.8
  #     hydro 4 d 9
  #     hydro 3 s 3.2
  ################################################################################
  #
  #  FHI-aims code project
  #  VB, Fritz-Haber Institut, 2009
  #
  #  Suggested "light" defaults for C atom (to be pasted into control.in file)
  #  Be sure to double-check any results obtained with these settings for post-processing,
  #  e.g., with the "tight" defaults and larger basis sets.
  #
  ################################################################################
    species        C
  #     global species definitions
      nucleus             6
      mass                12.0107
  #
      l_hartree           4
  #
      cut_pot             3.5  1.5  1.0
      basis_dep_cutoff    1e-4
  #
      radial_base         34 5.0
      radial_multiplier   1
      angular_grids specified
        division   0.3326   50
        division   0.5710  110
        division   0.7727  194
        division   0.8772  302
  #      division   0.9334  434
  #      division   0.9625  590
  #      division   0.9924  770
  #      division   1.0230  974
  #      division   1.4589 1202
  #     outer_grid  974
       outer_grid 302
  ################################################################################
  #
  #  Definition of "minimal" basis
  #
  ################################################################################
  #     valence basis states
      valence      2  s   2.
      valence      2  p   2.
  #     ion occupancy
      ion_occ      2  s   1.
      ion_occ      2  p   1.
  ################################################################################
  #
  #  Suggested additional basis functions. For production calculations,
  #  uncomment them one after another (the most important basis functions are
  #  listed first).
  #
  #  Constructed for dimers: 1.0 A, 1.25 A, 1.5 A, 2.0 A, 3.0 A
  #
  ################################################################################
  #  "First tier" - improvements: -1214.57 meV to -155.61 meV
       hydro 2 p 1.7
       hydro 3 d 6
       hydro 2 s 4.9
  #  "Second tier" - improvements: -67.75 meV to -5.23 meV
  #     hydro 4 f 9.8
  #     hydro 3 p 5.2
  #     hydro 3 s 4.3
  #     hydro 5 g 14.4
  #     hydro 3 d 6.2
  #  "Third tier" - improvements: -2.43 meV to -0.60 meV
  #     hydro 2 p 5.6
  #     hydro 2 s 1.4
  #     hydro 3 d 4.9
  #     hydro 4 f 11.2
  #  "Fourth tier" - improvements: -0.39 meV to -0.18 meV
  #     hydro 2 p 2.1
  #     hydro 5 g 16.4
  #     hydro 4 d 13.2
  #     hydro 3 s 13.6
  #     hydro 4 f 17.6
  #  Further basis functions - improvements: -0.08 meV and below
  #     hydro 3 s 2
  #     hydro 3 p 6
  #     hydro 4 d 20
  ################################################################################
  #
  #  FHI-aims code project
  #  VB, Fritz-Haber Institut, 2009
  #
  #  Suggested "light" defaults for N atom (to be pasted into control.in file)
  #  Be sure to double-check any results obtained with these settings for post-processing,
  #  e.g., with the "tight" defaults and larger basis sets.
  #
  ################################################################################
    species        N
  #     global species definitions
      nucleus             7
      mass                14.0067
  #
      l_hartree           4
  #
      cut_pot             3.5  1.5  1.0
      basis_dep_cutoff    1e-4
  #
      radial_base         35 5.0
      radial_multiplier   1
      angular_grids       specified
        division   0.2599   50
        division   0.4601  110
        division   0.5885  194
        division   0.6503  302
  #      division   0.6939  434
  #      division   0.7396  590
  #      division   0.7632  770
  #      division   0.8122  974
  #      division   1.1604 1202
  #      outer_grid  974
        outer_grid  302
  ################################################################################
  #
  #  Definition of "minimal" basis
  #
  ################################################################################
  #     valence basis states
      valence      2  s   2.
      valence      2  p   3.
  #     ion occupancy
      ion_occ      2  s   1.
      ion_occ      2  p   2.
  ################################################################################
  #
  #  Suggested additional basis functions. For production calculations,
  #  uncomment them one after another (the most important basis functions are
  #  listed first).
  #
  #  Constructed for dimers: 1.0 A, 1.1 A, 1.5 A, 2.0 A, 3.0 A
  #
  ################################################################################
  #  "First tier" - improvements: -1193.42 meV to -220.60 meV
       hydro 2 p 1.8
       hydro 3 d 6.8
       hydro 3 s 5.8
  #  "Second tier" - improvements: -80.21 meV to -6.86 meV
  #     hydro 4 f 10.8
  #     hydro 3 p 5.8
  #     hydro 1 s 0.8
  #     hydro 5 g 16
  #     hydro 3 d 4.9
  #  "Third tier" - improvements: -4.29 meV to -0.53 meV
  #     hydro 3 s 16
  #     ionic 2 p auto
  #     hydro 3 d 6.6
  #     hydro 4 f 11.6
  #  "Fourth tier" - improvements: -0.75 meV to -0.25 meV
  #     hydro 2 p 4.5
  #     hydro 2 s 2.4
  #     hydro 5 g 14.4
  #     hydro 4 d 14.4
  #     hydro 4 f 16.8
  # Further basis functions - -0.21 meV and below
  #     hydro 3 p 14.8
  #     hydro 3 s 4.4
  #     hydro 3 d 19.6
  #     hydro 5 g 12.8
  ################################################################################
  #
  #  FHI-aims code project
  #  VB, Fritz-Haber Institut, 2009
  #
  #  Suggested "light" defaults for O atom (to be pasted into control.in file)
  #  Be sure to double-check any results obtained with these settings for post-processing,
  #  e.g., with the "tight" defaults and larger basis sets.
  #
  ################################################################################
    species        O
  #     global species definitions
      nucleus             8
      mass                15.9994
  #
      l_hartree           4
  #
      cut_pot             3.5  1.5  1.0
      basis_dep_cutoff    1e-4
  #
      radial_base         36 5.0
      radial_multiplier   1
       angular_grids specified
        division   0.2659   50
        division   0.4451  110
        division   0.6052  194
        division   0.7543  302
  #      division   0.8014  434
  #      division   0.8507  590
  #      division   0.8762  770
  #      division   0.9023  974
  #      division   1.2339 1202
  #      outer_grid 974
        outer_grid 302
  ################################################################################
  #
  #  Definition of "minimal" basis
  #
  ################################################################################
  #     valence basis states
      valence      2  s   2.
      valence      2  p   4.
  #     ion occupancy
      ion_occ      2  s   1.
      ion_occ      2  p   3.
  ################################################################################
  #
  #  Suggested additional basis functions. For production calculations,
  #  uncomment them one after another (the most important basis functions are
  #  listed first).
  #
  #  Constructed for dimers: 1.0 A, 1.208 A, 1.5 A, 2.0 A, 3.0 A
  #
  ################################################################################
  #  "First tier" - improvements: -699.05 meV to -159.38 meV
       hydro 2 p 1.8
       hydro 3 d 7.6
       hydro 3 s 6.4
  #  "Second tier" - improvements: -49.91 meV to -5.39 meV
  #     hydro 4 f 11.6
  #     hydro 3 p 6.2
  #     hydro 3 d 5.6
  #     hydro 5 g 17.6
  #     hydro 1 s 0.75
  #  "Third tier" - improvements: -2.83 meV to -0.50 meV
  #     ionic 2 p auto
  #     hydro 4 f 10.8
  #     hydro 4 d 4.7
  #     hydro 2 s 6.8
  #  "Fourth tier" - improvements: -0.40 meV to -0.12 meV
  #     hydro 3 p 5
  #     hydro 3 s 3.3
  #     hydro 5 g 15.6
  #     hydro 4 f 17.6
  #     hydro 4 d 14
  # Further basis functions - -0.08 meV and below
  #     hydro 3 s 2.1
  #     hydro 4 d 11.6
  #     hydro 3 p 16
  #     hydro 2 s 17.2
  
  -----------------------------------------------------------------------
  Completed first pass over input file control.in .
  -----------------------------------------------------------------------
  
  
  -----------------------------------------------------------------------
  Parsing geometry.in (first pass over file, find array dimensions only).
  The contents of geometry.in will be repeated verbatim below
  unless switched off by setting 'verbatim_writeout .false.' .
  in the first line of geometry.in .
  -----------------------------------------------------------------------
  
  atom  0.00000 0.00000 0.00000 C
  atom  1.09300 0.00000 0.00000 H
  atom  -0.47961 0.00000 -1.41207 N
  atom  -1.31649 0.58113 -1.47326 H
  atom  0.25514 0.37753 -2.00683 H
  atom  -0.49584 1.26211 0.72868 C
  atom  -1.58789 1.28919 0.74431 H
  atom  -0.13407 1.27425 1.75947 H
  atom  -0.13407 2.16087 0.22380 H
  atom  -0.39425 -1.28861 0.74398 C
  atom  -0.10189 -1.56493 1.88303 O
  atom  -1.10210 -2.13717 0.06896 O
  atom  -1.89769 -2.13429 0.62754 H
  
  -----------------------------------------------------------------------
  Completed first pass over input file geometry.in .
  -----------------------------------------------------------------------
  

  Basic array size parameters:
  | Number of species                 :        4
  | Number of atoms                   :       13
  | Max. basis fn. angular momentum   :        2
  | Max. atomic/ionic basis occupied n:        2
  | Max. number of basis fn. types    :        2
  | Max. radial fns per species/type  :        3
  | Max. logarithmic grid size        :     1301
  | Max. radial integration grid size :       36
  | Max. angular integration grid size:      302
  | Max. angular grid division number :        8
  | Radial grid for Hartree potential :     1301
  | Number of spin channels           :        1

------------------------------------------------------------
          Reading file control.in.
------------------------------------------------------------
  XC: Using PBE gradient-corrected functionals.
  Spin treatment: No spin polarisation.
  Non-relativistic treatment of kinetic energy.
  Charge =   0.000000E+00: Neutral system requested explicitly.
  Occupation type: Gaussian broadening, width =   0.100000E-01 eV.
  Using pulay charge density mixing.
  Pulay mixing - number of memorized iterations:   10
  Charge density mixing - mixing parameter:     0.2000
  Convergence accuracy of self-consistent charge density:  0.1000E-04
  Convergence accuracy of sum of eigenvalues:  0.1000E-02
  Convergence accuracy of total energy:  0.1000E-05
  Convergence accuracy of forces:  0.1000E-03
  Maximum number of s.-c. iterations  :   100
 
  Reading configuration options for species H                   .
  | Found nuclear charge :   1.0000
  | Found atomic mass :    1.00794000000000      amu
  | Found l_max for Hartree potential  :   4
  | Found cutoff potl. onset [A], width [A], scale factor :    3.50000    1.50000    1.00000
  | Threshold for basis-dependent cutoff potential is   0.100000E-03
  | Found data for basic radial integration grid :    24 points, outermost radius =    5.000 A
  | Found multiplier for basic radial grid :   1
  | Found angular grid specification: user-specified.
  | Specified grid contains     5 separate shells.
  | Check grid settings after all constraints further below.
  | Found free-atom valence shell :  1 s   1.000
  | No ionic wave fns used. Skipping ion_occ.
  | Found hydrogenic basis function :  2 s   2.100
  | Found hydrogenic basis function :  2 p   3.500
  Species H                   : Missing cutoff potential type.
  Defaulting to exp(1/x)/(1-x)^2 type cutoff potential.
  Species H : No 'logarithmic' tag. Using default grid for free atom:
  | Default logarithmic grid data [bohr] : 0.1000E-03 0.1000E+03 0.1012E+01
  Species H : On-site basis accuracy parameter (for Gram-Schmidt orthonormalisation) not specified.
  Using default value basis_acc =  0.1000000E-03.
  Species H                   : Using default innermost maximum threshold i_radial=  2 for radial functions.
  Species H                   : Default cutoff onset for free atom density etc. : 0.35000000E+01 AA.
  Species H                   : Basic radial grid will be enhanced according to radial_multiplier =   1, to contain    24 grid points.
 
  Reading configuration options for species C                   .
  | Found nuclear charge :   6.0000
  | Found atomic mass :    12.0107000000000      amu
  | Found l_max for Hartree potential  :   4
  | Found cutoff potl. onset [A], width [A], scale factor :    3.50000    1.50000    1.00000
  | Threshold for basis-dependent cutoff potential is   0.100000E-03
  | Found data for basic radial integration grid :    34 points, outermost radius =    5.000 A
  | Found multiplier for basic radial grid :   1
  | Found angular grid specification: user-specified.
  | Specified grid contains     5 separate shells.
  | Check grid settings after all constraints further below.
  | Found free-atom valence shell :  2 s   2.000
  | Found free-atom valence shell :  2 p   2.000
  | No ionic wave fns used. Skipping ion_occ.
  | No ionic wave fns used. Skipping ion_occ.
  | Found hydrogenic basis function :  2 p   1.700
  | Found hydrogenic basis function :  3 d   6.000
  | Found hydrogenic basis function :  2 s   4.900
  Species C                   : Missing cutoff potential type.
  Defaulting to exp(1/x)/(1-x)^2 type cutoff potential.
  Species C : No 'logarithmic' tag. Using default grid for free atom:
  | Default logarithmic grid data [bohr] : 0.1000E-03 0.1000E+03 0.1012E+01
  Species C : On-site basis accuracy parameter (for Gram-Schmidt orthonormalisation) not specified.
  Using default value basis_acc =  0.1000000E-03.
  Species C                   : Using default innermost maximum threshold i_radial=  2 for radial functions.
  Species C                   : Default cutoff onset for free atom density etc. : 0.35000000E+01 AA.
  Species C                   : Basic radial grid will be enhanced according to radial_multiplier =   1, to contain    34 grid points.
 
  Reading configuration options for species N                   .
  | Found nuclear charge :   7.0000
  | Found atomic mass :    14.0067000000000      amu
  | Found l_max for Hartree potential  :   4
  | Found cutoff potl. onset [A], width [A], scale factor :    3.50000    1.50000    1.00000
  | Threshold for basis-dependent cutoff potential is   0.100000E-03
  | Found data for basic radial integration grid :    35 points, outermost radius =    5.000 A
  | Found multiplier for basic radial grid :   1
  | Found angular grid specification: user-specified.
  | Specified grid contains     5 separate shells.
  | Check grid settings after all constraints further below.
  | Found free-atom valence shell :  2 s   2.000
  | Found free-atom valence shell :  2 p   3.000
  | No ionic wave fns used. Skipping ion_occ.
  | No ionic wave fns used. Skipping ion_occ.
  | Found hydrogenic basis function :  2 p   1.800
  | Found hydrogenic basis function :  3 d   6.800
  | Found hydrogenic basis function :  3 s   5.800
  Species N                   : Missing cutoff potential type.
  Defaulting to exp(1/x)/(1-x)^2 type cutoff potential.
  Species N : No 'logarithmic' tag. Using default grid for free atom:
  | Default logarithmic grid data [bohr] : 0.1000E-03 0.1000E+03 0.1012E+01
  Species N : On-site basis accuracy parameter (for Gram-Schmidt orthonormalisation) not specified.
  Using default value basis_acc =  0.1000000E-03.
  Species N                   : Using default innermost maximum threshold i_radial=  2 for radial functions.
  Species N                   : Default cutoff onset for free atom density etc. : 0.35000000E+01 AA.
  Species N                   : Basic radial grid will be enhanced according to radial_multiplier =   1, to contain    35 grid points.
 
  Reading configuration options for species O                   .
  | Found nuclear charge :   8.0000
  | Found atomic mass :    15.9994000000000      amu
  | Found l_max for Hartree potential  :   4
  | Found cutoff potl. onset [A], width [A], scale factor :    3.50000    1.50000    1.00000
  | Threshold for basis-dependent cutoff potential is   0.100000E-03
  | Found data for basic radial integration grid :    36 points, outermost radius =    5.000 A
  | Found multiplier for basic radial grid :   1
  | Found angular grid specification: user-specified.
  | Specified grid contains     5 separate shells.
  | Check grid settings after all constraints further below.
  | Found free-atom valence shell :  2 s   2.000
  | Found free-atom valence shell :  2 p   4.000
  | No ionic wave fns used. Skipping ion_occ.
  | No ionic wave fns used. Skipping ion_occ.
  | Found hydrogenic basis function :  2 p   1.800
  | Found hydrogenic basis function :  3 d   7.600
  | Found hydrogenic basis function :  3 s   6.400
  Species O                   : Missing cutoff potential type.
  Defaulting to exp(1/x)/(1-x)^2 type cutoff potential.
  Species O : No 'logarithmic' tag. Using default grid for free atom:
  | Default logarithmic grid data [bohr] : 0.1000E-03 0.1000E+03 0.1012E+01
  Species O : On-site basis accuracy parameter (for Gram-Schmidt orthonormalisation) not specified.
  Using default value basis_acc =  0.1000000E-03.
  Species O                   : Using default innermost maximum threshold i_radial=  2 for radial functions.
  Species O                   : Default cutoff onset for free atom density etc. : 0.35000000E+01 AA.
  Species O                   : Basic radial grid will be enhanced according to radial_multiplier =   1, to contain    36 grid points.
 
  Finished reading input file 'control.in'. Consistency checks are next.
 
  MPI_IN_PLACE appears to work with this MPI implementation.
  | Keeping use_mpi_in_place .true. (see manual).
  Target number of points in a grid batch is not set. Defaulting to  100
  Method for grid partitioning is not set. Defaulting to parallel hash+maxmin partitioning.
  Batch size limit is not set. Defaulting to    200
  By default, will store active basis functions for each batch.
  If in need of memory, prune_basis_once .false. can be used to disable this option.
  communication_type for Hartree potential was not specified.
  Defaulting to calc_hartree .
  Pulay mixer: Number of initial linear mixing iterations not set.
  Defaulting to    0 iterations.
  Work space size for distributed Hartree potential not set.
  Defaulting to   0.200000E+03 MB.
  Algorithm-dependent basis array size parameters:
  | n_max_pulay                         :       10
  Presetting      1001 iterations before the initial mixing cycle
  is restarted anyway using the sc_init_iter criterion / keyword.
  Presetting a factor      1.000 between actual scf density residual
  and density convergence criterion sc_accuracy_rho below which sc_init_iter
  takes no effect.
  Geometry relaxation not requested: no relaxation will be performed.
  Handling of forces: Unphysical translation and rotation will be removed from forces.
  No accuracy limit for integral partition fn. given. Defaulting to  0.1000E-14.
  No threshold value for u(r) in integrations given. Defaulting to  0.1000E-05.
  No accuracy for occupation numbers given. Defaulting to  0.1000E-12.
  No threshold value for occupation numbers given. Defaulting to  0.0000E+00.
  No accuracy for fermi level given. Defaulting to  0.1000E-19.
  Maximum # of iterations to find E_F not set. Defaulting to  200.
  Preferred method for the eigenvalue solver ('KS_method') not specified in 'control.in'.
  Defaulting to serial version, 'lapack_fast'.
  Will not use alltoall communication since running on < 1024 CPUs.
  Threshold for basis singularities not set.
  Default threshold for basis singularities:  0.1000E-04
  partition_type (choice of integration weights) for integrals was not specified.
  | Using a version of the partition function of Stratmann and coworkers ('stratmann_smoother').
  | At each grid point, the set of atoms used to build the partition table is smoothly restricted to
  | only those atoms whose free-atom density would be non-zero at that grid point.
  Partitioning for Hartree potential was not defined. Using partition_type for integrals.
  | Adjusted default value of keyword multip_moments_threshold to:       0.10000000E-11
  | This value may affect high angular momentum components of the Hartree potential in periodic systems.
  No q(lm)/r^(l+1) cutoff set for long-range Hartree potential.
  | Using default value of  0.100000E-09 .
  | Verify using the multipole_threshold keyword.
  Defaulting to new monopole extrapolation.
  Density update method: automatic selection selected.
------------------------------------------------------------


------------------------------------------------------------
          Reading geometry description geometry.in.
------------------------------------------------------------
  Input structure read successfully.
  The structure contains       13 atoms,  and a total of         48.000 electrons.

  Input geometry:
  | No unit cell requested.
  | Atomic structure:
  |       Atom                x [A]            y [A]            z [A]
  |    1: Species C             0.00000000        0.00000000        0.00000000
  |    2: Species H             1.09300000        0.00000000        0.00000000
  |    3: Species N            -0.47961000        0.00000000       -1.41207000
  |    4: Species H            -1.31649000        0.58113000       -1.47326000
  |    5: Species H             0.25514000        0.37753000       -2.00683000
  |    6: Species C            -0.49584000        1.26211000        0.72868000
  |    7: Species H            -1.58789000        1.28919000        0.74431000
  |    8: Species H            -0.13407000        1.27425000        1.75947000
  |    9: Species H            -0.13407000        2.16087000        0.22380000
  |   10: Species C            -0.39425000       -1.28861000        0.74398000
  |   11: Species O            -0.10189000       -1.56493000        1.88303000
  |   12: Species O            -1.10210000       -2.13717000        0.06896000
  |   13: Species H            -1.89769000       -2.13429000        0.62754000
  |

  | The smallest distance between any two atoms is         0.97210255 AA.
  |
  | The first atom of this pair is atom number                     12 .
  | The second atom of this pair is atom number                    13 .

  Number of empty states per atom not set in control.in - providing a guess from actual geometry.
  | Total number of empty states used during s.c.f. cycle:       29
  If you use a very high smearing, use empty_states (per atom!) in control.in to increase this value.

  Structure-dependent array size parameters: 
  | Maximum number of distinct radial functions  :       21
  | Maximum number of basis functions            :      119
  | Number of Kohn-Sham states (occupied + empty):       53
------------------------------------------------------------

------------------------------------------------------------
          Preparing all fixed parts of the calculation.
------------------------------------------------------------
  Determining machine precision:
    2.225073858507201E-308
  Setting up grids for atomic and cluster calculations.

  Creating wave function, potential, and density for free atoms.

  Species: H

  List of occupied orbitals and eigenvalues:
    n    l              occ      energy [Ha]    energy [eV]
    1    0           1.0000        -0.237589        -6.4651


  Species: C

  List of occupied orbitals and eigenvalues:
    n    l              occ      energy [Ha]    energy [eV]
    1    0           2.0000       -10.038835      -273.1706
    2    0           2.0000        -0.502696       -13.6791
    2    1           2.0000        -0.191971        -5.2238


  Species: N

  List of occupied orbitals and eigenvalues:
    n    l              occ      energy [Ha]    energy [eV]
    1    0           2.0000       -14.128000      -384.4424
    2    0           2.0000        -0.681077       -18.5330
    2    1           3.0000        -0.259788        -7.0692


  Species: O

  List of occupied orbitals and eigenvalues:
    n    l              occ      energy [Ha]    energy [eV]
    1    0           2.0000       -18.898188      -514.2459
    2    0           2.0000        -0.878505       -23.9053
    2    1           4.0000        -0.331779        -9.0282

  Creating fixed part of basis set: Ionic, confined, hydrogenic.
 
  H                    hydrogenic:
 
  List of hydrogenic basis orbitals: 
    n    l      effective z      eigenvalue [eV]  inner max. [A]     outer max. [A]     outer radius [A]   
    2    0         2.100000       -14.9728           0.193243           1.317208           4.583499
    2    1         3.500000       -41.6669           0.602369           0.602369           3.723403
 
 
  C                    hydrogenic:
 
  List of hydrogenic basis orbitals: 
    n    l      effective z      eigenvalue [eV]  inner max. [A]     outer max. [A]     outer radius [A]   
    2    1         1.700000        -9.7616           1.230570           1.230570           4.607917
    3    2         6.000000       -54.4224           0.792453           0.792453           3.883070
    2    0         4.900000       -81.6679           0.082559           0.562749           3.078220
 
 
  N                    hydrogenic:
 
  List of hydrogenic basis orbitals: 
    n    l      effective z      eigenvalue [eV]  inner max. [A]     outer max. [A]     outer radius [A]   
    2    1         1.800000       -10.9749           1.177451           1.177451           4.573712
    3    2         6.800000       -69.9026           0.704619           0.704619           3.538137
    3    0         5.800000       -50.8545           0.067388           1.191934           4.250239
 
 
  O                    hydrogenic:
 
  List of hydrogenic basis orbitals: 
    n    l      effective z      eigenvalue [eV]  inner max. [A]     outer max. [A]     outer radius [A]   
    2    1         1.800000       -10.9749           1.164242           1.164242           4.578029
    3    2         7.600000       -87.3180           0.624125           0.624125           3.251020
    3    0         6.400000       -61.9207           0.061167           1.081902           4.001998
 

  Adding cutoff potential to free-atom effective potential.
  Creating atomic-like basis functions for current effective potential.

  Species H                   :

  List of atomic basis orbitals and eigenvalues:
    n    l      energy [Ha]    energy [eV]    outer radius [A]
    1    0        -0.237589        -6.4651       4.527807


  Species C                   :

  List of atomic basis orbitals and eigenvalues:
    n    l      energy [Ha]    energy [eV]    outer radius [A]
    1    0       -10.038835      -273.1706       1.934409
    2    0        -0.502696       -13.6791       4.496620
    2    1        -0.191971        -5.2238       4.551928


  Species N                   :

  List of atomic basis orbitals and eigenvalues:
    n    l      energy [Ha]    energy [eV]    outer radius [A]
    1    0       -14.128000      -384.4424       1.637919
    2    0        -0.681077       -18.5330       4.463241
    2    1        -0.259788        -7.0692       4.518138


  Species O                   :

  List of atomic basis orbitals and eigenvalues:
    n    l      energy [Ha]    energy [eV]    outer radius [A]
    1    0       -18.898188      -514.2459       1.415765
    2    0        -0.878505       -23.9053       4.413171
    2    1        -0.331779        -9.0282       4.522403

  Assembling full basis from fixed parts.
  | Species H :   atomic orbital   1 s accepted.
  | Species H :    hydro orbital   2 s accepted.
  | Species H :    hydro orbital   2 p accepted.
  | Species C :   atomic orbital   1 s accepted.
  | Species C :    hydro orbital   2 s accepted.
  | Species C :   atomic orbital   2 s accepted.
  | Species C :   atomic orbital   2 p accepted.
  | Species C :    hydro orbital   2 p accepted.
  | Species C :    hydro orbital   3 d accepted.
  | Species N :   atomic orbital   1 s accepted.
  | Species N :    hydro orbital   3 s accepted.
  | Species N :   atomic orbital   2 s accepted.
  | Species N :   atomic orbital   2 p accepted.
  | Species N :    hydro orbital   2 p accepted.
  | Species N :    hydro orbital   3 d accepted.
  | Species O :   atomic orbital   1 s accepted.
  | Species O :    hydro orbital   3 s accepted.
  | Species O :   atomic orbital   2 s accepted.
  | Species O :   atomic orbital   2 p accepted.
  | Species O :    hydro orbital   2 p accepted.
  | Species O :    hydro orbital   3 d accepted.
 
  Basis size parameters after reduction:
  | Total number of radial functions:       21
  | Total number of basis functions :      119
 
  Per-task memory consumption for arrays in subroutine allocate_ext:
  |           5.250512MB.
  Testing on-site integration grid accuracy.
  |  Species  Function  <phi|h_atom|phi> (log., in eV)  <phi|h_atom|phi> (rad., in eV)
           1        1                 -6.4663192853                 -6.4651273558
           1        2                 13.7111246313                 13.7170609718
           1        3                 25.2673269279                 25.2674696378
           2        4               -273.1705927641               -273.1705631568
           2        5                -10.7109323383                -10.7107120029
           2        6                 17.4381822266                 17.4352413244
           2        7                 -5.2255326521                 -5.2270484734
           2        8                  8.6835629259                  8.6603288385
           2        9                 27.4952418996                 27.4953360207
           3       10               -384.4424306495               -384.4423701208
           3       11                 12.5842251816                 12.5842222903
           3       12                -15.7264628251                -15.7264433455
           3       13                 -7.0696854293                 -7.0701769954
           3       14                  8.8090390882                  8.7901077751
           3       15                 35.9586762123                 35.9588528632
           4       16               -514.2458688638               -514.2457643834
           4       17                 15.1795651126                 15.1795290741
           4       18                -21.5359799773                -21.5360846186
           4       19                 -9.0283069236                 -9.0284644067
           4       20                  8.3027758564                  8.2834874195
           4       21                 45.8339351984                 45.8338762259

  Preparing densities etc. for the partition functions (integrals / Hartree potential).

  Preparations completed.
  max(cpu_time)          :      0.146 s.
  Wall clock time (cpu1) :      0.147 s.
------------------------------------------------------------

------------------------------------------------------------
          Begin self-consistency loop: Initialization.

          Date     :  20200710, Time     :  151527.285
------------------------------------------------------------

  Initializing index lists of integration centers etc. from given atomic structure:
  | Number of centers in hartree potential         :        13
  | Number of centers in hartree multipole         :        13
  | Number of centers in electron density summation:        13
  | Number of centers in basis integrals           :        13
  | Number of centers in integrals                 :        13
  | Number of centers in hamiltonian               :        13
  Partitioning the integration grid into batches with parallel hashing+maxmin method.
  | Number of batches:      954
  | Maximal batch size:     138
  | Minimal batch size:      66
  | Average batch size:      73.004
  | Standard deviation of batch sizes:      17.760

  Integration load balanced across     1 MPI tasks.
  Work distribution over tasks is as follows:
  Task     0 has      69646 integration points.
  Initializing partition tables, free-atom densities, potentials, etc. across the integration grid (initialize_grid_storage).
  | initialize_grid_storage: Actual outermost partition radius vs. multipole_radius_free
  | (-- VB: in principle, multipole_radius_free should be larger, hence this output)
  | Species        1: Confinement radius =              4.999999999999999 AA, multipole_radius_free =              5.054417573612229 AA.
  | Species        1: outer_partition_radius set to              5.054417573612229 AA .
  | Species        2: Confinement radius =              4.999999999999999 AA, multipole_radius_free =              5.019602836301480 AA.
  | Species        2: outer_partition_radius set to              5.019602836301480 AA .
  | Species        3: Confinement radius =              4.999999999999999 AA, multipole_radius_free =              5.043624274424571 AA.
  | Species        3: outer_partition_radius set to              5.043624274424571 AA .
  | Species        4: Confinement radius =              4.999999999999999 AA, multipole_radius_free =              5.048384829883283 AA.
  | Species        4: outer_partition_radius set to              5.048384829883283 AA .
  | Original list of interatomic distances with          13 x         13 entries is created.
  | Net number of integration points:    69646
  | of which are non-zero points    :    59569
  Renormalizing the initial density to the exact electron count on the 3D integration grid.
  | Initial density: Formal number of electrons (from input files) :      48.0000000000
  | Integrated number of electrons on 3D grid     :      48.0000116329
  | Charge integration error                      :       0.0000116329
  | Normalization factor for density and gradient :       0.9999997576
  Obtaining max. number of non-zero basis functions in each batch (get_n_compute_maxes).
  | Maximal number of non-zero basis functions:      119 in task     0
  Selecting the method for density update.
  Loop over occupied states selected for charge density update.
  Allocating        0.050 MB for KS_eigenvector
  Integrating Hamiltonian matrix: batch-based integration.
  Time summed over all CPUs for integration: real work        0.491 s, elapsed        0.491 s
  Integrating overlap matrix.
  Time summed over all CPUs for integration: real work        0.211 s, elapsed        0.211 s

  Updating Kohn-Sham eigenvalues and eigenvectors using ELSI and the ELPA eigensolver.
  Overlap matrix is nonsingular
  | Lowest eigenvalue of overlap  :  0.47E-02
  | Highest eigenvalue of overlap :  0.62E+01
  Finished singularity check of overlap matrix
  | Time :     0.002 s
  Finished Cholesky decomposition
  | Time :     0.000 s
  Finished transformation to standard eigenproblem
  | Time :     0.000 s
  Starting LAPACK eigensolver
  Finished solving standard eigenproblem
  | Time :     0.002 s
  Finished back-transformation of eigenvectors
  | Time :     0.000 s

  Obtaining occupation numbers and chemical potential using ELSI.
  | Chemical potential (Fermi level):    -9.34357163eV
  Writing Kohn-Sham eigenvalues.

  State    Occupation    Eigenvalue [Ha]    Eigenvalue [eV]
      1       2.00000         -19.007491         -517.22014
      2       2.00000         -18.977593         -516.40658
      3       2.00000         -14.245793         -387.64776
      4       2.00000         -10.166867         -276.65453
      5       2.00000         -10.141262         -275.95777
      6       2.00000         -10.131888         -275.70269
      7       2.00000          -1.184942          -32.24391
      8       2.00000          -1.094927          -29.79447
      9       2.00000          -0.992055          -26.99518
     10       2.00000          -0.858758          -23.36800
     11       2.00000          -0.761415          -20.71916
     12       2.00000          -0.677270          -18.42945
     13       2.00000          -0.626121          -17.03762
     14       2.00000          -0.605064          -16.46462
     15       2.00000          -0.586881          -15.96984
     16       2.00000          -0.570837          -15.53328
     17       2.00000          -0.552511          -15.03458
     18       2.00000          -0.532478          -14.48947
     19       2.00000          -0.520373          -14.16008
     20       2.00000          -0.499125          -13.58189
     21       2.00000          -0.456328          -12.41733
     22       2.00000          -0.427452          -11.63156
     23       2.00000          -0.412714          -11.23051
     24       2.00000          -0.382273          -10.40218
     25       0.00000          -0.160945           -4.37952
     26       0.00000          -0.063120           -1.71759
     27       0.00000          -0.033048           -0.89929
     28       0.00000          -0.020583           -0.56009
     29       0.00000          -0.007979           -0.21713
     30       0.00000           0.010844            0.29508
     31       0.00000           0.017334            0.47168
     32       0.00000           0.030362            0.82620
     33       0.00000           0.044275            1.20478
     34       0.00000           0.074036            2.01461
     35       0.00000           0.092099            2.50614
     36       0.00000           0.135047            3.67482
     37       0.00000           0.158886            4.32350
     38       0.00000           0.201676            5.48789
     39       0.00000           0.202876            5.52055
     40       0.00000           0.228418            6.21558
     41       0.00000           0.264362            7.19364
     42       0.00000           0.270615            7.36382
     43       0.00000           0.297702            8.10088
     44       0.00000           0.303127            8.24851
     45       0.00000           0.322518            8.77616
     46       0.00000           0.342269            9.31361
     47       0.00000           0.367738           10.00665
     48       0.00000           0.406589           11.06386
     49       0.00000           0.431283           11.73581
     50       0.00000           0.475096           12.92802
     51       0.00000           0.524638           14.27613
     52       0.00000           0.534893           14.55519
     53       0.00000           0.574538           15.63396

  Highest occupied state (VBM) at    -10.40218208 eV
  | Occupation number:      2.00000000

  Lowest unoccupied state (CBM) at    -4.37952320 eV
  | Occupation number:      0.00000000

  Overall HOMO-LUMO gap:      6.02265888 eV.
  Calculating total energy contributions from superposition of free atom densities.

  Total energy components:
  | Sum of eigenvalues            :        -188.82483417 Ha       -5138.18516565 eV
  | XC energy correction          :         -41.78339191 Ha       -1136.98394306 eV
  | XC potential correction       :          53.71259212 Ha        1461.59399668 eV
  | Free-atom electrostatic energy:        -146.86474902 Ha       -3996.39315499 eV
  | Hartree energy correction     :           0.00000000 Ha           0.00000000 eV
  | vdW energy correction         :           0.00000000 Ha           0.00000000 eV
  | Entropy correction            :           0.00000000 Ha           0.00000000 eV
  | ---------------------------
  | Total energy                  :        -323.76038298 Ha       -8809.96826702 eV
  | Total energy, T -> 0          :        -323.76038298 Ha       -8809.96826702 eV  <-- do not rely on this value for anything but (periodic) metals
  | Electronic free energy        :        -323.76038298 Ha       -8809.96826702 eV

  Derived energy quantities:
  | Kinetic energy                :         320.48524890 Ha        8720.84733448 eV
  | Electrostatic energy          :        -602.46223997 Ha      -16393.83165845 eV
  | Energy correction for multipole
  | error in Hartree potential    :           0.00000000 Ha           0.00000000 eV
  | Sum of eigenvalues per atom                           :        -395.24501274 eV
  | Total energy (T->0) per atom                          :        -677.68986669 eV  <-- do not rely on this value for anything but (periodic) metals
  | Electronic free energy per atom                       :        -677.68986669 eV
  Initialize hartree_potential_storage
  Max. number of atoms included in rho_multipole:           13

  End scf initialization - timings             :  max(cpu_time)    wall_clock(cpu1)
  | Time for scf. initialization               :        1.145 s           1.147 s
  | Boundary condition initialization          :        0.000 s           0.000 s
  | Integration                                :        0.703 s           0.704 s
  | Solution of K.-S. eqns.                    :        0.004 s           0.004 s
  | Grid partitioning                          :        0.110 s           0.111 s
  | Preloading free-atom quantities on grid    :        0.002 s           0.003 s
  | Free-atom superposition energy             :        0.084 s           0.084 s
  | Total energy evaluation                    :        0.000 s           0.000 s

  Partial memory accounting:
  | Current value for overall tracked memory usage on task 0  :           0.165 MB
  | Peak value for overall tracked memory usage on task 0     :           0.676 MB after allocating wave
  | Largest tracked array allocation on task 0 so far         :           0.131 MB  when allocating H_times_psi
  Note:  These values currently only include a subset of arrays which are explicitly tracked.
  The "true" memory usage will be greater.
------------------------------------------------------------

------------------------------------------------------------
          Begin self-consistency iteration #    1

  Date     :  20200710, Time     :  151528.432
------------------------------------------------------------
  Evaluating new KS density.
  Integration grid: deviation in total charge (<rho> - N_e) =   2.131628E-14
  Pulay mixing of updated and previous charge densities.

  Evaluating partitioned Hartree potential by multipole expansion.
  | Analytical far-field extrapolation by fixed multipoles:
  | Hartree multipole sum: apparent total charge =  -0.916701E-04
  Summing up the Hartree potential.
  Time summed over all CPUs for potential: real work        0.282 s, elapsed        0.282 s
  | RMS charge density error from multipole expansion :   0.582608E-02

  Integrating Hamiltonian matrix: batch-based integration.
  Time summed over all CPUs for integration: real work        0.494 s, elapsed        0.494 s

  Updating Kohn-Sham eigenvalues and eigenvectors using ELSI and the ELPA eigensolver.
  Finished Cholesky decomposition
  | Time :     0.000 s
  Finished transformation to standard eigenproblem
  | Time :     0.000 s
  Starting LAPACK eigensolver
  Finished solving standard eigenproblem
  | Time :     0.001 s
  Finished back-transformation of eigenvectors
  | Time :     0.000 s

  Obtaining occupation numbers and chemical potential using ELSI.
  | Chemical potential (Fermi level):    -8.12092189eV
  Writing Kohn-Sham eigenvalues.

  State    Occupation    Eigenvalue [Ha]    Eigenvalue [eV]
      1       2.00000         -18.891877         -514.07412
      2       2.00000         -18.838503         -512.62176
      3       2.00000         -14.095145         -383.54842
      4       2.00000         -10.113987         -275.21559
      5       2.00000         -10.062177         -273.80576
      6       2.00000         -10.034016         -273.03948
      7       2.00000          -1.130941          -30.77447
      8       2.00000          -1.029872          -28.02424
      9       2.00000          -0.921305          -25.06999
     10       2.00000          -0.793576          -21.59429
     11       2.00000          -0.709656          -19.31073
     12       2.00000          -0.627819          -17.08384
     13       2.00000          -0.571520          -15.55184
     14       2.00000          -0.542095          -14.75115
     15       2.00000          -0.527133          -14.34402
     16       2.00000          -0.510241          -13.88437
     17       2.00000          -0.488926          -13.30436
     18       2.00000          -0.471084          -12.81886
     19       2.00000          -0.459207          -12.49565
     20       2.00000          -0.442689          -12.04619
     21       2.00000          -0.396712          -10.79508
     22       2.00000          -0.366100           -9.96210
     23       2.00000          -0.338235           -9.20384
     24       2.00000          -0.307499           -8.36748
     25       0.00000          -0.124010           -3.37449
     26       0.00000          -0.038416           -1.04534
     27       0.00000          -0.007990           -0.21743
     28       0.00000           0.018675            0.50818
     29       0.00000           0.020247            0.55095
     30       0.00000           0.050310            1.36900
     31       0.00000           0.056285            1.53159
     32       0.00000           0.064500            1.75513
     33       0.00000           0.085524            2.32724
     34       0.00000           0.113809            3.09690
     35       0.00000           0.134521            3.66051
     36       0.00000           0.163858            4.45881
     37       0.00000           0.187338            5.09772
     38       0.00000           0.229798            6.25311
     39       0.00000           0.234091            6.36994
     40       0.00000           0.266919            7.26324
     41       0.00000           0.295000            8.02736
     42       0.00000           0.308805            8.40301
     43       0.00000           0.333405            9.07242
     44       0.00000           0.337859            9.19361
     45       0.00000           0.364722            9.92458
     46       0.00000           0.381024           10.36818
     47       0.00000           0.414763           11.28629
     48       0.00000           0.444789           12.10331
     49       0.00000           0.469998           12.78928
     50       0.00000           0.507986           13.82300
     51       0.00000           0.560495           15.25184
     52       0.00000           0.566873           15.42540
     53       0.00000           0.615993           16.76202

  Highest occupied state (VBM) at     -8.36747638 eV
  | Occupation number:      2.00000000

  Lowest unoccupied state (CBM) at    -3.37448995 eV
  | Occupation number:      0.00000000

  Overall HOMO-LUMO gap:      4.99298643 eV.

  Total energy components:
  | Sum of eigenvalues            :        -185.34063366 Ha       -5043.37524611 eV
  | XC energy correction          :         -42.11525208 Ha       -1146.01431779 eV
  | XC potential correction       :          54.14431146 Ha        1473.34167773 eV
  | Free-atom electrostatic energy:        -146.86474902 Ha       -3996.39315499 eV
  | Hartree energy correction     :          -3.39838806 Ha         -92.47484418 eV
  | vdW energy correction         :           0.00000000 Ha           0.00000000 eV
  | Entropy correction            :          -0.00000000 Ha          -0.00000000 eV
  | ---------------------------
  | Total energy                  :        -323.57471136 Ha       -8804.91588535 eV
  | Total energy, T -> 0          :        -323.57471136 Ha       -8804.91588535 eV  <-- do not rely on this value for anything but (periodic) metals
  | Electronic free energy        :        -323.57471136 Ha       -8804.91588535 eV

  Derived energy quantities:
  | Kinetic energy                :         322.29604425 Ha        8770.12158287 eV
  | Electrostatic energy          :        -603.75550353 Ha      -16429.02315043 eV
  | Energy correction for multipole
  | error in Hartree potential    :           0.01223485 Ha           0.33292711 eV
  | Sum of eigenvalues per atom                           :        -387.95194201 eV
  | Total energy (T->0) per atom                          :        -677.30122195 eV  <-- do not rely on this value for anything but (periodic) metals
  | Electronic free energy per atom                       :        -677.30122195 eV

  Self-consistency convergence accuracy:
  | Change of charge density      :  0.5885E+00
  | Change of sum of eigenvalues  :  0.9481E+02 eV
  | Change of total energy        :  0.5052E+01 eV

  End self-consistency iteration #     1       :  max(cpu_time)    wall_clock(cpu1)
  | Time for this iteration                    :        1.186 s           1.188 s
  | Charge density update                      :        0.392 s           0.393 s
  | Density mixing                             :        0.005 s           0.006 s
  | Hartree multipole update                   :        0.009 s           0.009 s
  | Hartree multipole summation                :        0.283 s           0.283 s
  | Integration                                :        0.493 s           0.494 s
  | Solution of K.-S. eqns.                    :        0.002 s           0.002 s
  | Total energy evaluation                    :        0.000 s           0.000 s

  Partial memory accounting:
  | Current value for overall tracked memory usage on task 0  :           0.165 MB
  | Peak value for overall tracked memory usage on task 0     :           0.691 MB after allocating gradient_basis_wave
  | Largest tracked array allocation on task 0 so far         :           0.394 MB  when allocating gradient_basis_wave
  Note:  These values currently only include a subset of arrays which are explicitly tracked.
  The "true" memory usage will be greater.
------------------------------------------------------------

------------------------------------------------------------
          Begin self-consistency iteration #    2

  Date     :  20200710, Time     :  151529.622
------------------------------------------------------------
  Evaluating new KS density.
  Integration grid: deviation in total charge (<rho> - N_e) =   7.105427E-14
  Pulay mixing of updated and previous charge densities.

  Evaluating partitioned Hartree potential by multipole expansion.
  | Analytical far-field extrapolation by fixed multipoles:
  | Hartree multipole sum: apparent total charge =  -0.224006E-03
  Summing up the Hartree potential.
  Time summed over all CPUs for potential: real work        0.282 s, elapsed        0.282 s
  | RMS charge density error from multipole expansion :   0.138412E-01

  Integrating Hamiltonian matrix: batch-based integration.
  Time summed over all CPUs for integration: real work        0.493 s, elapsed        0.493 s

  Updating Kohn-Sham eigenvalues and eigenvectors using ELSI and the ELPA eigensolver.
  Finished Cholesky decomposition
  | Time :     0.000 s
  Finished transformation to standard eigenproblem
  | Time :     0.000 s
  Starting LAPACK eigensolver
  Finished solving standard eigenproblem
  | Time :     0.001 s
  Finished back-transformation of eigenvectors
  | Time :     0.000 s

  Obtaining occupation numbers and chemical potential using ELSI.
  | Chemical potential (Fermi level):    -2.59293264eV
  Highest occupied state (VBM) at     -6.30402163 eV
  | Occupation number:      2.00000000

  Lowest unoccupied state (CBM) at    -2.10241158 eV
  | Occupation number:      0.00000000

  Overall HOMO-LUMO gap:      4.20161005 eV.

  Checking to see if s.c.f. parameters should be adjusted.

  Total energy components:
  | Sum of eigenvalues            :        -181.67088807 Ha       -4943.51638766 eV
  | XC energy correction          :         -42.47872971 Ha       -1155.90504724 eV
  | XC potential correction       :          54.61564327 Ha        1486.16726884 eV
  | Free-atom electrostatic energy:        -146.86474902 Ha       -3996.39315499 eV
  | Hartree energy correction     :          -7.09525160 Ha        -193.07161935 eV
  | vdW energy correction         :           0.00000000 Ha           0.00000000 eV
  | Entropy correction            :           0.00000000 Ha           0.00000000 eV
  | ---------------------------
  | Total energy                  :        -323.49397512 Ha       -8802.71894040 eV
  | Total energy, T -> 0          :        -323.49397512 Ha       -8802.71894040 eV  <-- do not rely on this value for anything but (periodic) metals
  | Electronic free energy        :        -323.49397512 Ha       -8802.71894040 eV

  Derived energy quantities:
  | Kinetic energy                :         323.62826079 Ha        8806.37303932 eV
  | Electrostatic energy          :        -604.64350619 Ha      -16453.18693248 eV
  | Energy correction for multipole
  | error in Hartree potential    :           0.02700051 Ha           0.73472134 eV
  | Sum of eigenvalues per atom                           :        -380.27049136 eV
  | Total energy (T->0) per atom                          :        -677.13222618 eV  <-- do not rely on this value for anything but (periodic) metals
  | Electronic free energy per atom                       :        -677.13222618 eV

  Self-consistency convergence accuracy:
  | Change of charge density      :  0.3674E+00
  | Change of sum of eigenvalues  :  0.9986E+02 eV
  | Change of total energy        :  0.2197E+01 eV

  End self-consistency iteration #     2       :  max(cpu_time)    wall_clock(cpu1)
  | Time for this iteration                    :        1.177 s           1.178 s
  | Charge density update                      :        0.384 s           0.384 s
  | Density mixing                             :        0.007 s           0.007 s
  | Hartree multipole update                   :        0.009 s           0.009 s
  | Hartree multipole summation                :        0.282 s           0.282 s
  | Integration                                :        0.492 s           0.493 s
  | Solution of K.-S. eqns.                    :        0.002 s           0.003 s
  | Total energy evaluation                    :        0.000 s           0.000 s

  Partial memory accounting:
  | Current value for overall tracked memory usage on task 0  :           0.166 MB
  | Peak value for overall tracked memory usage on task 0     :           0.691 MB after allocating gradient_basis_wave
  | Largest tracked array allocation on task 0 so far         :           0.394 MB  when allocating gradient_basis_wave
  Note:  These values currently only include a subset of arrays which are explicitly tracked.
  The "true" memory usage will be greater.
------------------------------------------------------------

------------------------------------------------------------
          Begin self-consistency iteration #    3

  Date     :  20200710, Time     :  151530.801
------------------------------------------------------------
  Evaluating new KS density.
  Integration grid: deviation in total charge (<rho> - N_e) =  -4.973799E-14
  Pulay mixing of updated and previous charge densities.

  Evaluating partitioned Hartree potential by multipole expansion.
  | Analytical far-field extrapolation by fixed multipoles:
  | Hartree multipole sum: apparent total charge =  -0.318179E-03
  Summing up the Hartree potential.
  Time summed over all CPUs for potential: real work        0.283 s, elapsed        0.283 s
  | RMS charge density error from multipole expansion :   0.218709E-01

  Integrating Hamiltonian matrix: batch-based integration.
  Time summed over all CPUs for integration: real work        0.499 s, elapsed        0.499 s

  Updating Kohn-Sham eigenvalues and eigenvectors using ELSI and the ELPA eigensolver.
  Finished Cholesky decomposition
  | Time :     0.000 s
  Finished transformation to standard eigenproblem
  | Time :     0.000 s
  Starting LAPACK eigensolver
  Finished solving standard eigenproblem
  | Time :     0.002 s
  Finished back-transformation of eigenvectors
  | Time :     0.000 s

  Obtaining occupation numbers and chemical potential using ELSI.
  | Chemical potential (Fermi level):    -2.01185719eV
  Highest occupied state (VBM) at     -5.61926027 eV
  | Occupation number:      2.00000000

  Lowest unoccupied state (CBM) at    -1.40024316 eV
  | Occupation number:      0.00000000

  Overall HOMO-LUMO gap:      4.21901711 eV.

  Total energy components:
  | Sum of eigenvalues            :        -180.36232097 Ha       -4907.90846515 eV
  | XC energy correction          :         -42.62799458 Ha       -1159.96675108 eV
  | XC potential correction       :          54.80599918 Ha        1491.34711661 eV
  | Free-atom electrostatic energy:        -146.86474902 Ha       -3996.39315499 eV
  | Hartree energy correction     :          -8.43166137 Ha        -229.43717963 eV
  | vdW energy correction         :           0.00000000 Ha           0.00000000 eV
  | Entropy correction            :           0.00000000 Ha           0.00000000 eV
  | ---------------------------
  | Total energy                  :        -323.48072676 Ha       -8802.35843424 eV
  | Total energy, T -> 0          :        -323.48072676 Ha       -8802.35843424 eV  <-- do not rely on this value for anything but (periodic) metals
  | Electronic free energy        :        -323.48072676 Ha       -8802.35843424 eV

  Derived energy quantities:
  | Kinetic energy                :         323.17083918 Ha        8793.92596399 eV
  | Electrostatic energy          :        -604.02357135 Ha      -16436.31764715 eV
  | Energy correction for multipole
  | error in Hartree potential    :           0.03825654 Ha           1.04101337 eV
  | Sum of eigenvalues per atom                           :        -377.53142040 eV
  | Total energy (T->0) per atom                          :        -677.10449494 eV  <-- do not rely on this value for anything but (periodic) metals
  | Electronic free energy per atom                       :        -677.10449494 eV

  Self-consistency convergence accuracy:
  | Change of charge density      :  0.2054E+00
  | Change of sum of eigenvalues  :  0.3561E+02 eV
  | Change of total energy        :  0.3605E+00 eV

  End self-consistency iteration #     3       :  max(cpu_time)    wall_clock(cpu1)
  | Time for this iteration                    :        1.180 s           1.187 s
  | Charge density update                      :        0.384 s           0.384 s
  | Density mixing                             :        0.008 s           0.008 s
  | Hartree multipole update                   :        0.009 s           0.009 s
  | Hartree multipole summation                :        0.283 s           0.284 s
  | Integration                                :        0.493 s           0.499 s
  | Solution of K.-S. eqns.                    :        0.002 s           0.002 s
  | Total energy evaluation                    :        0.000 s           0.001 s

  Partial memory accounting:
  | Current value for overall tracked memory usage on task 0  :           0.166 MB
  | Peak value for overall tracked memory usage on task 0     :           0.692 MB after allocating gradient_basis_wave
  | Largest tracked array allocation on task 0 so far         :           0.394 MB  when allocating gradient_basis_wave
  Note:  These values currently only include a subset of arrays which are explicitly tracked.
  The "true" memory usage will be greater.
------------------------------------------------------------

------------------------------------------------------------
          Begin self-consistency iteration #    4

  Date     :  20200710, Time     :  151531.990
------------------------------------------------------------
  Evaluating new KS density.
  Integration grid: deviation in total charge (<rho> - N_e) =  -7.105427E-14
  Pulay mixing of updated and previous charge densities.

  Evaluating partitioned Hartree potential by multipole expansion.
  | Analytical far-field extrapolation by fixed multipoles:
  | Hartree multipole sum: apparent total charge =  -0.348895E-03
  Summing up the Hartree potential.
  Time summed over all CPUs for potential: real work        0.282 s, elapsed        0.282 s
  | RMS charge density error from multipole expansion :   0.251018E-01

  Integrating Hamiltonian matrix: batch-based integration.
  Time summed over all CPUs for integration: real work        0.492 s, elapsed        0.492 s

  Updating Kohn-Sham eigenvalues and eigenvectors using ELSI and the ELPA eigensolver.
  Finished Cholesky decomposition
  | Time :     0.000 s
  Finished transformation to standard eigenproblem
  | Time :     0.000 s
  Starting LAPACK eigensolver
  Finished solving standard eigenproblem
  | Time :     0.001 s
  Finished back-transformation of eigenvectors
  | Time :     0.000 s

  Obtaining occupation numbers and chemical potential using ELSI.
  | Chemical potential (Fermi level):    -1.88927807eV
  Highest occupied state (VBM) at     -5.43313721 eV
  | Occupation number:      2.00000000

  Lowest unoccupied state (CBM) at    -1.30626714 eV
  | Occupation number:      0.00000000

  Overall HOMO-LUMO gap:      4.12687007 eV.

  Total energy components:
  | Sum of eigenvalues            :        -180.19369712 Ha       -4903.31997675 eV
  | XC energy correction          :         -42.66591795 Ha       -1160.99869841 eV
  | XC potential correction       :          54.85387980 Ha        1492.65001447 eV
  | Free-atom electrostatic energy:        -146.86474902 Ha       -3996.39315499 eV
  | Hartree energy correction     :          -8.60934538 Ha        -234.27220752 eV
  | vdW energy correction         :           0.00000000 Ha           0.00000000 eV
  | Entropy correction            :           0.00000000 Ha           0.00000000 eV
  | ---------------------------
  | Total energy                  :        -323.47982967 Ha       -8802.33402320 eV
  | Total energy, T -> 0          :        -323.47982967 Ha       -8802.33402320 eV  <-- do not rely on this value for anything but (periodic) metals
  | Electronic free energy        :        -323.47982967 Ha       -8802.33402320 eV

  Derived energy quantities:
  | Kinetic energy                :         322.81234397 Ha        8784.17081312 eV
  | Electrostatic energy          :        -603.62625569 Ha      -16425.50613790 eV
  | Energy correction for multipole
  | error in Hartree potential    :           0.04236511 Ha           1.15281323 eV
  | Sum of eigenvalues per atom                           :        -377.17845975 eV
  | Total energy (T->0) per atom                          :        -677.10261717 eV  <-- do not rely on this value for anything but (periodic) metals
  | Electronic free energy per atom                       :        -677.10261717 eV

  Self-consistency convergence accuracy:
  | Change of charge density      :  0.6290E-01
  | Change of sum of eigenvalues  :  0.4588E+01 eV
  | Change of total energy        :  0.2441E-01 eV

  End self-consistency iteration #     4       :  max(cpu_time)    wall_clock(cpu1)
  | Time for this iteration                    :        1.180 s           1.180 s
  | Charge density update                      :        0.384 s           0.384 s
  | Density mixing                             :        0.009 s           0.010 s
  | Hartree multipole update                   :        0.009 s           0.009 s
  | Hartree multipole summation                :        0.282 s           0.282 s
  | Integration                                :        0.492 s           0.493 s
  | Solution of K.-S. eqns.                    :        0.002 s           0.002 s
  | Total energy evaluation                    :        0.000 s           0.000 s

  Partial memory accounting:
  | Current value for overall tracked memory usage on task 0  :           0.166 MB
  | Peak value for overall tracked memory usage on task 0     :           0.692 MB after allocating gradient_basis_wave
  | Largest tracked array allocation on task 0 so far         :           0.394 MB  when allocating gradient_basis_wave
  Note:  These values currently only include a subset of arrays which are explicitly tracked.
  The "true" memory usage will be greater.
------------------------------------------------------------

------------------------------------------------------------
          Begin self-consistency iteration #    5

  Date     :  20200710, Time     :  151533.173
------------------------------------------------------------
  Evaluating new KS density.
  Integration grid: deviation in total charge (<rho> - N_e) =   6.394885E-14
  Pulay mixing of updated and previous charge densities.

  Evaluating partitioned Hartree potential by multipole expansion.
  | Analytical far-field extrapolation by fixed multipoles:
  | Hartree multipole sum: apparent total charge =  -0.342728E-03
  Summing up the Hartree potential.
  Time summed over all CPUs for potential: real work        0.282 s, elapsed        0.282 s
  | RMS charge density error from multipole expansion :   0.248696E-01

  Integrating Hamiltonian matrix: batch-based integration.
  Time summed over all CPUs for integration: real work        0.492 s, elapsed        0.492 s

  Updating Kohn-Sham eigenvalues and eigenvectors using ELSI and the ELPA eigensolver.
  Finished Cholesky decomposition
  | Time :     0.000 s
  Finished transformation to standard eigenproblem
  | Time :     0.000 s
  Starting LAPACK eigensolver
  Finished solving standard eigenproblem
  | Time :     0.002 s
  Finished back-transformation of eigenvectors
  | Time :     0.000 s

  Obtaining occupation numbers and chemical potential using ELSI.
  | Chemical potential (Fermi level):    -1.95341114eV
  Highest occupied state (VBM) at     -5.53591440 eV
  | Occupation number:      2.00000000

  Lowest unoccupied state (CBM) at    -1.41097522 eV
  | Occupation number:      0.00000000

  Overall HOMO-LUMO gap:      4.12493918 eV.

  Total energy components:
  | Sum of eigenvalues            :        -180.42640287 Ha       -4909.65222251 eV
  | XC energy correction          :         -42.63852833 Ha       -1160.25338878 eV
  | XC potential correction       :          54.81832593 Ha        1491.68254452 eV
  | Free-atom electrostatic energy:        -146.86474902 Ha       -3996.39315499 eV
  | Hartree energy correction     :          -8.36817438 Ha        -227.70961065 eV
  | vdW energy correction         :           0.00000000 Ha           0.00000000 eV
  | Entropy correction            :           0.00000000 Ha           0.00000000 eV
  | ---------------------------
  | Total energy                  :        -323.47952867 Ha       -8802.32583241 eV
  | Total energy, T -> 0          :        -323.47952867 Ha       -8802.32583241 eV  <-- do not rely on this value for anything but (periodic) metals
  | Electronic free energy        :        -323.47952867 Ha       -8802.32583241 eV

  Derived energy quantities:
  | Kinetic energy                :         322.67823668 Ha        8780.52156800 eV
  | Electrostatic energy          :        -603.51923702 Ha      -16422.59401163 eV
  | Energy correction for multipole
  | error in Hartree potential    :           0.04170248 Ha           1.13478213 eV
  | Sum of eigenvalues per atom                           :        -377.66555558 eV
  | Total energy (T->0) per atom                          :        -677.10198711 eV  <-- do not rely on this value for anything but (periodic) metals
  | Electronic free energy per atom                       :        -677.10198711 eV

  Self-consistency convergence accuracy:
  | Change of charge density      :  0.1994E-01
  | Change of sum of eigenvalues  : -0.6332E+01 eV
  | Change of total energy        :  0.8191E-02 eV

  End self-consistency iteration #     5       :  max(cpu_time)    wall_clock(cpu1)
  | Time for this iteration                    :        1.181 s           1.182 s
  | Charge density update                      :        0.384 s           0.384 s
  | Density mixing                             :        0.011 s           0.011 s
  | Hartree multipole update                   :        0.009 s           0.009 s
  | Hartree multipole summation                :        0.282 s           0.283 s
  | Integration                                :        0.492 s           0.492 s
  | Solution of K.-S. eqns.                    :        0.002 s           0.003 s
  | Total energy evaluation                    :        0.000 s           0.000 s

  Partial memory accounting:
  | Current value for overall tracked memory usage on task 0  :           0.166 MB
  | Peak value for overall tracked memory usage on task 0     :           0.692 MB after allocating gradient_basis_wave
  | Largest tracked array allocation on task 0 so far         :           0.394 MB  when allocating gradient_basis_wave
  Note:  These values currently only include a subset of arrays which are explicitly tracked.
  The "true" memory usage will be greater.
------------------------------------------------------------

------------------------------------------------------------
          Begin self-consistency iteration #    6

  Date     :  20200710, Time     :  151534.358
------------------------------------------------------------
  Evaluating new KS density.
  Integration grid: deviation in total charge (<rho> - N_e) =   1.421085E-14
  Pulay mixing of updated and previous charge densities.

  Evaluating partitioned Hartree potential by multipole expansion.
  | Analytical far-field extrapolation by fixed multipoles:
  | Hartree multipole sum: apparent total charge =  -0.347486E-03
  Summing up the Hartree potential.
  Time summed over all CPUs for potential: real work        0.282 s, elapsed        0.282 s
  | RMS charge density error from multipole expansion :   0.253287E-01

  Integrating Hamiltonian matrix: batch-based integration.
  Time summed over all CPUs for integration: real work        0.493 s, elapsed        0.493 s

  Updating Kohn-Sham eigenvalues and eigenvectors using ELSI and the ELPA eigensolver.
  Finished Cholesky decomposition
  | Time :     0.000 s
  Finished transformation to standard eigenproblem
  | Time :     0.000 s
  Starting LAPACK eigensolver
  Finished solving standard eigenproblem
  | Time :     0.001 s
  Finished back-transformation of eigenvectors
  | Time :     0.000 s

  Obtaining occupation numbers and chemical potential using ELSI.
  | Chemical potential (Fermi level):    -1.92903457eV
  Highest occupied state (VBM) at     -5.48930871 eV
  | Occupation number:      2.00000000

  Lowest unoccupied state (CBM) at    -1.40427032 eV
  | Occupation number:      0.00000000

  Overall HOMO-LUMO gap:      4.08503839 eV.

  Total energy components:
  | Sum of eigenvalues            :        -180.38570112 Ha       -4908.54467140 eV
  | XC energy correction          :         -42.64218926 Ha       -1160.35300789 eV
  | XC potential correction       :          54.82305908 Ha        1491.81133999 eV
  | Free-atom electrostatic energy:        -146.86474902 Ha       -3996.39315499 eV
  | Hartree energy correction     :          -8.40991736 Ha        -228.84549477 eV
  | vdW energy correction         :           0.00000000 Ha           0.00000000 eV
  | Entropy correction            :           0.00000000 Ha           0.00000000 eV
  | ---------------------------
  | Total energy                  :        -323.47949767 Ha       -8802.32498906 eV
  | Total energy, T -> 0          :        -323.47949767 Ha       -8802.32498906 eV  <-- do not rely on this value for anything but (periodic) metals
  | Electronic free energy        :        -323.47949767 Ha       -8802.32498906 eV

  Derived energy quantities:
  | Kinetic energy                :         322.62211306 Ha        8778.99436655 eV
  | Electrostatic energy          :        -603.45942147 Ha      -16420.96634772 eV
  | Energy correction for multipole
  | error in Hartree potential    :           0.04220232 Ha           1.14838349 eV
  | Sum of eigenvalues per atom                           :        -377.58035934 eV
  | Total energy (T->0) per atom                          :        -677.10192224 eV  <-- do not rely on this value for anything but (periodic) metals
  | Electronic free energy per atom                       :        -677.10192224 eV

  Self-consistency convergence accuracy:
  | Change of charge density      :  0.1009E-01
  | Change of sum of eigenvalues  :  0.1108E+01 eV
  | Change of total energy        :  0.8434E-03 eV

  End self-consistency iteration #     6       :  max(cpu_time)    wall_clock(cpu1)
  | Time for this iteration                    :        1.182 s           1.183 s
  | Charge density update                      :        0.384 s           0.384 s
  | Density mixing                             :        0.012 s           0.011 s
  | Hartree multipole update                   :        0.009 s           0.009 s
  | Hartree multipole summation                :        0.282 s           0.283 s
  | Integration                                :        0.493 s           0.493 s
  | Solution of K.-S. eqns.                    :        0.002 s           0.002 s
  | Total energy evaluation                    :        0.000 s           0.000 s

  Partial memory accounting:
  | Current value for overall tracked memory usage on task 0  :           0.166 MB
  | Peak value for overall tracked memory usage on task 0     :           0.692 MB after allocating gradient_basis_wave
  | Largest tracked array allocation on task 0 so far         :           0.394 MB  when allocating gradient_basis_wave
  Note:  These values currently only include a subset of arrays which are explicitly tracked.
  The "true" memory usage will be greater.
------------------------------------------------------------

------------------------------------------------------------
          Begin self-consistency iteration #    7

  Date     :  20200710, Time     :  151535.543
------------------------------------------------------------
  Evaluating new KS density.
  Integration grid: deviation in total charge (<rho> - N_e) =  -2.842171E-14
  Pulay mixing of updated and previous charge densities.

  Evaluating partitioned Hartree potential by multipole expansion.
  | Analytical far-field extrapolation by fixed multipoles:
  | Hartree multipole sum: apparent total charge =  -0.348221E-03
  Summing up the Hartree potential.
  Time summed over all CPUs for potential: real work        0.282 s, elapsed        0.282 s
  | RMS charge density error from multipole expansion :   0.254218E-01

  Integrating Hamiltonian matrix: batch-based integration.
  Time summed over all CPUs for integration: real work        0.492 s, elapsed        0.492 s

  Updating Kohn-Sham eigenvalues and eigenvectors using ELSI and the ELPA eigensolver.
  Finished Cholesky decomposition
  | Time :     0.000 s
  Finished transformation to standard eigenproblem
  | Time :     0.000 s
  Starting LAPACK eigensolver
  Finished solving standard eigenproblem
  | Time :     0.001 s
  Finished back-transformation of eigenvectors
  | Time :     0.000 s

[...]
  |   Hirshfeld dipole moment :      0.06211276
  |   Hirshfeld second moments:      0.01722982      -0.02493111      -0.01605479
  |                                 -0.02493111      -0.02404329       0.00528686
  |                                 -0.01605479       0.00528686      -0.02321045
  ----------------------------------------------------------------------
  | Atom    12: O
  |   Hirshfeld charge        :     -0.16413349
  |   Free atom volume        :     23.61338643
  |   Hirshfeld volume        :     21.14564612
  |   Hirshfeld dipole vector :      0.00458917       0.02040162       0.04051885
  |   Hirshfeld dipole moment :      0.04559675
  |   Hirshfeld second moments:      0.10106103       0.01401639      -0.02183402
  |                                  0.01401639       0.04093516       0.00646384
  |                                 -0.02183402       0.00646384       0.01022340
  ----------------------------------------------------------------------
  | Atom    13: H
  |   Hirshfeld charge        :      0.18201358
  |   Free atom volume        :      9.95071624
  |   Hirshfeld volume        :      6.15274579
  |   Hirshfeld dipole vector :     -0.11567489      -0.00036461       0.05627600
  |   Hirshfeld dipole moment :      0.12863826
  |   Hirshfeld second moments:      0.12269106       0.00395032      -0.00487688
  |                                  0.00395032       0.12305702       0.00184657
  |                                 -0.00487688       0.00184657       0.09969575
  ----------------------------------------------------------------------


  Total energy components:
  | Sum of eigenvalues            :        -180.39104484 Ha       -4908.69008137 eV
  | XC energy correction          :         -42.63817186 Ha       -1160.24368881 eV
  | XC potential correction       :          54.81794363 Ha        1491.67214161 eV
  | Free-atom electrostatic energy:        -146.86474902 Ha       -3996.39315499 eV
  | Hartree energy correction     :          -8.40344782 Ha        -228.66944981 eV
  | vdW energy correction         :          -0.00340243 Ha          -0.09258493 eV
  | Entropy correction            :           0.00000000 Ha           0.00000000 eV
  | ---------------------------
  | Total energy                  :        -323.48287234 Ha       -8802.41681830 eV
  | Total energy, T -> 0          :        -323.48287234 Ha       -8802.41681830 eV  <-- do not rely on this value for anything but (periodic) metals
  | Electronic free energy        :        -323.48287234 Ha       -8802.41681830 eV

  Derived energy quantities:
  | Kinetic energy                :         322.58153776 Ha        8777.89025664 eV
  | Electrostatic energy          :        -603.42283581 Ha      -16419.97080120 eV
  | Energy correction for multipole
  | error in Hartree potential    :           0.04223358 Ha           1.14923421 eV
  | Sum of eigenvalues per atom                           :        -377.59154472 eV
  | Total energy (T->0) per atom                          :        -677.10898602 eV  <-- do not rely on this value for anything but (periodic) metals
  | Electronic free energy per atom                       :        -677.10898602 eV

  atomic forces [eV/Ang]:
  -----------------------
  atom #    1
   Hellmann-Feynman              :  0.689919E+00  0.159268E+00  0.528649E+00
   Ionic forces                  :  0.000000E+00  0.000000E+00  0.000000E+00
   Multipole                     :  0.384406E-01  0.514838E+00 -0.233755E+00
   Pulay + GGA                   : -0.103330E+01 -0.325408E+00 -0.110526E+01
   Van der Waals                 :  0.612139E-02  0.523673E-02 -0.283526E-02
   ----------------------------------------------------------------
   Total forces(   1)            : -0.298815E+00  0.353935E+00 -0.813202E+00
  atom #    2
   Hellmann-Feynman              :  0.243224E+00  0.185543E-01 -0.854877E-01
   Ionic forces                  :  0.000000E+00  0.000000E+00  0.000000E+00
   Multipole                     :  0.192587E+00  0.382306E-01  0.134936E-01
   Pulay + GGA                   : -0.136145E+00 -0.142667E-02  0.425699E-01
   Van der Waals                 :  0.369060E-02 -0.424721E-02 -0.654152E-02
   ----------------------------------------------------------------
   Total forces(   2)            :  0.303357E+00  0.511110E-01 -0.359658E-01
  atom #    3
   Hellmann-Feynman              : -0.199804E+01 -0.111275E+02 -0.231284E+01
   Ionic forces                  :  0.000000E+00  0.000000E+00  0.000000E+00
   Multipole                     : -0.172815E+00  0.708205E-01 -0.855090E+00
   Pulay + GGA                   :  0.262143E+01  0.106368E+02  0.380467E+01
   Van der Waals                 :  0.170751E-02 -0.819379E-02 -0.570265E-02
   ----------------------------------------------------------------
   Total forces(   3)            :  0.452285E+00 -0.428002E+00  0.631037E+00
  atom #    4
   Hellmann-Feynman              :  0.287871E-01  0.200218E+00 -0.153732E+00
   Ionic forces                  :  0.000000E+00  0.000000E+00  0.000000E+00
   Multipole                     : -0.702457E-01  0.590282E-01 -0.681085E-01
   Pulay + GGA                   :  0.145056E+00 -0.198785E+00 -0.638136E-02
   Van der Waals                 : -0.167607E-02 -0.627708E-02 -0.637339E-02
   ----------------------------------------------------------------
   Total forces(   4)            :  0.101921E+00  0.541842E-01 -0.234595E+00
  atom #    5
   Hellmann-Feynman              : -0.442653E-01  0.326393E+00 -0.130863E+00
   Ionic forces                  :  0.000000E+00  0.000000E+00  0.000000E+00
   Multipole                     :  0.241745E-01  0.393174E-01 -0.104963E+00
   Pulay + GGA                   : -0.143558E+00 -0.163595E+00  0.946242E-01
   Van der Waals                 : -0.269418E-02 -0.295954E-02  0.255307E-02
   ----------------------------------------------------------------
   Total forces(   5)            : -0.166343E+00  0.199156E+00 -0.138648E+00
  atom #    6
   Hellmann-Feynman              :  0.443154E+00 -0.689830E+00  0.580081E+00
   Ionic forces                  :  0.000000E+00  0.000000E+00  0.000000E+00
   Multipole                     : -0.733854E-01  0.598645E+00  0.224583E+00
   Pulay + GGA                   : -0.255753E-01 -0.359708E+00 -0.399656E+00
   Van der Waals                 : -0.439767E-02  0.687102E-02  0.383997E-02
   ----------------------------------------------------------------
   Total forces(   6)            :  0.339795E+00 -0.444023E+00  0.408848E+00
  atom #    7
   Hellmann-Feynman              : -0.258577E+00 -0.633454E-01 -0.533435E-01
   Ionic forces                  :  0.000000E+00  0.000000E+00  0.000000E+00
   Multipole                     : -0.120482E+00  0.503938E-01  0.302951E-01
   Pulay + GGA                   :  0.108567E+00  0.246677E-01  0.358140E-01
   Van der Waals                 : -0.231050E-02  0.274687E-02  0.775093E-02
   ----------------------------------------------------------------
   Total forces(   7)            : -0.272802E+00  0.144630E-01  0.205165E-01
  atom #    8
   Hellmann-Feynman              :  0.352974E-02  0.442559E-01  0.246280E+00
   Ionic forces                  :  0.000000E+00  0.000000E+00  0.000000E+00
   Multipole                     :  0.164430E-01  0.613833E-01  0.119731E+00
   Pulay + GGA                   : -0.430436E-01 -0.472054E-01 -0.108985E+00
   Van der Waals                 : -0.314925E-02  0.112508E-01  0.592257E-03
   ----------------------------------------------------------------
   Total forces(   8)            : -0.262201E-01  0.696846E-01  0.257618E+00
  atom #    9
   Hellmann-Feynman              :  0.107851E+00  0.394143E-01 -0.180154E+00
   Ionic forces                  :  0.000000E+00  0.000000E+00  0.000000E+00
   Multipole                     :  0.172334E-01  0.128685E+00 -0.963474E-02
   Pulay + GGA                   : -0.392004E-01 -0.917895E-01  0.482636E-01
   Van der Waals                 :  0.340263E-03  0.620848E-02  0.626636E-02
   ----------------------------------------------------------------
   Total forces(   9)            :  0.862240E-01  0.825186E-01 -0.135259E+00
  atom #   10
   Hellmann-Feynman              :  0.296258E+01  0.517346E+01  0.117798E+01
   Ionic forces                  :  0.000000E+00  0.000000E+00  0.000000E+00
   Multipole                     :  0.893056E-01 -0.209445E+00  0.299848E+00
   Pulay + GGA                   : -0.104367E+01 -0.322475E+01 -0.461090E+00
   Van der Waals                 :  0.465671E-02 -0.131431E-01 -0.112657E-02
   ----------------------------------------------------------------
   Total forces(  10)            :  0.201287E+01  0.172612E+01  0.101561E+01
  atom #   11
   Hellmann-Feynman              :  0.422022E+01 -0.213933E+01  0.139106E+02
   Ionic forces                  :  0.000000E+00  0.000000E+00  0.000000E+00
   Multipole                     : -0.219195E-01 -0.676760E+00  0.812385E+00
   Pulay + GGA                   : -0.350807E+01  0.369711E+01 -0.132783E+02
   Van der Waals                 : -0.233117E-02 -0.118974E-01  0.307454E-02
   ----------------------------------------------------------------
   Total forces(  11)            :  0.687907E+00  0.869117E+00  0.144770E+01
  atom #   12
   Hellmann-Feynman              :  0.106959E+00 -0.684547E+01 -0.148555E+02
   Ionic forces                  :  0.000000E+00  0.000000E+00  0.000000E+00
   Multipole                     : -0.597148E+00 -0.124102E+01 -0.573316E+00
   Pulay + GGA                   : -0.225418E+01  0.676523E+01  0.130741E+02
   Van der Waals                 :  0.111025E-02  0.100682E-01  0.136765E-02
   ----------------------------------------------------------------
   Total forces(  12)            : -0.274326E+01 -0.131118E+01 -0.235333E+01
  atom #   13
   Hellmann-Feynman              : -0.743085E+00 -0.122163E+01  0.143360E+00
   Ionic forces                  :  0.000000E+00  0.000000E+00  0.000000E+00
   Multipole                     : -0.722990E-01  0.562866E-03  0.187680E-01
   Pulay + GGA                   :  0.336326E+00 -0.203224E-01 -0.231144E+00
   Van der Waals                 : -0.106788E-02  0.433610E-02 -0.286538E-02
   ----------------------------------------------------------------
   Total forces(  13)            : -0.480126E+00 -0.123705E+01 -0.718814E-01

  Timings for VdW correction (Tkatchenko-Scheffler 2009 or later):
  | CPU time:        0.088 s, Wall clock time:        0.089 s.
  Removing unitary transformations (pure translations, rotations) from forces on atoms.
  Atomic forces before filtering:
  | Net force on center of mass :  -0.320119E-02  0.292981E-04 -0.154868E-02 eV/A
  | Net torque on center of mass:  -0.884611E-02  0.444662E-02 -0.271719E-02 eV
  Atomic forces after filtering:
  | Net force on center of mass :   0.535218E-15  0.356812E-15 -0.669023E-16 eV/A
  | Net torque on center of mass:   0.566451E-15  0.177016E-15  0.113290E-14 eV

  Energy and forces in a compact form:
  | Total energy uncorrected      :         -0.880241681829605E+04 eV
  | Total energy corrected        :         -0.880241681829605E+04 eV  <-- do not rely on this value for anything but (periodic) metals
  | Electronic free energy        :         -0.880241681829605E+04 eV
  Total atomic forces (unitary forces cleaned) [eV/Ang]:
  |   1         -0.298546220416141E+00          0.354009137476871E+00         -0.813001157884079E+00
  |   2          0.303625591395793E+00          0.512900364666766E-01         -0.355864786246879E-01
  |   3          0.452784411817504E+00         -0.427681155817672E+00          0.631159980026299E+00
  |   4          0.102374477087133E+00          0.544377663783499E-01         -0.234488022970195E+00
  |   5         -0.165782973731986E+00          0.199670718398511E+00         -0.138327573554015E+00
  |   6          0.339823935668934E+00         -0.444146902726239E+00          0.409229366662917E+00
  |   7         -0.272778578914479E+00          0.142307255382470E-01          0.207258136533198E-01
  |   8         -0.263607077833476E-01          0.693811998520351E-01          0.258061438092343E+00
  |   9          0.862489567481493E-01          0.825336490686722E-01         -0.134632022499970E+00
  |  10          0.201314264175390E+01          0.172599931536075E+01          0.101548206118514E+01
  |  11          0.688018278201860E+00          0.868791085048612E+00          0.144756317044133E+01
  |  12         -0.274279443213808E+01         -0.131122455040895E+01         -0.235375406484469E+01
  |  13         -0.479755379689236E+00         -0.123729102463587E+01         -0.724325096837110E-01

  ------------------------------------ 
  Start decomposition of the XC Energy 
  ------------------------------------ 
  X and C from original XC functional choice 
  Hartree-Fock Energy :          0.000000000 Ha              0.000000000 eV
  X Energy            :        -41.037893546 Ha          -1116.697900340 eV
  C Energy            :         -1.600278313 Ha            -43.545788473 eV
  Total XC Energy     :        -42.638171858 Ha          -1160.243688813 eV
  ------------------------------------ 
  LDA X and C from self-consistent density 
  X Energy LDA        :        -37.255970466 Ha          -1013.786537283 eV
  C Energy LDA        :         -3.138532717 Ha            -85.403820538 eV
  ------------------------------------ 
  End decomposition of the XC Energy 
  ------------------------------------ 

------------------------------------------------------------

------------------------------------------------------------------------------
  Final output of selected total energy values:

  The following output summarizes some interesting total energy values
  at the end of a run (AFTER all relaxation, molecular dynamics, etc.).

  | Total energy of the DFT / Hartree-Fock s.c.f. calculation      :          -8802.416818296 eV
  | Final zero-broadening corrected energy (caution - metals only) :          -8802.416818296 eV
  | For reference only, the value of 1 Hartree used in FHI-aims is :             27.211384500 eV

  Before relying on these values, please be sure to understand exactly which
  total energy value is referred to by a given number. Different objects may
  all carry the same name 'total energy'. Definitions:

  Total energy of the DFT / Hartree-Fock s.c.f. calculation:
  | Note that this energy does not include ANY quantities calculated after the
  | s.c.f. cycle, in particular not ANY RPA, MP2, etc. many-body perturbation terms.

  Final zero-broadening corrected energy:
  | For metallic systems only, a broadening of the occupation numbers at the Fermi
  | level can be extrapolated back to zero broadening by an electron-gas inspired
  | formula. For all systems that are not real metals, this value can be
  | meaningless and should be avoided.

------------------------------------------------------------------------------
  Methods described in the following list of references were used in this FHI-aims run.
  If you publish the results, please make sure to cite these reference if they apply.
  FHI-aims is an academic code, and for our developers (often, Ph.D. students
  and postdocs), scientific credit in the community is essential.
  Thank you for helping us!

  For any use of FHI-aims, please cite:

    Volker Blum, Ralf Gehrke, Felix Hanke, Paula Havu, Ville Havu,
    Xinguo Ren, Karsten Reuter, and Matthias Scheffler
    'Ab initio molecular simulations with numeric atom-centered orbitals'
    Computer Physics Communications 180, 2175-2196 (2009)
    http://dx.doi.org/10.1016/j.cpc.2009.06.022


  The scalable eigensolver library ELPA was used in your run.
  ELPA is essential especially for large systems on hundreds or thousands of CPUs.
  For ELPA, please cite:

    Andreas Marek, Volker Blum, Rainer Johanni, Ville Havu, Bruno Lang,
    Thomas Auckenthaler, Alexander Heinecke, Hans-Joachim Bungartz, and Hermann Lederer,
    'The ELPA Library - Scalable Parallel Eigenvalue Solutions
    for Electronic Structure Theory and Computational Science'
    The Journal of Physics: Condensed Matter 26, 213201 (2014).
    http://dx.doi.org/10.1088/0953-8984/26/21/213201


  The ELSI infrastructure was used in your run to solve the Kohn-Sham electronic structure.
  Please check out http://elsi-interchange.org to learn more.
  If scalability is important for your project, please acknowledge ELSI by citing:

    V. W-z. Yu, F. Corsetti, A. Garcia, W. P. Huhn, M. Jacquelin, W. Jia,
    B. Lange, L. Lin, J. Lu, W. Mi, A. Seifitokaldani, A. Vazquez-Mayagoitia,
    C. Yang, H. Yang, and V. Blum
    'ELSI: A unified software interface for Kohn-Sham electronic structure solvers'
    Computer Physics Communications 222, 267-285 (2018).
    http://dx.doi.org/10.1016/j.cpc.2017.09.007


  For the real-space grid partitioning and parallelization used in this calculation, please cite:

    Ville Havu, Volker Blum, Paula Havu, and Matthias Scheffler,
    'Efficient O(N) integration for all-electron electronic structure calculation'
    'using numerically tabulated basis functions'
    Journal of Computational Physics 228, 8367-8379 (2009).
    http://dx.doi.org/10.1016/j.jcp.2009.08.008

  Of course, there are many other important community references, e.g., those cited in the
  above references. Our list is limited to references that describe implementations in the
  FHI-aims code. The reason is purely practical (length of this list) - please credit others as well.

------------------------------------------------------------
          Leaving FHI-aims.
          Date     :  20200710, Time     :  151548.605

          Computational steps:
          | Number of self-consistency cycles          :           15
          | Number of SCF (re)initializations          :            1

          Detailed time accounting                     :  max(cpu_time)    wall_clock(cpu1)
          | Total time                                 :       21.414 s          21.483 s
          | Preparation time                           :        0.146 s           0.147 s
          | Boundary condition initalization           :        0.000 s           0.000 s
          | Grid partitioning                          :        0.110 s           0.111 s
          | Preloading free-atom quantities on grid    :        0.002 s           0.003 s
          | Free-atom superposition energy             :        0.084 s           0.084 s
          | Total time for integrations                :        8.094 s           8.104 s
          | Total time for solution of K.-S. equations :        0.035 s           0.040 s
          | Total time for density & force components  :        6.716 s           6.728 s
          | Total time for mixing                      :        0.196 s           0.197 s
          | Total time for Hartree multipole update    :        0.133 s           0.135 s
          | Total time for Hartree multipole sum       :        5.501 s           5.502 s
          | Total time for total energy evaluation     :        0.002 s           0.002 s
          | Total time for vdW correction              :        0.088 s           0.089 s

          Partial memory accounting:
          | Residual value for overall tracked memory usage across tasks :           0.000 MB (should be 0.000 MB)
          | Peak values for overall tracked memory usage (after allocating hessian_basis_wave):
          |   Minimum:        1.612 MB (on task 1)
          |   Maximum:        1.612 MB (on task 1)
          |   Average:        1.612 MB
          | Largest tracked array allocation (hessian_basis_wave):
          |   Minimum:        0.788 MB (on task 1)
          |   Maximum:        0.788 MB (on task 1)
          |   Average:        0.788 MB
          Note:  These values currently only include a subset of arrays which are explicitly tracked.
          The "true" memory usage will be greater.

          Have a nice day.
------------------------------------------------------------
