  MPI-parallelism will be employed.
------------------------------------------------------------
          Invoking FHI-aims ...
          Version 171221_1
          Compiled on 2019/09/09 at 14:39:39 on host puhti-login2.bullx.

          When using FHI-aims, please cite the following reference:

          Volker Blum, Ralf Gehrke, Felix Hanke, Paula Havu,
          Ville Havu, Xinguo Ren, Karsten Reuter, and Matthias Scheffler,
          'Ab Initio Molecular Simulations with Numeric Atom-Centered Orbitals',
          Computer Physics Communications 180, 2175-2196 (2009)

          For any questions about FHI-aims, please visit the aimsclub website
          with its forums and wiki. Contributions to both the forums and the
          wiki are warmly encouraged - they are for you, and everyone is welcome there.

------------------------------------------------------------



  Date     :  20200616, Time     :  071201.216
  Time zero on CPU 1             :   0.300130000000000E-01  s.
  Internal wall clock time zero  :           361523521.216  s.

  FHI-aims created a unique identifier for this run for later identification
  aims_uuid : CF95E639-B3EE-4F4D-A486-1E11E5B36653

  Using       20 parallel tasks.
  Task        0 on host r14c43.bullx reporting.
  Task        1 on host r14c43.bullx reporting.
  Task        2 on host r14c43.bullx reporting.
  Task        3 on host r14c43.bullx reporting.
  Task        4 on host r14c43.bullx reporting.
  Task        5 on host r14c43.bullx reporting.
  Task        6 on host r14c43.bullx reporting.
  Task        7 on host r14c43.bullx reporting.
  Task        8 on host r14c43.bullx reporting.
  Task        9 on host r14c43.bullx reporting.
  Task       10 on host r14c43.bullx reporting.
  Task       11 on host r14c43.bullx reporting.
  Task       12 on host r14c43.bullx reporting.
  Task       13 on host r14c43.bullx reporting.
  Task       14 on host r14c43.bullx reporting.
  Task       15 on host r14c43.bullx reporting.
  Task       16 on host r14c43.bullx reporting.
  Task       17 on host r14c43.bullx reporting.
  Task       18 on host r14c43.bullx reporting.
  Task       19 on host r14c43.bullx reporting.

  Performing system and environment tests:
  | Environment variable OMP_NUM_THREADS correctly set to 1.
  | Stacksize not measured: no C compiler
  | Checking for scalapack...
  | Testing pdtran()...
  | All pdtran() tests passed.

  Obtaining array dimensions for all initial allocations:
  
  -----------------------------------------------------------------------
  Parsing control.in (first pass over file, find array dimensions only).
  The contents of control.in will be repeated verbatim below
  unless switched off by setting 'verbatim_writeout .false.' .
  in the first line of control.in .
  -----------------------------------------------------------------------
  
  #########################################################################################
  #
  #  Volker Blum, FHI 2009 : Test run input file control.in for simple H2O
  #
  #########################################################################################
  #
  #  Physical model
  #
    xc                 pbe
    vdw_correction_hirshfeld
    spin               none
    relativistic       none
    charge             0.
  #
  #  SCF convergence
  #
    occupation_type    gaussian 0.01
    mixer              pulay
      n_max_pulay        10
      charge_mix_param   0.2
    sc_accuracy_rho    1E-5
    sc_accuracy_eev    1E-3
    sc_accuracy_etot   1E-6
    sc_accuracy_forces 1E-4
    sc_iter_limit      100
  #
  #  Relaxation
  #
  #  relax_geometry   bfgs 1.e-3
  #
  ################################################################################
  #
  #  FHI-aims code project
  #  VB, Fritz-Haber Institut, 2009
  #
  #  Suggested "light" defaults for H atom (to be pasted into control.in file)
  #  Be sure to double-check any results obtained with these settings for post-processing,
  #  e.g., with the "tight" defaults and larger basis sets.
  #
  ################################################################################
    species        H
  #     global species definitions
      nucleus             1
      mass                1.00794
  #
      l_hartree           4
  #
      cut_pot             3.5  1.5  1.0
      basis_dep_cutoff    1e-4
  #
      radial_base         24 5.0
      radial_multiplier   1
      angular_grids       specified
        division   0.2421   50
        division   0.3822  110
        division   0.4799  194
        division   0.5341  302
  #      division   0.5626  434
  #      division   0.5922  590
  #      division   0.6542  770
  #      division   0.6868 1202
  #      outer_grid  770
        outer_grid  302
  ################################################################################
  #
  #  Definition of "minimal" basis
  #
  ################################################################################
  #     valence basis states
      valence      1  s   1.
  #     ion occupancy
      ion_occ      1  s   0.5
  ################################################################################
  #
  #  Suggested additional basis functions. For production calculations,
  #  uncomment them one after another (the most important basis functions are
  #  listed first).
  #
  #  Basis constructed for dimers: 0.5 A, 0.7 A, 1.0 A, 1.5 A, 2.5 A
  #
  ################################################################################
  #  "First tier" - improvements: -1014.90 meV to -62.69 meV
       hydro 2 s 2.1
       hydro 2 p 3.5
  #  "Second tier" - improvements: -12.89 meV to -1.83 meV
  #     hydro 1 s 0.85
  #     hydro 2 p 3.7
  #     hydro 2 s 1.2
  #     hydro 3 d 7
  #  "Third tier" - improvements: -0.25 meV to -0.12 meV
  #     hydro 4 f 11.2
  #     hydro 3 p 4.8
  #     hydro 4 d 9
  #     hydro 3 s 3.2
  ################################################################################
  #
  #  FHI-aims code project
  #  VB, Fritz-Haber Institut, 2009
  #
  #  Suggested "light" defaults for C atom (to be pasted into control.in file)
  #  Be sure to double-check any results obtained with these settings for post-processing,
  #  e.g., with the "tight" defaults and larger basis sets.
  #
  ################################################################################
    species        C
  #     global species definitions
      nucleus             6
      mass                12.0107
  #
      l_hartree           4
  #
      cut_pot             3.5  1.5  1.0
      basis_dep_cutoff    1e-4
  #
      radial_base         34 5.0
      radial_multiplier   1
      angular_grids specified
        division   0.3326   50
        division   0.5710  110
        division   0.7727  194
        division   0.8772  302
  #      division   0.9334  434
  #      division   0.9625  590
  #      division   0.9924  770
  #      division   1.0230  974
  #      division   1.4589 1202
  #     outer_grid  974
       outer_grid 302
  ################################################################################
  #
  #  Definition of "minimal" basis
  #
  ################################################################################
  #     valence basis states
      valence      2  s   2.
      valence      2  p   2.
  #     ion occupancy
      ion_occ      2  s   1.
      ion_occ      2  p   1.
  ################################################################################
  #
  #  Suggested additional basis functions. For production calculations,
  #  uncomment them one after another (the most important basis functions are
  #  listed first).
  #
  #  Constructed for dimers: 1.0 A, 1.25 A, 1.5 A, 2.0 A, 3.0 A
  #
  ################################################################################
  #  "First tier" - improvements: -1214.57 meV to -155.61 meV
       hydro 2 p 1.7
       hydro 3 d 6
       hydro 2 s 4.9
  #  "Second tier" - improvements: -67.75 meV to -5.23 meV
  #     hydro 4 f 9.8
  #     hydro 3 p 5.2
  #     hydro 3 s 4.3
  #     hydro 5 g 14.4
  #     hydro 3 d 6.2
  #  "Third tier" - improvements: -2.43 meV to -0.60 meV
  #     hydro 2 p 5.6
  #     hydro 2 s 1.4
  #     hydro 3 d 4.9
  #     hydro 4 f 11.2
  #  "Fourth tier" - improvements: -0.39 meV to -0.18 meV
  #     hydro 2 p 2.1
  #     hydro 5 g 16.4
  #     hydro 4 d 13.2
  #     hydro 3 s 13.6
  #     hydro 4 f 17.6
  #  Further basis functions - improvements: -0.08 meV and below
  #     hydro 3 s 2
  #     hydro 3 p 6
  #     hydro 4 d 20
  ################################################################################
  #
  #  FHI-aims code project
  #  VB, Fritz-Haber Institut, 2009
  #
  #  Suggested "light" defaults for N atom (to be pasted into control.in file)
  #  Be sure to double-check any results obtained with these settings for post-processing,
  #  e.g., with the "tight" defaults and larger basis sets.
  #
  ################################################################################
    species        N
  #     global species definitions
      nucleus             7
      mass                14.0067
  #
      l_hartree           4
  #
      cut_pot             3.5  1.5  1.0
      basis_dep_cutoff    1e-4
  #
      radial_base         35 5.0
      radial_multiplier   1
      angular_grids       specified
        division   0.2599   50
        division   0.4601  110
        division   0.5885  194
        division   0.6503  302
  #      division   0.6939  434
  #      division   0.7396  590
  #      division   0.7632  770
  #      division   0.8122  974
  #      division   1.1604 1202
  #      outer_grid  974
        outer_grid  302
  ################################################################################
  #
  #  Definition of "minimal" basis
  #
  ################################################################################
  #     valence basis states
      valence      2  s   2.
      valence      2  p   3.
  #     ion occupancy
      ion_occ      2  s   1.
      ion_occ      2  p   2.
  ################################################################################
  #
  #  Suggested additional basis functions. For production calculations,
  #  uncomment them one after another (the most important basis functions are
  #  listed first).
  #
  #  Constructed for dimers: 1.0 A, 1.1 A, 1.5 A, 2.0 A, 3.0 A
  #
  ################################################################################
  #  "First tier" - improvements: -1193.42 meV to -220.60 meV
       hydro 2 p 1.8
       hydro 3 d 6.8
       hydro 3 s 5.8
  #  "Second tier" - improvements: -80.21 meV to -6.86 meV
  #     hydro 4 f 10.8
  #     hydro 3 p 5.8
  #     hydro 1 s 0.8
  #     hydro 5 g 16
  #     hydro 3 d 4.9
  #  "Third tier" - improvements: -4.29 meV to -0.53 meV
  #     hydro 3 s 16
  #     ionic 2 p auto
  #     hydro 3 d 6.6
  #     hydro 4 f 11.6
  #  "Fourth tier" - improvements: -0.75 meV to -0.25 meV
  #     hydro 2 p 4.5
  #     hydro 2 s 2.4
  #     hydro 5 g 14.4
  #     hydro 4 d 14.4
  #     hydro 4 f 16.8
  # Further basis functions - -0.21 meV and below
  #     hydro 3 p 14.8
  #     hydro 3 s 4.4
  #     hydro 3 d 19.6
  #     hydro 5 g 12.8
  ################################################################################
  #
  #  FHI-aims code project
  #  VB, Fritz-Haber Institut, 2009
  #
  #  Suggested "light" defaults for O atom (to be pasted into control.in file)
  #  Be sure to double-check any results obtained with these settings for post-processing,
  #  e.g., with the "tight" defaults and larger basis sets.
  #
  ################################################################################
    species        O
  #     global species definitions
      nucleus             8
      mass                15.9994
  #
      l_hartree           4
  #
      cut_pot             3.5  1.5  1.0
      basis_dep_cutoff    1e-4
  #
      radial_base         36 5.0
      radial_multiplier   1
       angular_grids specified
        division   0.2659   50
        division   0.4451  110
        division   0.6052  194
        division   0.7543  302
  #      division   0.8014  434
  #      division   0.8507  590
  #      division   0.8762  770
  #      division   0.9023  974
  #      division   1.2339 1202
  #      outer_grid 974
        outer_grid 302
  ################################################################################
  #
  #  Definition of "minimal" basis
  #
  ################################################################################
  #     valence basis states
      valence      2  s   2.
      valence      2  p   4.
  #     ion occupancy
      ion_occ      2  s   1.
      ion_occ      2  p   3.
  ################################################################################
  #
  #  Suggested additional basis functions. For production calculations,
  #  uncomment them one after another (the most important basis functions are
  #  listed first).
  #
  #  Constructed for dimers: 1.0 A, 1.208 A, 1.5 A, 2.0 A, 3.0 A
  #
  ################################################################################
  #  "First tier" - improvements: -699.05 meV to -159.38 meV
       hydro 2 p 1.8
       hydro 3 d 7.6
       hydro 3 s 6.4
  #  "Second tier" - improvements: -49.91 meV to -5.39 meV
  #     hydro 4 f 11.6
  #     hydro 3 p 6.2
  #     hydro 3 d 5.6
  #     hydro 5 g 17.6
  #     hydro 1 s 0.75
  #  "Third tier" - improvements: -2.83 meV to -0.50 meV
  #     ionic 2 p auto
  #     hydro 4 f 10.8
  #     hydro 4 d 4.7
  #     hydro 2 s 6.8
  #  "Fourth tier" - improvements: -0.40 meV to -0.12 meV
  #     hydro 3 p 5
  #     hydro 3 s 3.3
  #     hydro 5 g 15.6
  #     hydro 4 f 17.6
  #     hydro 4 d 14
  # Further basis functions - -0.08 meV and below
  #     hydro 3 s 2.1
  #     hydro 4 d 11.6
  #     hydro 3 p 16
  #     hydro 2 s 17.2
  
  -----------------------------------------------------------------------
  Completed first pass over input file control.in .
  -----------------------------------------------------------------------
  
  
  -----------------------------------------------------------------------
  Parsing geometry.in (first pass over file, find array dimensions only).
  The contents of geometry.in will be repeated verbatim below
  unless switched off by setting 'verbatim_writeout .false.' .
  in the first line of geometry.in .
  -----------------------------------------------------------------------
  
  atom  0.00000 0.00000 0.00000 C
  atom  1.09300 0.00000 0.00000 H
  atom  -0.47961 0.00000 -1.41207 N
  atom  -0.21063 -0.88243 -1.84886 H
  atom  -1.49271 0.09870 -1.41317 H
  atom  -0.49584 1.26211 0.72868 C
  atom  0.17538 2.10226 0.53588 H
  atom  -1.49700 1.53240 0.38490 H
  atom  -0.53441 1.08965 1.80679 H
  atom  -0.39425 -1.28861 0.74398 C
  atom  0.34446 -1.97522 1.40891 O
  atom  -1.63295 -1.64921 0.63283 O
  atom  -1.52475 -2.59332 0.83761 H
  
  -----------------------------------------------------------------------
  Completed first pass over input file geometry.in .
  -----------------------------------------------------------------------
  

  Basic array size parameters:
  | Number of species                 :        4
  | Number of atoms                   :       13
  | Max. basis fn. angular momentum   :        2
  | Max. atomic/ionic basis occupied n:        2
  | Max. number of basis fn. types    :        2
  | Max. radial fns per species/type  :        3
  | Max. logarithmic grid size        :     1301
  | Max. radial integration grid size :       36
  | Max. angular integration grid size:      302
  | Max. angular grid division number :        8
  | Radial grid for Hartree potential :     1301
  | Number of spin channels           :        1

------------------------------------------------------------
          Reading file control.in.
------------------------------------------------------------
  XC: Using PBE gradient-corrected functionals.
  Spin treatment: No spin polarisation.
  Non-relativistic treatment of kinetic energy.
  Charge =   0.000000E+00: Neutral system requested explicitly.
  Occupation type: Gaussian broadening, width =   0.100000E-01 eV.
  Using pulay charge density mixing.
  Pulay mixing - number of memorized iterations:   10
  Charge density mixing - mixing parameter:     0.2000
  Convergence accuracy of self-consistent charge density:  0.1000E-04
  Convergence accuracy of sum of eigenvalues:  0.1000E-02
  Convergence accuracy of total energy:  0.1000E-05
  Convergence accuracy of forces:  0.1000E-03
  Maximum number of s.-c. iterations  :   100
 
  Reading configuration options for species H                   .
  | Found nuclear charge :   1.0000
  | Found atomic mass :    1.00794000000000      amu
  | Found l_max for Hartree potential  :   4
  | Found cutoff potl. onset [A], width [A], scale factor :    3.50000    1.50000    1.00000
  | Threshold for basis-dependent cutoff potential is   0.100000E-03
  | Found data for basic radial integration grid :    24 points, outermost radius =    5.000 A
  | Found multiplier for basic radial grid :   1
  | Found angular grid specification: user-specified.
  | Specified grid contains     5 separate shells.
  | Check grid settings after all constraints further below.
  | Found free-atom valence shell :  1 s   1.000
  | No ionic wave fns used. Skipping ion_occ.
  | Found hydrogenic basis function :  2 s   2.100
  | Found hydrogenic basis function :  2 p   3.500
  Species H                   : Missing cutoff potential type.
  Defaulting to exp(1/x)/(1-x)^2 type cutoff potential.
  Species H : No 'logarithmic' tag. Using default grid for free atom:
  | Default logarithmic grid data [bohr] : 0.1000E-03 0.1000E+03 0.1012E+01
  Species H : On-site basis accuracy parameter (for Gram-Schmidt orthonormalisation) not specified.
  Using default value basis_acc =  0.1000000E-03.
  Species H                   : Using default innermost maximum threshold i_radial=  2 for radial functions.
  Species H                   : Default cutoff onset for free atom density etc. : 0.35000000E+01 AA.
  Species H                   : Basic radial grid will be enhanced according to radial_multiplier =   1, to contain    24 grid points.
 
  Reading configuration options for species C                   .
  | Found nuclear charge :   6.0000
  | Found atomic mass :    12.0107000000000      amu
  | Found l_max for Hartree potential  :   4
  | Found cutoff potl. onset [A], width [A], scale factor :    3.50000    1.50000    1.00000
  | Threshold for basis-dependent cutoff potential is   0.100000E-03
  | Found data for basic radial integration grid :    34 points, outermost radius =    5.000 A
  | Found multiplier for basic radial grid :   1
  | Found angular grid specification: user-specified.
  | Specified grid contains     5 separate shells.
  | Check grid settings after all constraints further below.
  | Found free-atom valence shell :  2 s   2.000
  | Found free-atom valence shell :  2 p   2.000
  | No ionic wave fns used. Skipping ion_occ.
  | No ionic wave fns used. Skipping ion_occ.
  | Found hydrogenic basis function :  2 p   1.700
  | Found hydrogenic basis function :  3 d   6.000
  | Found hydrogenic basis function :  2 s   4.900
  Species C                   : Missing cutoff potential type.
  Defaulting to exp(1/x)/(1-x)^2 type cutoff potential.
  Species C : No 'logarithmic' tag. Using default grid for free atom:
  | Default logarithmic grid data [bohr] : 0.1000E-03 0.1000E+03 0.1012E+01
  Species C : On-site basis accuracy parameter (for Gram-Schmidt orthonormalisation) not specified.
  Using default value basis_acc =  0.1000000E-03.
  Species C                   : Using default innermost maximum threshold i_radial=  2 for radial functions.
  Species C                   : Default cutoff onset for free atom density etc. : 0.35000000E+01 AA.
  Species C                   : Basic radial grid will be enhanced according to radial_multiplier =   1, to contain    34 grid points.
 
  Reading configuration options for species N                   .
  | Found nuclear charge :   7.0000
  | Found atomic mass :    14.0067000000000      amu
  | Found l_max for Hartree potential  :   4
  | Found cutoff potl. onset [A], width [A], scale factor :    3.50000    1.50000    1.00000
  | Threshold for basis-dependent cutoff potential is   0.100000E-03
  | Found data for basic radial integration grid :    35 points, outermost radius =    5.000 A
  | Found multiplier for basic radial grid :   1
  | Found angular grid specification: user-specified.
  | Specified grid contains     5 separate shells.
  | Check grid settings after all constraints further below.
  | Found free-atom valence shell :  2 s   2.000
  | Found free-atom valence shell :  2 p   3.000
  | No ionic wave fns used. Skipping ion_occ.
  | No ionic wave fns used. Skipping ion_occ.
  | Found hydrogenic basis function :  2 p   1.800
  | Found hydrogenic basis function :  3 d   6.800
  | Found hydrogenic basis function :  3 s   5.800
  Species N                   : Missing cutoff potential type.
  Defaulting to exp(1/x)/(1-x)^2 type cutoff potential.
  Species N : No 'logarithmic' tag. Using default grid for free atom:
  | Default logarithmic grid data [bohr] : 0.1000E-03 0.1000E+03 0.1012E+01
  Species N : On-site basis accuracy parameter (for Gram-Schmidt orthonormalisation) not specified.
  Using default value basis_acc =  0.1000000E-03.
  Species N                   : Using default innermost maximum threshold i_radial=  2 for radial functions.
  Species N                   : Default cutoff onset for free atom density etc. : 0.35000000E+01 AA.
  Species N                   : Basic radial grid will be enhanced according to radial_multiplier =   1, to contain    35 grid points.
 
  Reading configuration options for species O                   .
  | Found nuclear charge :   8.0000
  | Found atomic mass :    15.9994000000000      amu
  | Found l_max for Hartree potential  :   4
  | Found cutoff potl. onset [A], width [A], scale factor :    3.50000    1.50000    1.00000
  | Threshold for basis-dependent cutoff potential is   0.100000E-03
  | Found data for basic radial integration grid :    36 points, outermost radius =    5.000 A
  | Found multiplier for basic radial grid :   1
  | Found angular grid specification: user-specified.
  | Specified grid contains     5 separate shells.
  | Check grid settings after all constraints further below.
  | Found free-atom valence shell :  2 s   2.000
  | Found free-atom valence shell :  2 p   4.000
  | No ionic wave fns used. Skipping ion_occ.
  | No ionic wave fns used. Skipping ion_occ.
  | Found hydrogenic basis function :  2 p   1.800
  | Found hydrogenic basis function :  3 d   7.600
  | Found hydrogenic basis function :  3 s   6.400
  Species O                   : Missing cutoff potential type.
  Defaulting to exp(1/x)/(1-x)^2 type cutoff potential.
  Species O : No 'logarithmic' tag. Using default grid for free atom:
  | Default logarithmic grid data [bohr] : 0.1000E-03 0.1000E+03 0.1012E+01
  Species O : On-site basis accuracy parameter (for Gram-Schmidt orthonormalisation) not specified.
  Using default value basis_acc =  0.1000000E-03.
  Species O                   : Using default innermost maximum threshold i_radial=  2 for radial functions.
  Species O                   : Default cutoff onset for free atom density etc. : 0.35000000E+01 AA.
  Species O                   : Basic radial grid will be enhanced according to radial_multiplier =   1, to contain    36 grid points.
 
  Finished reading input file 'control.in'. Consistency checks are next.
 
  MPI_IN_PLACE appears to work with this MPI implementation.
  | Keeping use_mpi_in_place .true. (see manual).
  Target number of points in a grid batch is not set. Defaulting to  100
  Method for grid partitioning is not set. Defaulting to parallel hash+maxmin partitioning.
  Batch size limit is not set. Defaulting to    200
  By default, will store active basis functions for each batch.
  If in need of memory, prune_basis_once .false. can be used to disable this option.
  communication_type for Hartree potential was not specified.
  Defaulting to calc_hartree .
  Pulay mixer: Number of initial linear mixing iterations not set.
  Defaulting to    0 iterations.
  Work space size for distributed Hartree potential not set.
  Defaulting to   0.200000E+03 MB.
  Algorithm-dependent basis array size parameters:
  | n_max_pulay                         :       10
  Presetting      1001 iterations before the initial mixing cycle
  is restarted anyway using the sc_init_iter criterion / keyword.
  Presetting a factor      1.000 between actual scf density residual
  and density convergence criterion sc_accuracy_rho below which sc_init_iter
  takes no effect.
  Geometry relaxation not requested: no relaxation will be performed.
  Handling of forces: Unphysical translation and rotation will be removed from forces.
  No accuracy limit for integral partition fn. given. Defaulting to  0.1000E-14.
  No threshold value for u(r) in integrations given. Defaulting to  0.1000E-05.
  No accuracy for occupation numbers given. Defaulting to  0.1000E-12.
  No threshold value for occupation numbers given. Defaulting to  0.0000E+00.
  No accuracy for fermi level given. Defaulting to  0.1000E-19.
  Maximum # of iterations to find E_F not set. Defaulting to  200.
  Preferred method for the eigenvalue solver ('KS_method') not specified in 'control.in'.
  Calling BLACS routine to test compilation state
  Since ScaLAPACK support is enabled, defaulting to 'elsi'.
  Will not use alltoall communication since running on < 1024 CPUs.
  Threshold for basis singularities not set.
  Default threshold for basis singularities:  0.1000E-04
  partition_type (choice of integration weights) for integrals was not specified.
  | Using a version of the partition function of Stratmann and coworkers ('stratmann_smoother').
  | At each grid point, the set of atoms used to build the partition table is smoothly restricted to
  | only those atoms whose free-atom density would be non-zero at that grid point.
  Partitioning for Hartree potential was not defined. Using partition_type for integrals.
  | Adjusted default value of keyword multip_moments_threshold to:       0.10000000E-11
  | This value may affect high angular momentum components of the Hartree potential in periodic systems.
  No q(lm)/r^(l+1) cutoff set for long-range Hartree potential.
  | Using default value of  0.100000E-09 .
  | Verify using the multipole_threshold keyword.
  Defaulting to new monopole extrapolation.
  Density update method: automatic selection selected.
------------------------------------------------------------


------------------------------------------------------------
          Reading geometry description geometry.in.
------------------------------------------------------------
  Input structure read successfully.
  The structure contains       13 atoms,  and a total of         48.000 electrons.

  Input geometry:
  | No unit cell requested.
  | Atomic structure:
  |       Atom                x [A]            y [A]            z [A]
  |    1: Species C             0.00000000        0.00000000        0.00000000
  |    2: Species H             1.09300000        0.00000000        0.00000000
  |    3: Species N            -0.47961000        0.00000000       -1.41207000
  |    4: Species H            -0.21063000       -0.88243000       -1.84886000
  |    5: Species H            -1.49271000        0.09870000       -1.41317000
  |    6: Species C            -0.49584000        1.26211000        0.72868000
  |    7: Species H             0.17538000        2.10226000        0.53588000
  |    8: Species H            -1.49700000        1.53240000        0.38490000
  |    9: Species H            -0.53441000        1.08965000        1.80679000
  |   10: Species C            -0.39425000       -1.28861000        0.74398000
  |   11: Species O             0.34446000       -1.97522000        1.40891000
  |   12: Species O            -1.63295000       -1.64921000        0.63283000
  |   13: Species H            -1.52475000       -2.59332000        0.83761000
  |

  | The smallest distance between any two atoms is         0.97210379 AA.
  |
  | The first atom of this pair is atom number                     12 .
  | The second atom of this pair is atom number                    13 .

  Number of empty states per atom not set in control.in - providing a guess from actual geometry.
  | Total number of empty states used during s.c.f. cycle:       29
  If you use a very high smearing, use empty_states (per atom!) in control.in to increase this value.

  Structure-dependent array size parameters: 
  | Maximum number of distinct radial functions  :       21
  | Maximum number of basis functions            :      119
  | Number of Kohn-Sham states (occupied + empty):       53
------------------------------------------------------------

------------------------------------------------------------
          Preparing all fixed parts of the calculation.
------------------------------------------------------------
  Determining machine precision:
    2.225073858507201E-308
  Setting up grids for atomic and cluster calculations.

  Creating wave function, potential, and density for free atoms.

  Species: H

  List of occupied orbitals and eigenvalues:
    n    l              occ      energy [Ha]    energy [eV]
    1    0           1.0000        -0.237589        -6.4651


  Species: C

  List of occupied orbitals and eigenvalues:
    n    l              occ      energy [Ha]    energy [eV]
    1    0           2.0000       -10.038835      -273.1706
    2    0           2.0000        -0.502696       -13.6791
    2    1           2.0000        -0.191971        -5.2238


  Species: N

  List of occupied orbitals and eigenvalues:
    n    l              occ      energy [Ha]    energy [eV]
    1    0           2.0000       -14.128000      -384.4424
    2    0           2.0000        -0.681077       -18.5330
    2    1           3.0000        -0.259788        -7.0692


  Species: O

  List of occupied orbitals and eigenvalues:
    n    l              occ      energy [Ha]    energy [eV]
    1    0           2.0000       -18.898188      -514.2459
    2    0           2.0000        -0.878505       -23.9053
    2    1           4.0000        -0.331779        -9.0282

  Creating fixed part of basis set: Ionic, confined, hydrogenic.
 
  H                    hydrogenic:
 
  List of hydrogenic basis orbitals: 
    n    l      effective z      eigenvalue [eV]  inner max. [A]     outer max. [A]     outer radius [A]   
    2    0         2.100000       -14.9728           0.193243           1.317208           4.583499
    2    1         3.500000       -41.6669           0.602369           0.602369           3.723403
 
 
  C                    hydrogenic:
 
  List of hydrogenic basis orbitals: 
    n    l      effective z      eigenvalue [eV]  inner max. [A]     outer max. [A]     outer radius [A]   
    2    1         1.700000        -9.7616           1.230570           1.230570           4.607917
    3    2         6.000000       -54.4224           0.792453           0.792453           3.883070
    2    0         4.900000       -81.6679           0.082559           0.562749           3.078220
 
 
  N                    hydrogenic:
 
  List of hydrogenic basis orbitals: 
    n    l      effective z      eigenvalue [eV]  inner max. [A]     outer max. [A]     outer radius [A]   
    2    1         1.800000       -10.9749           1.177451           1.177451           4.573712
    3    2         6.800000       -69.9026           0.704619           0.704619           3.538137
    3    0         5.800000       -50.8545           0.067388           1.191934           4.250239
 
 
  O                    hydrogenic:
 
  List of hydrogenic basis orbitals: 
    n    l      effective z      eigenvalue [eV]  inner max. [A]     outer max. [A]     outer radius [A]   
    2    1         1.800000       -10.9749           1.164242           1.164242           4.578029
    3    2         7.600000       -87.3180           0.624125           0.624125           3.251020
    3    0         6.400000       -61.9207           0.061167           1.081902           4.001998
 

  Adding cutoff potential to free-atom effective potential.
  Creating atomic-like basis functions for current effective potential.

  Species H                   :

  List of atomic basis orbitals and eigenvalues:
    n    l      energy [Ha]    energy [eV]    outer radius [A]
    1    0        -0.237589        -6.4651       4.527807


  Species C                   :

  List of atomic basis orbitals and eigenvalues:
    n    l      energy [Ha]    energy [eV]    outer radius [A]
    1    0       -10.038835      -273.1706       1.934409
    2    0        -0.502696       -13.6791       4.496620
    2    1        -0.191971        -5.2238       4.551928


  Species N                   :

  List of atomic basis orbitals and eigenvalues:
    n    l      energy [Ha]    energy [eV]    outer radius [A]
    1    0       -14.128000      -384.4424       1.637919
    2    0        -0.681077       -18.5330       4.463241
    2    1        -0.259788        -7.0692       4.518138


  Species O                   :

  List of atomic basis orbitals and eigenvalues:
    n    l      energy [Ha]    energy [eV]    outer radius [A]
    1    0       -18.898188      -514.2459       1.415765
    2    0        -0.878505       -23.9053       4.413171
    2    1        -0.331779        -9.0282       4.522403

  Assembling full basis from fixed parts.
  | Species H :   atomic orbital   1 s accepted.
  | Species H :    hydro orbital   2 s accepted.
  | Species H :    hydro orbital   2 p accepted.
  | Species C :   atomic orbital   1 s accepted.
  | Species C :    hydro orbital   2 s accepted.
  | Species C :   atomic orbital   2 s accepted.
  | Species C :   atomic orbital   2 p accepted.
  | Species C :    hydro orbital   2 p accepted.
  | Species C :    hydro orbital   3 d accepted.
  | Species N :   atomic orbital   1 s accepted.
  | Species N :    hydro orbital   3 s accepted.
  | Species N :   atomic orbital   2 s accepted.
  | Species N :   atomic orbital   2 p accepted.
  | Species N :    hydro orbital   2 p accepted.
  | Species N :    hydro orbital   3 d accepted.
  | Species O :   atomic orbital   1 s accepted.
  | Species O :    hydro orbital   3 s accepted.
  | Species O :   atomic orbital   2 s accepted.
  | Species O :   atomic orbital   2 p accepted.
  | Species O :    hydro orbital   2 p accepted.
  | Species O :    hydro orbital   3 d accepted.
 
  Basis size parameters after reduction:
  | Total number of radial functions:       21
  | Total number of basis functions :      119
 
  Per-task memory consumption for arrays in subroutine allocate_ext:
  |           5.250512MB.
  Testing on-site integration grid accuracy.
  |  Species  Function  <phi|h_atom|phi> (log., in eV)  <phi|h_atom|phi> (rad., in eV)
           1        1                 -6.4663192853                 -6.4651273558
           1        2                 13.7111246313                 13.7170609718
           1        3                 25.2673269279                 25.2674696378
           2        4               -273.1705927641               -273.1705631568
           2        5                -10.7109323383                -10.7107120029
           2        6                 17.4381822266                 17.4352413244
           2        7                 -5.2255326521                 -5.2270484734
           2        8                  8.6835629259                  8.6603288385
           2        9                 27.4952418996                 27.4953360207
           3       10               -384.4424306495               -384.4423701208
           3       11                 12.5842251816                 12.5842222903
           3       12                -15.7264628251                -15.7264433455
           3       13                 -7.0696854293                 -7.0701769954
           3       14                  8.8090390882                  8.7901077751
           3       15                 35.9586762123                 35.9588528632
           4       16               -514.2458688638               -514.2457643834
           4       17                 15.1795651126                 15.1795290741
           4       18                -21.5359799773                -21.5360846186
           4       19                 -9.0283069236                 -9.0284644067
           4       20                  8.3027758564                  8.2834874195
           4       21                 45.8339351984                 45.8338762259

  Preparing densities etc. for the partition functions (integrals / Hartree potential).

  Preparations completed.
  max(cpu_time)          :      0.163 s.
  Wall clock time (cpu1) :      0.163 s.
------------------------------------------------------------

------------------------------------------------------------
          Begin self-consistency loop: Initialization.

          Date     :  20200616, Time     :  071201.421
------------------------------------------------------------

  Initializing index lists of integration centers etc. from given atomic structure:
  | Number of centers in hartree potential         :        13
  | Number of centers in hartree multipole         :        13
  | Number of centers in electron density summation:        13
  | Number of centers in basis integrals           :        13
  | Number of centers in integrals                 :        13
  | Number of centers in hamiltonian               :        13
  * Using 20 tasks for Scalapack Eigenvalue solver.
  Detailed listing of tasks and assigned k-points:
  (for non-periodic systems, the "k-point" denotes an internal label only)
   Task     0 k-point     1 on r14c43.bullx
   Task     1 k-point     1 on r14c43.bullx
   Task     2 k-point     1 on r14c43.bullx
   Task     3 k-point     1 on r14c43.bullx
   Task     4 k-point     1 on r14c43.bullx
   Task     5 k-point     1 on r14c43.bullx
   Task     6 k-point     1 on r14c43.bullx
   Task     7 k-point     1 on r14c43.bullx
   Task     8 k-point     1 on r14c43.bullx
   Task     9 k-point     1 on r14c43.bullx
   Task    10 k-point     1 on r14c43.bullx
   Task    11 k-point     1 on r14c43.bullx
   Task    12 k-point     1 on r14c43.bullx
   Task    13 k-point     1 on r14c43.bullx
   Task    14 k-point     1 on r14c43.bullx
   Task    15 k-point     1 on r14c43.bullx
   Task    16 k-point     1 on r14c43.bullx
   Task    17 k-point     1 on r14c43.bullx
   Task    18 k-point     1 on r14c43.bullx
   Task    19 k-point     1 on r14c43.bullx
  Tasks:    20 split into      5 X      4 BLACS grid
  Calculating block size based on n_basis =          119  max_nprow =            5  max_npcol =            4
  ScaLAPACK block size set to:           16
  Allocating        0.008 MB for ovlp
  Allocating        0.008 MB for ham
  Allocating        0.008 MB for eigenvec
  Required Scalapack workspace - INTEGER:            1  REAL:             1
  Partitioning the integration grid into batches with parallel hashing+maxmin method.
  | Number of batches:      874
  | Maximal batch size:     184
  | Minimal batch size:      49
  | Average batch size:      79.686
  | Standard deviation of batch sizes:      21.808

  Integration load balanced across    20 MPI tasks.
  Work distribution over tasks is as follows:
  Task     0 has       3601 integration points.
  Task     1 has       3451 integration points.
  Task     2 has       3471 integration points.
  Task     3 has       3592 integration points.
  Task     4 has       3443 integration points.
  Task     5 has       3558 integration points.
  Task     6 has       3439 integration points.
  Task     7 has       3476 integration points.
  Task     8 has       3511 integration points.
  Task     9 has       3443 integration points.
  Task    10 has       3471 integration points.
  Task    11 has       3422 integration points.
  Task    12 has       3520 integration points.
  Task    13 has       3468 integration points.
  Task    14 has       3423 integration points.
  Task    15 has       3451 integration points.
  Task    16 has       3430 integration points.
  Task    17 has       3505 integration points.
  Task    18 has       3515 integration points.
  Task    19 has       3456 integration points.
  Initializing partition tables, free-atom densities, potentials, etc. across the integration grid (initialize_grid_storage).
  | initialize_grid_storage: Actual outermost partition radius vs. multipole_radius_free
  | (-- VB: in principle, multipole_radius_free should be larger, hence this output)
  | Species        1: Confinement radius =              4.999999999999999 AA, multipole_radius_free =              5.054417573612229 AA.
  | Species        1: outer_partition_radius set to              5.054417573612229 AA .
  | Species        2: Confinement radius =              4.999999999999999 AA, multipole_radius_free =              5.019602836301480 AA.
  | Species        2: outer_partition_radius set to              5.019602836301480 AA .
  | Species        3: Confinement radius =              4.999999999999999 AA, multipole_radius_free =              5.043624274424571 AA.
  | Species        3: outer_partition_radius set to              5.043624274424571 AA .
  | Species        4: Confinement radius =              4.999999999999999 AA, multipole_radius_free =              5.048384829883283 AA.
  | Species        4: outer_partition_radius set to              5.048384829883283 AA .
  | Original list of interatomic distances with          13 x         13 entries is created.
  | Net number of integration points:    69646
  | of which are non-zero points    :    59546
  Renormalizing the initial density to the exact electron count on the 3D integration grid.
  | Initial density: Formal number of electrons (from input files) :      48.0000000000
  | Integrated number of electrons on 3D grid     :      47.9999684112
  | Charge integration error                      :      -0.0000315888
  | Normalization factor for density and gradient :       1.0000006581
  Obtaining max. number of non-zero basis functions in each batch (get_n_compute_maxes).
  | Maximal number of non-zero basis functions:      118 in task     0
  | Maximal number of non-zero basis functions:      118 in task     1
  | Maximal number of non-zero basis functions:      119 in task     2
  | Maximal number of non-zero basis functions:      118 in task     3
  | Maximal number of non-zero basis functions:      117 in task     4
  | Maximal number of non-zero basis functions:      118 in task     5
  | Maximal number of non-zero basis functions:      118 in task     6
  | Maximal number of non-zero basis functions:      118 in task     7
  | Maximal number of non-zero basis functions:      118 in task     8
  | Maximal number of non-zero basis functions:      118 in task     9
  | Maximal number of non-zero basis functions:      118 in task    10
  | Maximal number of non-zero basis functions:      118 in task    11
  | Maximal number of non-zero basis functions:      118 in task    12
  | Maximal number of non-zero basis functions:      118 in task    13
  | Maximal number of non-zero basis functions:      118 in task    14
  | Maximal number of non-zero basis functions:      118 in task    15
  | Maximal number of non-zero basis functions:      117 in task    16
  | Maximal number of non-zero basis functions:      118 in task    17
  | Maximal number of non-zero basis functions:      118 in task    18
  | Maximal number of non-zero basis functions:      119 in task    19
  Selecting the method for density update.
  Loop over occupied states selected for charge density update.
  Allocating        0.050 MB for KS_eigenvector
  Integrating Hamiltonian matrix: batch-based integration.
  Time summed over all CPUs for integration: real work        0.518 s, elapsed        0.551 s
  Integrating overlap matrix.
  Time summed over all CPUs for integration: real work        0.215 s, elapsed        0.230 s
  Deallocating overlap matrix.

  Updating Kohn-Sham eigenvalues and eigenvectors using ELSI and the ELPA eigensolver.
  ELPA settings:
  | ELPA solver          1
  | Time full => band           :     0.001 s
  | Time band => tridiagonal    :     0.001 s
  | Time solve tridiagonal      :     0.001 s
  Overlap matrix is nonsingular
  | Lowest eigenvalue of overlap  :  0.52E-02
  | Highest eigenvalue of overlap :  0.61E+01
  Finished singularity check of overlap matrix
  | Time :     0.003 s
  Finished Cholesky decomposition
  | Time :     0.002 s
  Finished transformation to standard eigenproblem
  | Time :     0.001 s
  Starting ELPA eigensolver
  | Time full => tridiagonal    :     0.002 s
  | Time solve tridiagonal      :     0.000 s
  | Time ev tridiagonal => full :     0.000 s
  Finished solving standard eigenproblem
  | Time :     0.003 s
  Finished back-transformation of eigenvectors
  | Time :     0.000 s

  Obtaining occupation numbers and chemical potential using ELSI.
  | Chemical potential (Fermi level):    -9.41289046eV
  Writing Kohn-Sham eigenvalues.

  State    Occupation    Eigenvalue [Ha]    Eigenvalue [eV]
      1       2.00000         -19.007570         -517.22228
      2       2.00000         -18.978211         -516.42339
      3       2.00000         -14.245781         -387.64741
      4       2.00000         -10.166693         -276.64978
      5       2.00000         -10.141237         -275.95711
      6       2.00000         -10.132105         -275.70860
      7       2.00000          -1.187779          -32.32111
      8       2.00000          -1.093072          -29.74399
      9       2.00000          -0.991432          -26.97823
     10       2.00000          -0.861503          -23.44268
     11       2.00000          -0.757965          -20.62529
     12       2.00000          -0.685468          -18.65254
     13       2.00000          -0.621139          -16.90205
     14       2.00000          -0.602355          -16.39090
     15       2.00000          -0.592109          -16.11211
     16       2.00000          -0.566885          -15.42574
     17       2.00000          -0.543527          -14.79013
     18       2.00000          -0.537256          -14.61949
     19       2.00000          -0.511941          -13.93064
     20       2.00000          -0.489751          -13.32679
     21       2.00000          -0.480279          -13.06906
     22       2.00000          -0.429679          -11.69216
     23       2.00000          -0.419439          -11.41353
     24       2.00000          -0.378940          -10.31149
     25       0.00000          -0.156529           -4.25936
     26       0.00000          -0.058097           -1.58090
     27       0.00000          -0.025536           -0.69488
     28       0.00000          -0.013332           -0.36279
     29       0.00000          -0.008996           -0.24480
     30       0.00000           0.001921            0.05226
     31       0.00000           0.010200            0.27755
     32       0.00000           0.018341            0.49909
     33       0.00000           0.061647            1.67750
     34       0.00000           0.087007            2.36757
     35       0.00000           0.089965            2.44808
     36       0.00000           0.130503            3.55118
     37       0.00000           0.142750            3.88442
     38       0.00000           0.203501            5.53755
     39       0.00000           0.214676            5.84162
     40       0.00000           0.221483            6.02686
     41       0.00000           0.252853            6.88047
     42       0.00000           0.257547            7.00821
     43       0.00000           0.288167            7.84142
     44       0.00000           0.306728            8.34649
     45       0.00000           0.340670            9.27009
     46       0.00000           0.360154            9.80029
     47       0.00000           0.364409            9.91609
     48       0.00000           0.414467           11.27822
     49       0.00000           0.422944           11.50889
     50       0.00000           0.460132           12.52082
     51       0.00000           0.490459           13.34607
     52       0.00000           0.526535           14.32776
     53       0.00000           0.571869           15.56134

  Highest occupied state (VBM) at    -10.31148975 eV
  | Occupation number:      2.00000000

  Lowest unoccupied state (CBM) at    -4.25935949 eV
  | Occupation number:      0.00000000

  Overall HOMO-LUMO gap:      6.05213026 eV.
  Calculating total energy contributions from superposition of free atom densities.

  Total energy components:
  | Sum of eigenvalues            :        -188.84423173 Ha       -5138.71300024 eV
  | XC energy correction          :         -41.78579548 Ha       -1137.04934757 eV
  | XC potential correction       :          53.71586888 Ha        1461.68316196 eV
  | Free-atom electrostatic energy:        -146.85615874 Ha       -3996.15940163 eV
  | Hartree energy correction     :           0.00000000 Ha           0.00000000 eV
  | vdW energy correction         :           0.00000000 Ha           0.00000000 eV
  | Entropy correction            :           0.00000000 Ha           0.00000000 eV
  | ---------------------------
  | Total energy                  :        -323.77031707 Ha       -8810.23858748 eV
  | Total energy, T -> 0          :        -323.77031707 Ha       -8810.23858748 eV  <-- do not rely on this value for anything but (periodic) metals
  | Electronic free energy        :        -323.77031707 Ha       -8810.23858748 eV

  Derived energy quantities:
  | Kinetic energy                :         320.48101936 Ha        8720.73224284 eV
  | Electrostatic energy          :        -602.46554095 Ha      -16393.92148275 eV
  | Energy correction for multipole
  | error in Hartree potential    :           0.00000000 Ha           0.00000000 eV
  | Sum of eigenvalues per atom                           :        -395.28561540 eV
  | Total energy (T->0) per atom                          :        -677.71066058 eV  <-- do not rely on this value for anything but (periodic) metals
  | Electronic free energy per atom                       :        -677.71066058 eV
  Initialize hartree_potential_storage
  Max. number of atoms included in rho_multipole:           13

  End scf initialization - timings             :  max(cpu_time)    wall_clock(cpu1)
  | Time for scf. initialization               :        0.096 s           0.096 s
  | Boundary condition initialization          :        0.000 s           0.000 s
  | Integration                                :        0.040 s           0.040 s
  | Solution of K.-S. eqns.                    :        0.010 s           0.011 s
  | Grid partitioning                          :        0.022 s           0.022 s
  | Preloading free-atom quantities on grid    :        0.003 s           0.003 s
  | Free-atom superposition energy             :        0.005 s           0.004 s
  | Total energy evaluation                    :        0.000 s           0.000 s

  Partial memory accounting:
  | Current value for overall tracked memory usage on task 0  :           0.133 MB
  | Peak value for overall tracked memory usage on task 0     :           0.825 MB after allocating wave
  | Largest tracked array allocation on task 0 so far         :           0.174 MB  when allocating H_times_psi
  Note:  These values currently only include a subset of arrays which are explicitly tracked.
  The "true" memory usage will be greater.
------------------------------------------------------------

------------------------------------------------------------
          Begin self-consistency iteration #    1

  Date     :  20200616, Time     :  071201.517
------------------------------------------------------------
  Evaluating new KS density.
  Integration grid: deviation in total charge (<rho> - N_e) =  -7.105427E-15
  Pulay mixing of updated and previous charge densities.

  Evaluating partitioned Hartree potential by multipole expansion.
  | Analytical far-field extrapolation by fixed multipoles:
  | Hartree multipole sum: apparent total charge =  -0.136597E-03
  Summing up the Hartree potential.
  Time summed over all CPUs for potential: real work        0.421 s, elapsed        0.443 s
  | RMS charge density error from multipole expansion :   0.593148E-02

  Integrating Hamiltonian matrix: batch-based integration.
  Time summed over all CPUs for integration: real work        0.509 s, elapsed        0.542 s

  Updating Kohn-Sham eigenvalues and eigenvectors using ELSI and the ELPA eigensolver.
  ELPA settings:
  | ELPA solver          1
  Finished transformation to standard eigenproblem
  | Time :     0.000 s
  Starting ELPA eigensolver
  | Time full => tridiagonal    :     0.002 s
  | Time solve tridiagonal      :     0.000 s
  | Time ev tridiagonal => full :     0.000 s
  Finished solving standard eigenproblem
  | Time :     0.003 s
  Finished back-transformation of eigenvectors
  | Time :     0.000 s

  Obtaining occupation numbers and chemical potential using ELSI.
  | Chemical potential (Fermi level):    -4.19563732eV
  Writing Kohn-Sham eigenvalues.

  State    Occupation    Eigenvalue [Ha]    Eigenvalue [eV]
      1       2.00000         -18.906956         -514.48446
      2       2.00000         -18.840089         -512.66490
      3       2.00000         -14.097142         -383.60275
      4       2.00000         -10.115057         -275.24470
      5       2.00000         -10.060977         -273.77311
      6       2.00000         -10.031591         -272.97348
      7       2.00000          -1.140079          -31.02314
      8       2.00000          -1.032214          -28.08796
      9       2.00000          -0.921622          -25.07862
     10       2.00000          -0.795687          -21.65173
     11       2.00000          -0.706601          -19.22760
     12       2.00000          -0.639651          -17.40580
     13       2.00000          -0.558271          -15.19132
     14       2.00000          -0.548529          -14.92622
     15       2.00000          -0.530000          -14.42204
     16       2.00000          -0.511748          -13.92538
     17       2.00000          -0.488403          -13.29013
     18       2.00000          -0.479178          -13.03911
     19       2.00000          -0.446493          -12.14970
     20       2.00000          -0.431317          -11.73673
     21       2.00000          -0.425818          -11.58711
     22       2.00000          -0.370327          -10.07710
     23       2.00000          -0.348631           -9.48674
     24       2.00000          -0.307617           -8.37068
     25       0.00000          -0.117717           -3.20324
     26       0.00000          -0.035166           -0.95693
     27       0.00000           0.007379            0.20080
     28       0.00000           0.017294            0.47059
     29       0.00000           0.021976            0.59799
     30       0.00000           0.035639            0.96979
     31       0.00000           0.046356            1.26142
     32       0.00000           0.063202            1.71982
     33       0.00000           0.099479            2.70697
     34       0.00000           0.123361            3.35682
     35       0.00000           0.136652            3.71848
     36       0.00000           0.160673            4.37212
     37       0.00000           0.170357            4.63566
     38       0.00000           0.231524            6.30009
     39       0.00000           0.247480            6.73427
     40       0.00000           0.251429            6.84172
     41       0.00000           0.288339            7.84611
     42       0.00000           0.290737            7.91136
     43       0.00000           0.327824            8.92053
     44       0.00000           0.342564            9.32164
     45       0.00000           0.382747           10.41507
     46       0.00000           0.394257           10.72829
     47       0.00000           0.400918           10.90952
     48       0.00000           0.451624           12.28930
     49       0.00000           0.461664           12.56252
     50       0.00000           0.495739           13.48974
     51       0.00000           0.526136           14.31688
     52       0.00000           0.562040           15.29388
     53       0.00000           0.608121           16.54781

  Highest occupied state (VBM) at     -8.37068214 eV
  | Occupation number:      2.00000000

  Lowest unoccupied state (CBM) at    -3.20324373 eV
  | Occupation number:      0.00000000

  Overall HOMO-LUMO gap:      5.16743841 eV.

  Total energy components:
  | Sum of eigenvalues            :        -185.46799869 Ha       -5046.84102486 eV
  | XC energy correction          :         -42.11426422 Ha       -1145.98743674 eV
  | XC potential correction       :          54.14308222 Ha        1473.30822825 eV
  | Free-atom electrostatic energy:        -146.85615874 Ha       -3996.15940163 eV
  | Hartree energy correction     :          -3.29659820 Ha         -89.70500119 eV
  | vdW energy correction         :           0.00000000 Ha           0.00000000 eV
  | Entropy correction            :           0.00000000 Ha           0.00000000 eV
  | ---------------------------
  | Total energy                  :        -323.59193764 Ha       -8805.38463616 eV
  | Total energy, T -> 0          :        -323.59193764 Ha       -8805.38463616 eV  <-- do not rely on this value for anything but (periodic) metals
  | Electronic free energy        :        -323.59193764 Ha       -8805.38463616 eV

  Derived energy quantities:
  | Kinetic energy                :         322.26700952 Ha        8769.33150782 eV
  | Electrostatic energy          :        -603.74468294 Ha      -16428.72870725 eV
  | Energy correction for multipole
  | error in Hartree potential    :           0.01208228 Ha           0.32877550 eV
  | Sum of eigenvalues per atom                           :        -388.21854037 eV
  | Total energy (T->0) per atom                          :        -677.33727970 eV  <-- do not rely on this value for anything but (periodic) metals
  | Electronic free energy per atom                       :        -677.33727970 eV

  Self-consistency convergence accuracy:
  | Change of charge density      :  0.5802E+00
  | Change of sum of eigenvalues  :  0.9187E+02 eV
  | Change of total energy        :  0.4854E+01 eV

  End self-consistency iteration #     1       :  max(cpu_time)    wall_clock(cpu1)
  | Time for this iteration                    :        0.079 s           0.079 s
  | Charge density update                      :        0.022 s           0.022 s
  | Density mixing                             :        0.000 s           0.000 s
  | Hartree multipole update                   :        0.001 s           0.002 s
  | Hartree multipole summation                :        0.023 s           0.022 s
  | Integration                                :        0.028 s           0.028 s
  | Solution of K.-S. eqns.                    :        0.004 s           0.004 s
  | Total energy evaluation                    :        0.000 s           0.001 s

  Partial memory accounting:
  | Current value for overall tracked memory usage on task 0  :           0.133 MB
  | Peak value for overall tracked memory usage on task 0     :           0.828 MB after allocating gradient_basis_wave
  | Largest tracked array allocation on task 0 so far         :           0.521 MB  when allocating gradient_basis_wave
  Note:  These values currently only include a subset of arrays which are explicitly tracked.
  The "true" memory usage will be greater.
------------------------------------------------------------

------------------------------------------------------------
          Begin self-consistency iteration #    2

  Date     :  20200616, Time     :  071201.602
------------------------------------------------------------
  Evaluating new KS density.
  Integration grid: deviation in total charge (<rho> - N_e) =   1.421085E-14
  Pulay mixing of updated and previous charge densities.

  Evaluating partitioned Hartree potential by multipole expansion.
  | Analytical far-field extrapolation by fixed multipoles:
  | Hartree multipole sum: apparent total charge =  -0.270637E-03
  Summing up the Hartree potential.
  Time summed over all CPUs for potential: real work        0.420 s, elapsed        0.443 s
  | RMS charge density error from multipole expansion :   0.142206E-01

  Integrating Hamiltonian matrix: batch-based integration.
  Time summed over all CPUs for integration: real work        0.509 s, elapsed        0.543 s

  Updating Kohn-Sham eigenvalues and eigenvectors using ELSI and the ELPA eigensolver.
  ELPA settings:
  | ELPA solver          1
  Finished transformation to standard eigenproblem
  | Time :     0.000 s
  Starting ELPA eigensolver
  | Time full => tridiagonal    :     0.002 s
  | Time solve tridiagonal      :     0.000 s
  | Time ev tridiagonal => full :     0.000 s
  Finished solving standard eigenproblem
  | Time :     0.003 s
  Finished back-transformation of eigenvectors
  | Time :     0.000 s

  Obtaining occupation numbers and chemical potential using ELSI.
  | Chemical potential (Fermi level):    -2.90495876eV
  Highest occupied state (VBM) at     -6.39721869 eV
  | Occupation number:      2.00000000

  Lowest unoccupied state (CBM) at    -1.86028868 eV
  | Occupation number:      0.00000000

  Overall HOMO-LUMO gap:      4.53693001 eV.

  Checking to see if s.c.f. parameters should be adjusted.

  Total energy components:
  | Sum of eigenvalues            :        -181.86091802 Ha       -4948.68736579 eV
  | XC energy correction          :         -42.47971449 Ha       -1155.93184435 eV
  | XC potential correction       :          54.61686216 Ha        1486.20043630 eV
  | Free-atom electrostatic energy:        -146.85615874 Ha       -3996.15940163 eV
  | Hartree energy correction     :          -6.93490109 Ha        -188.70825990 eV
  | vdW energy correction         :           0.00000000 Ha           0.00000000 eV
  | Entropy correction            :           0.00000000 Ha           0.00000000 eV
  | ---------------------------
  | Total energy                  :        -323.51483018 Ha       -8803.28643537 eV
  | Total energy, T -> 0          :        -323.51483018 Ha       -8803.28643537 eV  <-- do not rely on this value for anything but (periodic) metals
  | Electronic free energy        :        -323.51483018 Ha       -8803.28643537 eV

  Derived energy quantities:
  | Kinetic energy                :         323.61170054 Ha        8805.92241219 eV
  | Electrostatic energy          :        -604.64681623 Ha      -16453.27700321 eV
  | Energy correction for multipole
  | error in Hartree potential    :           0.02696276 Ha           0.73369414 eV
  | Sum of eigenvalues per atom                           :        -380.66825891 eV
  | Total energy (T->0) per atom                          :        -677.17587964 eV  <-- do not rely on this value for anything but (periodic) metals
  | Electronic free energy per atom                       :        -677.17587964 eV

  Self-consistency convergence accuracy:
  | Change of charge density      :  0.3632E+00
  | Change of sum of eigenvalues  :  0.9815E+02 eV
  | Change of total energy        :  0.2098E+01 eV

  End self-consistency iteration #     2       :  max(cpu_time)    wall_clock(cpu1)
  | Time for this iteration                    :        0.083 s           0.081 s
  | Charge density update                      :        0.026 s           0.024 s
  | Density mixing                             :        0.001 s           0.001 s
  | Hartree multipole update                   :        0.001 s           0.001 s
  | Hartree multipole summation                :        0.023 s           0.023 s
  | Integration                                :        0.028 s           0.027 s
  | Solution of K.-S. eqns.                    :        0.004 s           0.004 s
  | Total energy evaluation                    :        0.000 s           0.001 s

  Partial memory accounting:
  | Current value for overall tracked memory usage on task 0  :           0.134 MB
  | Peak value for overall tracked memory usage on task 0     :           0.828 MB after allocating gradient_basis_wave
  | Largest tracked array allocation on task 0 so far         :           0.521 MB  when allocating gradient_basis_wave
  Note:  These values currently only include a subset of arrays which are explicitly tracked.
  The "true" memory usage will be greater.
------------------------------------------------------------

------------------------------------------------------------
          Begin self-consistency iteration #    3

  Date     :  20200616, Time     :  071201.691
------------------------------------------------------------
  Evaluating new KS density.
  Integration grid: deviation in total charge (<rho> - N_e) =  -1.421085E-14
  Pulay mixing of updated and previous charge densities.

  Evaluating partitioned Hartree potential by multipole expansion.
  | Analytical far-field extrapolation by fixed multipoles:
  | Hartree multipole sum: apparent total charge =  -0.360864E-03
  Summing up the Hartree potential.
  Time summed over all CPUs for potential: real work        0.421 s, elapsed        0.444 s
  | RMS charge density error from multipole expansion :   0.225809E-01

  Integrating Hamiltonian matrix: batch-based integration.
  Time summed over all CPUs for integration: real work        0.509 s, elapsed        0.544 s

  Updating Kohn-Sham eigenvalues and eigenvectors using ELSI and the ELPA eigensolver.
  ELPA settings:
  | ELPA solver          1
  Finished transformation to standard eigenproblem
  | Time :     0.000 s
  Starting ELPA eigensolver
  | Time full => tridiagonal    :     0.002 s
  | Time solve tridiagonal      :     0.000 s
  | Time ev tridiagonal => full :     0.000 s
  Finished solving standard eigenproblem
  | Time :     0.003 s
  Finished back-transformation of eigenvectors
  | Time :     0.000 s

  Obtaining occupation numbers and chemical potential using ELSI.
  | Chemical potential (Fermi level):    -2.18822439eV
  Highest occupied state (VBM) at     -5.76587341 eV
  | Occupation number:      2.00000000

  Lowest unoccupied state (CBM) at    -1.12345235 eV
  | Occupation number:      0.00000000

  Overall HOMO-LUMO gap:      4.64242107 eV.

  Total energy components:
  | Sum of eigenvalues            :        -180.57401052 Ha       -4913.66883089 eV
  | XC energy correction          :         -42.63045730 Ha       -1160.03376503 eV
  | XC potential correction       :          54.80901452 Ha        1491.42916822 eV
  | Free-atom electrostatic energy:        -146.85615874 Ha       -3996.15940163 eV
  | Hartree energy correction     :          -8.25128230 Ha        -224.52881519 eV
  | vdW energy correction         :           0.00000000 Ha           0.00000000 eV
  | Entropy correction            :           0.00000000 Ha           0.00000000 eV
  | ---------------------------
  | Total energy                  :        -323.50289433 Ha       -8802.96164452 eV
  | Total energy, T -> 0          :        -323.50289433 Ha       -8802.96164452 eV  <-- do not rely on this value for anything but (periodic) metals
  | Electronic free energy        :        -323.50289433 Ha       -8802.96164452 eV

  Derived energy quantities:
  | Kinetic energy                :         323.16416999 Ha        8793.74448630 eV
  | Electrostatic energy          :        -604.03660702 Ha      -16436.67236579 eV
  | Energy correction for multipole
  | error in Hartree potential    :           0.03856732 Ha           1.04947018 eV
  | Sum of eigenvalues per atom                           :        -377.97452545 eV
  | Total energy (T->0) per atom                          :        -677.15089573 eV  <-- do not rely on this value for anything but (periodic) metals
  | Electronic free energy per atom                       :        -677.15089573 eV

  Self-consistency convergence accuracy:
  | Change of charge density      :  0.2013E+00
  | Change of sum of eigenvalues  :  0.3502E+02 eV
  | Change of total energy        :  0.3248E+00 eV

  End self-consistency iteration #     3       :  max(cpu_time)    wall_clock(cpu1)
  | Time for this iteration                    :        0.083 s           0.078 s
  | Charge density update                      :        0.027 s           0.021 s
  | Density mixing                             :        0.001 s           0.000 s
  | Hartree multipole update                   :        0.001 s           0.002 s
  | Hartree multipole summation                :        0.023 s           0.022 s
  | Integration                                :        0.028 s           0.028 s
  | Solution of K.-S. eqns.                    :        0.004 s           0.004 s
  | Total energy evaluation                    :        0.000 s           0.000 s

  Partial memory accounting:
  | Current value for overall tracked memory usage on task 0  :           0.134 MB
  | Peak value for overall tracked memory usage on task 0     :           0.828 MB after allocating gradient_basis_wave
  | Largest tracked array allocation on task 0 so far         :           0.521 MB  when allocating gradient_basis_wave
  Note:  These values currently only include a subset of arrays which are explicitly tracked.
  The "true" memory usage will be greater.
------------------------------------------------------------

------------------------------------------------------------
          Begin self-consistency iteration #    4

  Date     :  20200616, Time     :  071201.778
------------------------------------------------------------
  Evaluating new KS density.
  Integration grid: deviation in total charge (<rho> - N_e) =   1.421085E-14
  Pulay mixing of updated and previous charge densities.

  Evaluating partitioned Hartree potential by multipole expansion.
  | Analytical far-field extrapolation by fixed multipoles:
  | Hartree multipole sum: apparent total charge =  -0.388145E-03
  Summing up the Hartree potential.
  Time summed over all CPUs for potential: real work        0.411 s, elapsed        0.432 s
  | RMS charge density error from multipole expansion :   0.258417E-01

  Integrating Hamiltonian matrix: batch-based integration.
  Time summed over all CPUs for integration: real work        0.510 s, elapsed        0.548 s

  Updating Kohn-Sham eigenvalues and eigenvectors using ELSI and the ELPA eigensolver.
  ELPA settings:
  | ELPA solver          1
  Finished transformation to standard eigenproblem
  | Time :     0.000 s
  Starting ELPA eigensolver
  | Time full => tridiagonal    :     0.002 s
  | Time solve tridiagonal      :     0.000 s
  | Time ev tridiagonal => full :     0.000 s
  Finished solving standard eigenproblem
  | Time :     0.003 s
  Finished back-transformation of eigenvectors
  | Time :     0.000 s

  Obtaining occupation numbers and chemical potential using ELSI.
  | Chemical potential (Fermi level):    -2.11023055eV
  Highest occupied state (VBM) at     -5.58220071 eV
  | Occupation number:      2.00000000

  Lowest unoccupied state (CBM) at    -1.05865399 eV
  | Occupation number:      0.00000000

  Overall HOMO-LUMO gap:      4.52354672 eV.

  Total energy components:
  | Sum of eigenvalues            :        -180.44971980 Ha       -4910.28670849 eV
  | XC energy correction          :         -42.66541839 Ha       -1160.98510457 eV
  | XC potential correction       :          54.85302401 Ha        1492.62672723 eV
  | Free-atom electrostatic energy:        -146.85615874 Ha       -3996.15940163 eV
  | Hartree energy correction     :          -8.38386650 Ha        -228.13661485 eV
  | vdW energy correction         :           0.00000000 Ha           0.00000000 eV
  | Entropy correction            :           0.00000000 Ha           0.00000000 eV
  | ---------------------------
  | Total energy                  :        -323.50213942 Ha       -8802.94110231 eV
  | Total energy, T -> 0          :        -323.50213942 Ha       -8802.94110231 eV  <-- do not rely on this value for anything but (periodic) metals
  | Electronic free energy        :        -323.50213942 Ha       -8802.94110231 eV

  Derived energy quantities:
  | Kinetic energy                :         322.79999587 Ha        8783.83480431 eV
  | Electrostatic energy          :        -603.63671691 Ha      -16425.79080205 eV
  | Energy correction for multipole
  | error in Hartree potential    :           0.04264269 Ha           1.16036654 eV
  | Sum of eigenvalues per atom                           :        -377.71436219 eV
  | Total energy (T->0) per atom                          :        -677.14931556 eV  <-- do not rely on this value for anything but (periodic) metals
  | Electronic free energy per atom                       :        -677.14931556 eV

  Self-consistency convergence accuracy:
  | Change of charge density      :  0.6016E-01
  | Change of sum of eigenvalues  :  0.3382E+01 eV
  | Change of total energy        :  0.2054E-01 eV

  End self-consistency iteration #     4       :  max(cpu_time)    wall_clock(cpu1)
  | Time for this iteration                    :        0.084 s           0.078 s
  | Charge density update                      :        0.027 s           0.021 s
  | Density mixing                             :        0.001 s           0.001 s
  | Hartree multipole update                   :        0.001 s           0.002 s
  | Hartree multipole summation                :        0.022 s           0.022 s
  | Integration                                :        0.028 s           0.027 s
  | Solution of K.-S. eqns.                    :        0.004 s           0.004 s
  | Total energy evaluation                    :        0.000 s           0.000 s

  Partial memory accounting:
  | Current value for overall tracked memory usage on task 0  :           0.134 MB
  | Peak value for overall tracked memory usage on task 0     :           0.828 MB after allocating gradient_basis_wave
  | Largest tracked array allocation on task 0 so far         :           0.521 MB  when allocating gradient_basis_wave
  Note:  These values currently only include a subset of arrays which are explicitly tracked.
  The "true" memory usage will be greater.
------------------------------------------------------------

------------------------------------------------------------
          Begin self-consistency iteration #    5

  Date     :  20200616, Time     :  071201.862
------------------------------------------------------------
  Evaluating new KS density.
  Integration grid: deviation in total charge (<rho> - N_e) =   0.000000E+00
  Pulay mixing of updated and previous charge densities.

  Evaluating partitioned Hartree potential by multipole expansion.
  | Analytical far-field extrapolation by fixed multipoles:
  | Hartree multipole sum: apparent total charge =  -0.382128E-03
  Summing up the Hartree potential.
  Time summed over all CPUs for potential: real work        0.411 s, elapsed        0.433 s
  | RMS charge density error from multipole expansion :   0.255787E-01

  Integrating Hamiltonian matrix: batch-based integration.
  Time summed over all CPUs for integration: real work        0.509 s, elapsed        0.549 s

  Updating Kohn-Sham eigenvalues and eigenvectors using ELSI and the ELPA eigensolver.
  ELPA settings:
  | ELPA solver          1
  Finished transformation to standard eigenproblem
  | Time :     0.000 s
  Starting ELPA eigensolver
  | Time full => tridiagonal    :     0.002 s
  | Time solve tridiagonal      :     0.000 s
  | Time ev tridiagonal => full :     0.000 s
  Finished solving standard eigenproblem
  | Time :     0.003 s
  Finished back-transformation of eigenvectors
  | Time :     0.000 s

  Obtaining occupation numbers and chemical potential using ELSI.
  | Chemical potential (Fermi level):    -2.17757680eV
  Highest occupied state (VBM) at     -5.67525959 eV
  | Occupation number:      2.00000000

  Lowest unoccupied state (CBM) at    -1.14836972 eV
  | Occupation number:      0.00000000

  Overall HOMO-LUMO gap:      4.52688987 eV.

  Total energy components:
  | Sum of eigenvalues            :        -180.63703834 Ha       -4915.38390513 eV
  | XC energy correction          :         -42.64247154 Ha       -1160.36068909 eV
  | XC potential correction       :          54.82326436 Ha        1491.81692599 eV
  | Free-atom electrostatic energy:        -146.85615874 Ha       -3996.15940163 eV
  | Hartree energy correction     :          -8.18943629 Ha        -222.84589963 eV
  | vdW energy correction         :           0.00000000 Ha           0.00000000 eV
  | Entropy correction            :           0.00000000 Ha           0.00000000 eV
  | ---------------------------
  | Total energy                  :        -323.50184054 Ha       -8802.93296949 eV
  | Total energy, T -> 0          :        -323.50184054 Ha       -8802.93296949 eV  <-- do not rely on this value for anything but (periodic) metals
  | Electronic free energy        :        -323.50184054 Ha       -8802.93296949 eV

  Derived energy quantities:
  | Kinetic energy                :         322.69772205 Ha        8781.05179197 eV
  | Electrostatic energy          :        -603.55709105 Ha      -16423.62407236 eV
  | Energy correction for multipole
  | error in Hartree potential    :           0.04201865 Ha           1.14338573 eV
  | Sum of eigenvalues per atom                           :        -378.10645424 eV
  | Total energy (T->0) per atom                          :        -677.14868996 eV  <-- do not rely on this value for anything but (periodic) metals
  | Electronic free energy per atom                       :        -677.14868996 eV

  Self-consistency convergence accuracy:
  | Change of charge density      :  0.2001E-01
  | Change of sum of eigenvalues  : -0.5097E+01 eV
  | Change of total energy        :  0.8133E-02 eV

  End self-consistency iteration #     5       :  max(cpu_time)    wall_clock(cpu1)
  | Time for this iteration                    :        0.081 s           0.078 s
  | Charge density update                      :        0.025 s           0.022 s
  | Density mixing                             :        0.001 s           0.001 s
  | Hartree multipole update                   :        0.001 s           0.001 s
  | Hartree multipole summation                :        0.022 s           0.022 s
  | Integration                                :        0.028 s           0.028 s
  | Solution of K.-S. eqns.                    :        0.004 s           0.004 s
  | Total energy evaluation                    :        0.000 s           0.000 s

  Partial memory accounting:
  | Current value for overall tracked memory usage on task 0  :           0.134 MB
  | Peak value for overall tracked memory usage on task 0     :           0.829 MB after allocating gradient_basis_wave
  | Largest tracked array allocation on task 0 so far         :           0.521 MB  when allocating gradient_basis_wave
  Note:  These values currently only include a subset of arrays which are explicitly tracked.
  The "true" memory usage will be greater.
------------------------------------------------------------

------------------------------------------------------------
          Begin self-consistency iteration #    6

  Date     :  20200616, Time     :  071201.946
------------------------------------------------------------
  Evaluating new KS density.
  Integration grid: deviation in total charge (<rho> - N_e) =   2.131628E-14
  Pulay mixing of updated and previous charge densities.

[...]
  |   Hirshfeld dipole moment :      0.06652462
  |   Hirshfeld second moments:     -0.03105085      -0.00315673      -0.00675319
  |                                 -0.00315673      -0.01069957       0.02312109
  |                                 -0.00675319       0.02312109       0.00556036
  ----------------------------------------------------------------------
  | Atom    12: O
  |   Hirshfeld charge        :     -0.15024753
  |   Free atom volume        :     23.61338643
  |   Hirshfeld volume        :     20.76822586
  |   Hirshfeld dipole vector :      0.03782938      -0.01562235       0.01353067
  |   Hirshfeld dipole moment :      0.04310683
  |   Hirshfeld second moments:      0.03532022       0.02344683      -0.01145405
  |                                  0.02344683       0.09791577       0.00103034
  |                                 -0.01145405       0.00103034       0.04855261
  ----------------------------------------------------------------------
  | Atom    13: H
  |   Hirshfeld charge        :      0.17099882
  |   Free atom volume        :      9.95071624
  |   Hirshfeld volume        :      6.39847224
  |   Hirshfeld dipole vector :     -0.01663121      -0.11357647       0.00821493
  |   Hirshfeld dipole moment :      0.11508126
  |   Hirshfeld second moments:      0.09560336       0.01452636      -0.01579755
  |                                  0.01452636       0.11463551       0.00758696
  |                                 -0.01579755       0.00758696       0.11052506
  ----------------------------------------------------------------------


  Total energy components:
  | Sum of eigenvalues            :        -180.64850577 Ha       -4915.69594992 eV
  | XC energy correction          :         -42.63673252 Ha       -1160.20452232 eV
  | XC potential correction       :          54.81588643 Ha        1491.61616230 eV
  | Free-atom electrostatic energy:        -146.85615874 Ha       -3996.15940163 eV
  | Hartree energy correction     :          -8.17626146 Ha        -222.48739433 eV
  | vdW energy correction         :          -0.00339376 Ha          -0.09234899 eV
  | Entropy correction            :           0.00000000 Ha           0.00000000 eV
  | ---------------------------
  | Total energy                  :        -323.50516582 Ha       -8803.02345488 eV
  | Total energy, T -> 0          :        -323.50516582 Ha       -8803.02345488 eV  <-- do not rely on this value for anything but (periodic) metals
  | Electronic free energy        :        -323.50516582 Ha       -8803.02345488 eV

  Derived energy quantities:
  | Kinetic energy                :         322.57546881 Ha        8777.72511210 eV
  | Electrostatic energy          :        -603.44050835 Ha      -16420.45169567 eV
  | Energy correction for multipole
  | error in Hartree potential    :           0.04240429 Ha           1.15387932 eV
  | Sum of eigenvalues per atom                           :        -378.13045769 eV
  | Total energy (T->0) per atom                          :        -677.15565038 eV  <-- do not rely on this value for anything but (periodic) metals
  | Electronic free energy per atom                       :        -677.15565038 eV

  atomic forces [eV/Ang]:
  -----------------------
  atom #    1
   Hellmann-Feynman              :  0.651208E+00 -0.389120E+00  0.128828E+01
   Ionic forces                  :  0.000000E+00  0.000000E+00  0.000000E+00
   Multipole                     : -0.586413E-01  0.335836E+00 -0.327123E+00
   Pulay + GGA                   : -0.114309E+01 -0.380171E-01 -0.138677E+01
   Van der Waals                 :  0.240216E-02  0.154285E-02 -0.179956E-02
   ----------------------------------------------------------------
   Total forces(   1)            : -0.548125E+00 -0.897580E-01 -0.427417E+00
  atom #    2
   Hellmann-Feynman              :  0.133960E+00 -0.111376E+00 -0.347574E-01
   Ionic forces                  :  0.000000E+00  0.000000E+00  0.000000E+00
   Multipole                     :  0.202622E+00  0.405726E-01 -0.325933E-01
   Pulay + GGA                   : -0.138368E+00  0.341474E-02  0.165923E-01
   Van der Waals                 :  0.158587E-03 -0.116277E-02 -0.181667E-02
   ----------------------------------------------------------------
   Total forces(   2)            :  0.198372E+00 -0.685512E-01 -0.525751E-01
  atom #    3
   Hellmann-Feynman              :  0.534577E+01  0.927847E+01 -0.448124E+01
   Ionic forces                  :  0.000000E+00  0.000000E+00  0.000000E+00
   Multipole                     : -0.175918E+00  0.155099E+00 -0.841439E+00
   Pulay + GGA                   : -0.438433E+01 -0.908509E+01  0.605471E+01
   Van der Waals                 :  0.451469E-02 -0.397763E-02 -0.599541E-02
   ----------------------------------------------------------------
   Total forces(   3)            :  0.790037E+00  0.344495E+00  0.726032E+00
  atom #    4
   Hellmann-Feynman              : -0.175612E+00 -0.153669E+00 -0.142941E+00
   Ionic forces                  :  0.000000E+00  0.000000E+00  0.000000E+00
   Multipole                     : -0.227779E-01 -0.846183E-01 -0.703179E-01
   Pulay + GGA                   : -0.834448E-02  0.234370E+00  0.387812E-01
   Van der Waals                 : -0.278693E-02  0.161604E-02  0.419958E-03
   ----------------------------------------------------------------
   Total forces(   4)            : -0.209521E+00 -0.230139E-02 -0.174058E+00
  atom #    5
   Hellmann-Feynman              : -0.328631E+00 -0.239569E+00 -0.390317E-01
   Ionic forces                  :  0.000000E+00  0.000000E+00  0.000000E+00
   Multipole                     : -0.984430E-01 -0.261708E-01 -0.394218E-01
   Pulay + GGA                   :  0.239365E+00  0.212003E-01 -0.301167E-01
   Van der Waals                 : -0.402306E-03  0.351883E-02 -0.110033E-01
   ----------------------------------------------------------------
   Total forces(   5)            : -0.188111E+00 -0.241021E+00 -0.119574E+00
  atom #    6
   Hellmann-Feynman              :  0.265886E-02 -0.448494E+00  0.655871E-01
   Ionic forces                  :  0.000000E+00  0.000000E+00  0.000000E+00
   Multipole                     : -0.203152E+00  0.662991E+00  0.265098E+00
   Pulay + GGA                   :  0.317802E+00 -0.526948E+00 -0.381186E+00
   Van der Waals                 :  0.462722E-02  0.718556E-02  0.351700E-02
   ----------------------------------------------------------------
   Total forces(   6)            :  0.121936E+00 -0.305266E+00 -0.469840E-01
  atom #    7
   Hellmann-Feynman              :  0.749375E-01  0.815786E-01 -0.117446E+00
   Ionic forces                  :  0.000000E+00  0.000000E+00  0.000000E+00
   Multipole                     :  0.458148E-01  0.137267E+00  0.214741E-01
   Pulay + GGA                   : -0.749766E-01 -0.103015E+00 -0.160320E-02
   Van der Waals                 : -0.262336E-02 -0.139833E-02  0.163626E-02
   ----------------------------------------------------------------
   Total forces(   7)            :  0.431523E-01  0.114432E+00 -0.959391E-01
  atom #    8
   Hellmann-Feynman              : -0.217290E+00 -0.449932E-01 -0.552878E-01
   Ionic forces                  :  0.000000E+00  0.000000E+00  0.000000E+00
   Multipole                     : -0.110410E+00  0.853985E-01  0.648701E-03
   Pulay + GGA                   :  0.100739E+00 -0.500007E-02  0.574008E-01
   Van der Waals                 : -0.886476E-03  0.115624E-02  0.442792E-02
   ----------------------------------------------------------------
   Total forces(   8)            : -0.227847E+00  0.365616E-01  0.718962E-02
  atom #    9
   Hellmann-Feynman              :  0.447482E-01 -0.128589E-01  0.164370E+00
   Ionic forces                  :  0.000000E+00  0.000000E+00  0.000000E+00
   Multipole                     : -0.274747E-01  0.491716E-01  0.135395E+00
   Pulay + GGA                   :  0.159607E-02  0.270421E-01 -0.980407E-01
   Van der Waals                 : -0.333898E-02 -0.328774E-02 -0.209658E-02
   ----------------------------------------------------------------
   Total forces(   9)            :  0.155306E-01  0.600671E-01  0.199628E+00
  atom #   10
   Hellmann-Feynman              :  0.444624E+01  0.492636E+01 -0.681904E+00
   Ionic forces                  :  0.000000E+00  0.000000E+00  0.000000E+00
   Multipole                     :  0.132409E+00 -0.295850E+00  0.153596E+00
   Pulay + GGA                   : -0.263032E+01 -0.275499E+01  0.721053E+00
   Van der Waals                 :  0.456504E-02 -0.109061E-01  0.103816E-01
   ----------------------------------------------------------------
   Total forces(  10)            :  0.195289E+01  0.186461E+01  0.203127E+00
  atom #   11
   Hellmann-Feynman              :  0.100182E+02 -0.783680E+01  0.793571E+01
   Ionic forces                  :  0.000000E+00  0.000000E+00  0.000000E+00
   Multipole                     :  0.403118E+00 -0.720383E+00  0.484806E+00
   Pulay + GGA                   : -0.864424E+01  0.792472E+01 -0.792227E+01
   Van der Waals                 : -0.421855E-02  0.752390E-02 -0.527552E-02
   ----------------------------------------------------------------
   Total forces(  11)            :  0.177291E+01 -0.624938E+00  0.492973E+00
  atom #   12
   Hellmann-Feynman              : -0.130409E+02  0.761474E+01 -0.534264E+01
   Ionic forces                  :  0.000000E+00  0.000000E+00  0.000000E+00
   Multipole                     : -0.145095E+01 -0.274594E+00 -0.140379E+00
   Pulay + GGA                   :  0.115909E+02 -0.783697E+01  0.418866E+01
   Van der Waals                 : -0.378800E-02 -0.852775E-02  0.117770E-01
   ----------------------------------------------------------------
   Total forces(  12)            : -0.290479E+01 -0.505355E+00 -0.128258E+01
  atom #   13
   Hellmann-Feynman              : -0.848759E+00 -0.859951E+00  0.616840E+00
   Ionic forces                  :  0.000000E+00  0.000000E+00  0.000000E+00
   Multipole                     :  0.345705E-01 -0.105006E+00  0.855022E-02
   Pulay + GGA                   : -0.498718E-02  0.368605E+00 -0.532294E-01
   Van der Waals                 :  0.177689E-02  0.671689E-02 -0.417270E-02
   ----------------------------------------------------------------
   Total forces(  13)            : -0.817399E+00 -0.589634E+00  0.567988E+00

  Timings for VdW correction (Tkatchenko-Scheffler 2009 or later):
  | CPU time:        0.011 s, Wall clock time:        0.007 s.
  Removing unitary transformations (pure translations, rotations) from forces on atoms.
  Atomic forces before filtering:
  | Net force on center of mass :  -0.964179E-03 -0.665531E-02 -0.219062E-02 eV/A
  | Net torque on center of mass:   0.156201E-02  0.256449E-02  0.466012E-02 eV
  Atomic forces after filtering:
  | Net force on center of mass :   0.356812E-15  0.892031E-16  0.000000E+00 eV/A
  | Net torque on center of mass:  -0.188817E-15 -0.188817E-15 -0.755268E-15 eV

  Energy and forces in a compact form:
  | Total energy uncorrected      :         -0.880302345488281E+04 eV
  | Total energy corrected        :         -0.880302345488281E+04 eV  <-- do not rely on this value for anything but (periodic) metals
  | Electronic free energy        :         -0.880302345488281E+04 eV
  Total atomic forces (unitary forces cleaned) [eV/Ang]:
  |   1         -0.548005441381898E+00         -0.893259072575986E-01         -0.427199191540457E+00
  |   2          0.198492097809926E+00         -0.682712539168564E-01         -0.522345457040235E-01
  |   3          0.790315030117266E+00          0.344927654257405E+00          0.726196005325707E+00
  |   4         -0.209316187007223E+00         -0.192725620941653E-02         -0.173822092652871E+00
  |   5         -0.187818877174656E+00         -0.240447696608169E+00         -0.119528373489110E+00
  |   6          0.122149685613499E+00         -0.304730680656047E+00         -0.468815983977416E-01
  |   7          0.435041922403358E-01          0.114864757894440E+00         -0.958009526580143E-01
  |   8         -0.227557460944742E+00          0.372200726092774E-01          0.716670592776969E-02
  |   9          0.155987312843588E-01          0.606587678829895E-01          0.199733795923182E+00
  |  10          0.195274667562486E+01          0.186513504206618E+01          0.203360800514947E+00
  |  11          0.177259660028568E+01         -0.624487112635636E+00          0.493322299057724E+00
  |  12         -0.290497081088223E+01         -0.504665825261660E+00         -0.128246907798422E+01
  |  13         -0.817734235585171E+00         -0.588950562164903E+00          0.568156225677107E+00

  ------------------------------------ 
  Start decomposition of the XC Energy 
  ------------------------------------ 
  X and C from original XC functional choice 
  Hartree-Fock Energy :          0.000000000 Ha              0.000000000 eV
  X Energy            :        -41.037145396 Ha          -1116.677542141 eV
  C Energy            :         -1.599587121 Ha            -43.526980182 eV
  Total XC Energy     :        -42.636732516 Ha          -1160.204522323 eV
  ------------------------------------ 
  LDA X and C from self-consistent density 
  X Energy LDA        :        -37.254581223 Ha          -1013.748734049 eV
  C Energy LDA        :         -3.138323783 Ha            -85.398135152 eV
  ------------------------------------ 
  End decomposition of the XC Energy 
  ------------------------------------ 

------------------------------------------------------------

------------------------------------------------------------------------------
  Final output of selected total energy values:

  The following output summarizes some interesting total energy values
  at the end of a run (AFTER all relaxation, molecular dynamics, etc.).

  | Total energy of the DFT / Hartree-Fock s.c.f. calculation      :          -8803.023454883 eV
  | Final zero-broadening corrected energy (caution - metals only) :          -8803.023454883 eV
  | For reference only, the value of 1 Hartree used in FHI-aims is :             27.211384500 eV

  Before relying on these values, please be sure to understand exactly which
  total energy value is referred to by a given number. Different objects may
  all carry the same name 'total energy'. Definitions:

  Total energy of the DFT / Hartree-Fock s.c.f. calculation:
  | Note that this energy does not include ANY quantities calculated after the
  | s.c.f. cycle, in particular not ANY RPA, MP2, etc. many-body perturbation terms.

  Final zero-broadening corrected energy:
  | For metallic systems only, a broadening of the occupation numbers at the Fermi
  | level can be extrapolated back to zero broadening by an electron-gas inspired
  | formula. For all systems that are not real metals, this value can be
  | meaningless and should be avoided.

------------------------------------------------------------------------------
  Methods described in the following list of references were used in this FHI-aims run.
  If you publish the results, please make sure to cite these reference if they apply.
  FHI-aims is an academic code, and for our developers (often, Ph.D. students
  and postdocs), scientific credit in the community is essential.
  Thank you for helping us!

  For any use of FHI-aims, please cite:

    Volker Blum, Ralf Gehrke, Felix Hanke, Paula Havu, Ville Havu,
    Xinguo Ren, Karsten Reuter, and Matthias Scheffler
    'Ab initio molecular simulations with numeric atom-centered orbitals'
    Computer Physics Communications 180, 2175-2196 (2009)
    http://dx.doi.org/10.1016/j.cpc.2009.06.022


  The scalable eigensolver library ELPA was used in your run.
  ELPA is essential especially for large systems on hundreds or thousands of CPUs.
  For ELPA, please cite:

    Andreas Marek, Volker Blum, Rainer Johanni, Ville Havu, Bruno Lang,
    Thomas Auckenthaler, Alexander Heinecke, Hans-Joachim Bungartz, and Hermann Lederer,
    'The ELPA Library - Scalable Parallel Eigenvalue Solutions
    for Electronic Structure Theory and Computational Science'
    The Journal of Physics: Condensed Matter 26, 213201 (2014).
    http://dx.doi.org/10.1088/0953-8984/26/21/213201


  The ELSI infrastructure was used in your run to solve the Kohn-Sham electronic structure.
  Please check out http://elsi-interchange.org to learn more.
  If scalability is important for your project, please acknowledge ELSI by citing:

    V. W-z. Yu, F. Corsetti, A. Garcia, W. P. Huhn, M. Jacquelin, W. Jia,
    B. Lange, L. Lin, J. Lu, W. Mi, A. Seifitokaldani, A. Vazquez-Mayagoitia,
    C. Yang, H. Yang, and V. Blum
    'ELSI: A unified software interface for Kohn-Sham electronic structure solvers'
    Computer Physics Communications 222, 267-285 (2018).
    http://dx.doi.org/10.1016/j.cpc.2017.09.007


  For the real-space grid partitioning and parallelization used in this calculation, please cite:

    Ville Havu, Volker Blum, Paula Havu, and Matthias Scheffler,
    'Efficient O(N) integration for all-electron electronic structure calculation'
    'using numerically tabulated basis functions'
    Journal of Computational Physics 228, 8367-8379 (2009).
    http://dx.doi.org/10.1016/j.jcp.2009.08.008

  Of course, there are many other important community references, e.g., those cited in the
  above references. Our list is limited to references that describe implementations in the
  FHI-aims code. The reason is purely practical (length of this list) - please credit others as well.

------------------------------------------------------------
          Leaving FHI-aims.
          Date     :  20200616, Time     :  071202.959

          Computational steps:
          | Number of self-consistency cycles          :           15
          | Number of SCF (re)initializations          :            1

          Detailed time accounting                     :  max(cpu_time)    wall_clock(cpu1)
          | Total time                                 :        1.679 s           1.743 s
          | Preparation time                           :        0.163 s           0.163 s
          | Boundary condition initalization           :        0.000 s           0.000 s
          | Grid partitioning                          :        0.022 s           0.022 s
          | Preloading free-atom quantities on grid    :        0.003 s           0.003 s
          | Free-atom superposition energy             :        0.005 s           0.004 s
          | Total time for integrations                :        0.455 s           0.454 s
          | Total time for solution of K.-S. equations :        0.071 s           0.073 s
          | Total time for density & force components  :        0.442 s           0.386 s
          | Total time for mixing                      :        0.017 s           0.017 s
          | Total time for Hartree multipole update    :        0.020 s           0.022 s
          | Total time for Hartree multipole sum       :        0.411 s           0.409 s
          | Total time for total energy evaluation     :        0.003 s           0.005 s
          | Total time for vdW correction              :        0.011 s           0.007 s

          Partial memory accounting:
          | Residual value for overall tracked memory usage across tasks :           0.000 MB (should be 0.000 MB)
          | Peak values for overall tracked memory usage (after allocating hessian_basis_wave):
          |   Minimum:        2.019 MB (on task 17)
          |   Maximum:        2.061 MB (on task  3)
          |   Average:        2.038 MB
          | Largest tracked array allocation (hessian_basis_wave):
          |   Minimum:        1.033 MB (on task  5)
          |   Maximum:        1.051 MB (on task  3)
          |   Average:        1.042 MB
          Note:  These values currently only include a subset of arrays which are explicitly tracked.
          The "true" memory usage will be greater.

          Have a nice day.
------------------------------------------------------------
