  MPI-parallelism will be employed.
------------------------------------------------------------
          Invoking FHI-aims ...
          Version 171221_1
          Compiled on 2019/09/09 at 14:39:39 on host puhti-login2.bullx.

          When using FHI-aims, please cite the following reference:

          Volker Blum, Ralf Gehrke, Felix Hanke, Paula Havu,
          Ville Havu, Xinguo Ren, Karsten Reuter, and Matthias Scheffler,
          'Ab Initio Molecular Simulations with Numeric Atom-Centered Orbitals',
          Computer Physics Communications 180, 2175-2196 (2009)

          For any questions about FHI-aims, please visit the aimsclub website
          with its forums and wiki. Contributions to both the forums and the
          wiki are warmly encouraged - they are for you, and everyone is welcome there.

------------------------------------------------------------



  Date     :  20200805, Time     :  184755.151
  Time zero on CPU 1             :   0.112200000000000E-01  s.
  Internal wall clock time zero  :           365885275.151  s.

  FHI-aims created a unique identifier for this run for later identification
  aims_uuid : 3E4F1BF9-C867-4B46-AFA2-ADFDDABA6939

  Using        1 parallel tasks.
  Task        0 on host r18c03.bullx reporting.

  Performing system and environment tests:
  | Environment variable OMP_NUM_THREADS correctly set to 1.
  | Stacksize not measured: no C compiler
  | Checking for scalapack...
  | Testing pdtran()...
  | All pdtran() tests passed.

  Obtaining array dimensions for all initial allocations:
  
  -----------------------------------------------------------------------
  Parsing control.in (first pass over file, find array dimensions only).
  The contents of control.in will be repeated verbatim below
  unless switched off by setting 'verbatim_writeout .false.' .
  in the first line of control.in .
  -----------------------------------------------------------------------
  
  #########################################################################################
  #
  #  Volker Blum, FHI 2009 : Test run input file control.in for simple H2O
  #
  #########################################################################################
  #
  #  Physical model
  #
    xc                 pbe
    vdw_correction_hirshfeld
    spin               none
    relativistic       none
    charge             0.
  #
  #  SCF convergence
  #
    occupation_type    gaussian 0.01
    mixer              pulay
      n_max_pulay        10
      charge_mix_param   0.2
    sc_accuracy_rho    1E-5
    sc_accuracy_eev    1E-3
    sc_accuracy_etot   1E-6
    sc_accuracy_forces 1E-4
    sc_iter_limit      100
  #
  #  Relaxation
  #
  #  relax_geometry   bfgs 1.e-3
  #
  ################################################################################
  #
  #  FHI-aims code project
  #  VB, Fritz-Haber Institut, 2009
  #
  #  Suggested "light" defaults for H atom (to be pasted into control.in file)
  #  Be sure to double-check any results obtained with these settings for post-processing,
  #  e.g., with the "tight" defaults and larger basis sets.
  #
  ################################################################################
    species        H
  #     global species definitions
      nucleus             1
      mass                1.00794
  #
      l_hartree           4
  #
      cut_pot             3.5  1.5  1.0
      basis_dep_cutoff    1e-4
  #
      radial_base         24 5.0
      radial_multiplier   1
      angular_grids       specified
        division   0.2421   50
        division   0.3822  110
        division   0.4799  194
        division   0.5341  302
  #      division   0.5626  434
  #      division   0.5922  590
  #      division   0.6542  770
  #      division   0.6868 1202
  #      outer_grid  770
        outer_grid  302
  ################################################################################
  #
  #  Definition of "minimal" basis
  #
  ################################################################################
  #     valence basis states
      valence      1  s   1.
  #     ion occupancy
      ion_occ      1  s   0.5
  ################################################################################
  #
  #  Suggested additional basis functions. For production calculations,
  #  uncomment them one after another (the most important basis functions are
  #  listed first).
  #
  #  Basis constructed for dimers: 0.5 A, 0.7 A, 1.0 A, 1.5 A, 2.5 A
  #
  ################################################################################
  #  "First tier" - improvements: -1014.90 meV to -62.69 meV
       hydro 2 s 2.1
       hydro 2 p 3.5
  #  "Second tier" - improvements: -12.89 meV to -1.83 meV
  #     hydro 1 s 0.85
  #     hydro 2 p 3.7
  #     hydro 2 s 1.2
  #     hydro 3 d 7
  #  "Third tier" - improvements: -0.25 meV to -0.12 meV
  #     hydro 4 f 11.2
  #     hydro 3 p 4.8
  #     hydro 4 d 9
  #     hydro 3 s 3.2
  ################################################################################
  #
  #  FHI-aims code project
  #  VB, Fritz-Haber Institut, 2009
  #
  #  Suggested "light" defaults for C atom (to be pasted into control.in file)
  #  Be sure to double-check any results obtained with these settings for post-processing,
  #  e.g., with the "tight" defaults and larger basis sets.
  #
  ################################################################################
    species        C
  #     global species definitions
      nucleus             6
      mass                12.0107
  #
      l_hartree           4
  #
      cut_pot             3.5  1.5  1.0
      basis_dep_cutoff    1e-4
  #
      radial_base         34 5.0
      radial_multiplier   1
      angular_grids specified
        division   0.3326   50
        division   0.5710  110
        division   0.7727  194
        division   0.8772  302
  #      division   0.9334  434
  #      division   0.9625  590
  #      division   0.9924  770
  #      division   1.0230  974
  #      division   1.4589 1202
  #     outer_grid  974
       outer_grid 302
  ################################################################################
  #
  #  Definition of "minimal" basis
  #
  ################################################################################
  #     valence basis states
      valence      2  s   2.
      valence      2  p   2.
  #     ion occupancy
      ion_occ      2  s   1.
      ion_occ      2  p   1.
  ################################################################################
  #
  #  Suggested additional basis functions. For production calculations,
  #  uncomment them one after another (the most important basis functions are
  #  listed first).
  #
  #  Constructed for dimers: 1.0 A, 1.25 A, 1.5 A, 2.0 A, 3.0 A
  #
  ################################################################################
  #  "First tier" - improvements: -1214.57 meV to -155.61 meV
       hydro 2 p 1.7
       hydro 3 d 6
       hydro 2 s 4.9
  #  "Second tier" - improvements: -67.75 meV to -5.23 meV
  #     hydro 4 f 9.8
  #     hydro 3 p 5.2
  #     hydro 3 s 4.3
  #     hydro 5 g 14.4
  #     hydro 3 d 6.2
  #  "Third tier" - improvements: -2.43 meV to -0.60 meV
  #     hydro 2 p 5.6
  #     hydro 2 s 1.4
  #     hydro 3 d 4.9
  #     hydro 4 f 11.2
  #  "Fourth tier" - improvements: -0.39 meV to -0.18 meV
  #     hydro 2 p 2.1
  #     hydro 5 g 16.4
  #     hydro 4 d 13.2
  #     hydro 3 s 13.6
  #     hydro 4 f 17.6
  #  Further basis functions - improvements: -0.08 meV and below
  #     hydro 3 s 2
  #     hydro 3 p 6
  #     hydro 4 d 20
  ################################################################################
  #
  #  FHI-aims code project
  #  VB, Fritz-Haber Institut, 2009
  #
  #  Suggested "light" defaults for N atom (to be pasted into control.in file)
  #  Be sure to double-check any results obtained with these settings for post-processing,
  #  e.g., with the "tight" defaults and larger basis sets.
  #
  ################################################################################
    species        N
  #     global species definitions
      nucleus             7
      mass                14.0067
  #
      l_hartree           4
  #
      cut_pot             3.5  1.5  1.0
      basis_dep_cutoff    1e-4
  #
      radial_base         35 5.0
      radial_multiplier   1
      angular_grids       specified
        division   0.2599   50
        division   0.4601  110
        division   0.5885  194
        division   0.6503  302
  #      division   0.6939  434
  #      division   0.7396  590
  #      division   0.7632  770
  #      division   0.8122  974
  #      division   1.1604 1202
  #      outer_grid  974
        outer_grid  302
  ################################################################################
  #
  #  Definition of "minimal" basis
  #
  ################################################################################
  #     valence basis states
      valence      2  s   2.
      valence      2  p   3.
  #     ion occupancy
      ion_occ      2  s   1.
      ion_occ      2  p   2.
  ################################################################################
  #
  #  Suggested additional basis functions. For production calculations,
  #  uncomment them one after another (the most important basis functions are
  #  listed first).
  #
  #  Constructed for dimers: 1.0 A, 1.1 A, 1.5 A, 2.0 A, 3.0 A
  #
  ################################################################################
  #  "First tier" - improvements: -1193.42 meV to -220.60 meV
       hydro 2 p 1.8
       hydro 3 d 6.8
       hydro 3 s 5.8
  #  "Second tier" - improvements: -80.21 meV to -6.86 meV
  #     hydro 4 f 10.8
  #     hydro 3 p 5.8
  #     hydro 1 s 0.8
  #     hydro 5 g 16
  #     hydro 3 d 4.9
  #  "Third tier" - improvements: -4.29 meV to -0.53 meV
  #     hydro 3 s 16
  #     ionic 2 p auto
  #     hydro 3 d 6.6
  #     hydro 4 f 11.6
  #  "Fourth tier" - improvements: -0.75 meV to -0.25 meV
  #     hydro 2 p 4.5
  #     hydro 2 s 2.4
  #     hydro 5 g 14.4
  #     hydro 4 d 14.4
  #     hydro 4 f 16.8
  # Further basis functions - -0.21 meV and below
  #     hydro 3 p 14.8
  #     hydro 3 s 4.4
  #     hydro 3 d 19.6
  #     hydro 5 g 12.8
  ################################################################################
  #
  #  FHI-aims code project
  #  VB, Fritz-Haber Institut, 2009
  #
  #  Suggested "light" defaults for O atom (to be pasted into control.in file)
  #  Be sure to double-check any results obtained with these settings for post-processing,
  #  e.g., with the "tight" defaults and larger basis sets.
  #
  ################################################################################
    species        O
  #     global species definitions
      nucleus             8
      mass                15.9994
  #
      l_hartree           4
  #
      cut_pot             3.5  1.5  1.0
      basis_dep_cutoff    1e-4
  #
      radial_base         36 5.0
      radial_multiplier   1
       angular_grids specified
        division   0.2659   50
        division   0.4451  110
        division   0.6052  194
        division   0.7543  302
  #      division   0.8014  434
  #      division   0.8507  590
  #      division   0.8762  770
  #      division   0.9023  974
  #      division   1.2339 1202
  #      outer_grid 974
        outer_grid 302
  ################################################################################
  #
  #  Definition of "minimal" basis
  #
  ################################################################################
  #     valence basis states
      valence      2  s   2.
      valence      2  p   4.
  #     ion occupancy
      ion_occ      2  s   1.
      ion_occ      2  p   3.
  ################################################################################
  #
  #  Suggested additional basis functions. For production calculations,
  #  uncomment them one after another (the most important basis functions are
  #  listed first).
  #
  #  Constructed for dimers: 1.0 A, 1.208 A, 1.5 A, 2.0 A, 3.0 A
  #
  ################################################################################
  #  "First tier" - improvements: -699.05 meV to -159.38 meV
       hydro 2 p 1.8
       hydro 3 d 7.6
       hydro 3 s 6.4
  #  "Second tier" - improvements: -49.91 meV to -5.39 meV
  #     hydro 4 f 11.6
  #     hydro 3 p 6.2
  #     hydro 3 d 5.6
  #     hydro 5 g 17.6
  #     hydro 1 s 0.75
  #  "Third tier" - improvements: -2.83 meV to -0.50 meV
  #     ionic 2 p auto
  #     hydro 4 f 10.8
  #     hydro 4 d 4.7
  #     hydro 2 s 6.8
  #  "Fourth tier" - improvements: -0.40 meV to -0.12 meV
  #     hydro 3 p 5
  #     hydro 3 s 3.3
  #     hydro 5 g 15.6
  #     hydro 4 f 17.6
  #     hydro 4 d 14
  # Further basis functions - -0.08 meV and below
  #     hydro 3 s 2.1
  #     hydro 4 d 11.6
  #     hydro 3 p 16
  #     hydro 2 s 17.2
  
  -----------------------------------------------------------------------
  Completed first pass over input file control.in .
  -----------------------------------------------------------------------
  
  
  -----------------------------------------------------------------------
  Parsing geometry.in (first pass over file, find array dimensions only).
  The contents of geometry.in will be repeated verbatim below
  unless switched off by setting 'verbatim_writeout .false.' .
  in the first line of geometry.in .
  -----------------------------------------------------------------------
  
  atom  0.00000 0.00000 0.00000 C
  atom  1.09300 0.00000 0.00000 H
  atom  -0.47961 0.00000 -1.41207 N
  atom  -1.07697 0.81527 -1.55461 H
  atom  0.32717 0.04239 -2.03129 H
  atom  -0.49584 1.26211 0.72868 C
  atom  -1.58789 1.28919 0.74431 H
  atom  -0.13407 1.27425 1.75947 H
  atom  -0.13407 2.16087 0.22380 H
  atom  -0.39425 -1.28861 0.74398 C
  atom  -0.10189 -1.56493 1.88303 O
  atom  -1.10210 -2.13717 0.06896 O
  atom  -1.15035 -1.64679 -0.76900 H
  
  -----------------------------------------------------------------------
  Completed first pass over input file geometry.in .
  -----------------------------------------------------------------------
  

  Basic array size parameters:
  | Number of species                 :        4
  | Number of atoms                   :       13
  | Max. basis fn. angular momentum   :        2
  | Max. atomic/ionic basis occupied n:        2
  | Max. number of basis fn. types    :        2
  | Max. radial fns per species/type  :        3
  | Max. logarithmic grid size        :     1301
  | Max. radial integration grid size :       36
  | Max. angular integration grid size:      302
  | Max. angular grid division number :        8
  | Radial grid for Hartree potential :     1301
  | Number of spin channels           :        1

------------------------------------------------------------
          Reading file control.in.
------------------------------------------------------------
  XC: Using PBE gradient-corrected functionals.
  Spin treatment: No spin polarisation.
  Non-relativistic treatment of kinetic energy.
  Charge =   0.000000E+00: Neutral system requested explicitly.
  Occupation type: Gaussian broadening, width =   0.100000E-01 eV.
  Using pulay charge density mixing.
  Pulay mixing - number of memorized iterations:   10
  Charge density mixing - mixing parameter:     0.2000
  Convergence accuracy of self-consistent charge density:  0.1000E-04
  Convergence accuracy of sum of eigenvalues:  0.1000E-02
  Convergence accuracy of total energy:  0.1000E-05
  Convergence accuracy of forces:  0.1000E-03
  Maximum number of s.-c. iterations  :   100
 
  Reading configuration options for species H                   .
  | Found nuclear charge :   1.0000
  | Found atomic mass :    1.00794000000000      amu
  | Found l_max for Hartree potential  :   4
  | Found cutoff potl. onset [A], width [A], scale factor :    3.50000    1.50000    1.00000
  | Threshold for basis-dependent cutoff potential is   0.100000E-03
  | Found data for basic radial integration grid :    24 points, outermost radius =    5.000 A
  | Found multiplier for basic radial grid :   1
  | Found angular grid specification: user-specified.
  | Specified grid contains     5 separate shells.
  | Check grid settings after all constraints further below.
  | Found free-atom valence shell :  1 s   1.000
  | No ionic wave fns used. Skipping ion_occ.
  | Found hydrogenic basis function :  2 s   2.100
  | Found hydrogenic basis function :  2 p   3.500
  Species H                   : Missing cutoff potential type.
  Defaulting to exp(1/x)/(1-x)^2 type cutoff potential.
  Species H : No 'logarithmic' tag. Using default grid for free atom:
  | Default logarithmic grid data [bohr] : 0.1000E-03 0.1000E+03 0.1012E+01
  Species H : On-site basis accuracy parameter (for Gram-Schmidt orthonormalisation) not specified.
  Using default value basis_acc =  0.1000000E-03.
  Species H                   : Using default innermost maximum threshold i_radial=  2 for radial functions.
  Species H                   : Default cutoff onset for free atom density etc. : 0.35000000E+01 AA.
  Species H                   : Basic radial grid will be enhanced according to radial_multiplier =   1, to contain    24 grid points.
 
  Reading configuration options for species C                   .
  | Found nuclear charge :   6.0000
  | Found atomic mass :    12.0107000000000      amu
  | Found l_max for Hartree potential  :   4
  | Found cutoff potl. onset [A], width [A], scale factor :    3.50000    1.50000    1.00000
  | Threshold for basis-dependent cutoff potential is   0.100000E-03
  | Found data for basic radial integration grid :    34 points, outermost radius =    5.000 A
  | Found multiplier for basic radial grid :   1
  | Found angular grid specification: user-specified.
  | Specified grid contains     5 separate shells.
  | Check grid settings after all constraints further below.
  | Found free-atom valence shell :  2 s   2.000
  | Found free-atom valence shell :  2 p   2.000
  | No ionic wave fns used. Skipping ion_occ.
  | No ionic wave fns used. Skipping ion_occ.
  | Found hydrogenic basis function :  2 p   1.700
  | Found hydrogenic basis function :  3 d   6.000
  | Found hydrogenic basis function :  2 s   4.900
  Species C                   : Missing cutoff potential type.
  Defaulting to exp(1/x)/(1-x)^2 type cutoff potential.
  Species C : No 'logarithmic' tag. Using default grid for free atom:
  | Default logarithmic grid data [bohr] : 0.1000E-03 0.1000E+03 0.1012E+01
  Species C : On-site basis accuracy parameter (for Gram-Schmidt orthonormalisation) not specified.
  Using default value basis_acc =  0.1000000E-03.
  Species C                   : Using default innermost maximum threshold i_radial=  2 for radial functions.
  Species C                   : Default cutoff onset for free atom density etc. : 0.35000000E+01 AA.
  Species C                   : Basic radial grid will be enhanced according to radial_multiplier =   1, to contain    34 grid points.
 
  Reading configuration options for species N                   .
  | Found nuclear charge :   7.0000
  | Found atomic mass :    14.0067000000000      amu
  | Found l_max for Hartree potential  :   4
  | Found cutoff potl. onset [A], width [A], scale factor :    3.50000    1.50000    1.00000
  | Threshold for basis-dependent cutoff potential is   0.100000E-03
  | Found data for basic radial integration grid :    35 points, outermost radius =    5.000 A
  | Found multiplier for basic radial grid :   1
  | Found angular grid specification: user-specified.
  | Specified grid contains     5 separate shells.
  | Check grid settings after all constraints further below.
  | Found free-atom valence shell :  2 s   2.000
  | Found free-atom valence shell :  2 p   3.000
  | No ionic wave fns used. Skipping ion_occ.
  | No ionic wave fns used. Skipping ion_occ.
  | Found hydrogenic basis function :  2 p   1.800
  | Found hydrogenic basis function :  3 d   6.800
  | Found hydrogenic basis function :  3 s   5.800
  Species N                   : Missing cutoff potential type.
  Defaulting to exp(1/x)/(1-x)^2 type cutoff potential.
  Species N : No 'logarithmic' tag. Using default grid for free atom:
  | Default logarithmic grid data [bohr] : 0.1000E-03 0.1000E+03 0.1012E+01
  Species N : On-site basis accuracy parameter (for Gram-Schmidt orthonormalisation) not specified.
  Using default value basis_acc =  0.1000000E-03.
  Species N                   : Using default innermost maximum threshold i_radial=  2 for radial functions.
  Species N                   : Default cutoff onset for free atom density etc. : 0.35000000E+01 AA.
  Species N                   : Basic radial grid will be enhanced according to radial_multiplier =   1, to contain    35 grid points.
 
  Reading configuration options for species O                   .
  | Found nuclear charge :   8.0000
  | Found atomic mass :    15.9994000000000      amu
  | Found l_max for Hartree potential  :   4
  | Found cutoff potl. onset [A], width [A], scale factor :    3.50000    1.50000    1.00000
  | Threshold for basis-dependent cutoff potential is   0.100000E-03
  | Found data for basic radial integration grid :    36 points, outermost radius =    5.000 A
  | Found multiplier for basic radial grid :   1
  | Found angular grid specification: user-specified.
  | Specified grid contains     5 separate shells.
  | Check grid settings after all constraints further below.
  | Found free-atom valence shell :  2 s   2.000
  | Found free-atom valence shell :  2 p   4.000
  | No ionic wave fns used. Skipping ion_occ.
  | No ionic wave fns used. Skipping ion_occ.
  | Found hydrogenic basis function :  2 p   1.800
  | Found hydrogenic basis function :  3 d   7.600
  | Found hydrogenic basis function :  3 s   6.400
  Species O                   : Missing cutoff potential type.
  Defaulting to exp(1/x)/(1-x)^2 type cutoff potential.
  Species O : No 'logarithmic' tag. Using default grid for free atom:
  | Default logarithmic grid data [bohr] : 0.1000E-03 0.1000E+03 0.1012E+01
  Species O : On-site basis accuracy parameter (for Gram-Schmidt orthonormalisation) not specified.
  Using default value basis_acc =  0.1000000E-03.
  Species O                   : Using default innermost maximum threshold i_radial=  2 for radial functions.
  Species O                   : Default cutoff onset for free atom density etc. : 0.35000000E+01 AA.
  Species O                   : Basic radial grid will be enhanced according to radial_multiplier =   1, to contain    36 grid points.
 
  Finished reading input file 'control.in'. Consistency checks are next.
 
  MPI_IN_PLACE appears to work with this MPI implementation.
  | Keeping use_mpi_in_place .true. (see manual).
  Target number of points in a grid batch is not set. Defaulting to  100
  Method for grid partitioning is not set. Defaulting to parallel hash+maxmin partitioning.
  Batch size limit is not set. Defaulting to    200
  By default, will store active basis functions for each batch.
  If in need of memory, prune_basis_once .false. can be used to disable this option.
  communication_type for Hartree potential was not specified.
  Defaulting to calc_hartree .
  Pulay mixer: Number of initial linear mixing iterations not set.
  Defaulting to    0 iterations.
  Work space size for distributed Hartree potential not set.
  Defaulting to   0.200000E+03 MB.
  Algorithm-dependent basis array size parameters:
  | n_max_pulay                         :       10
  Presetting      1001 iterations before the initial mixing cycle
  is restarted anyway using the sc_init_iter criterion / keyword.
  Presetting a factor      1.000 between actual scf density residual
  and density convergence criterion sc_accuracy_rho below which sc_init_iter
  takes no effect.
  Geometry relaxation not requested: no relaxation will be performed.
  Handling of forces: Unphysical translation and rotation will be removed from forces.
  No accuracy limit for integral partition fn. given. Defaulting to  0.1000E-14.
  No threshold value for u(r) in integrations given. Defaulting to  0.1000E-05.
  No accuracy for occupation numbers given. Defaulting to  0.1000E-12.
  No threshold value for occupation numbers given. Defaulting to  0.0000E+00.
  No accuracy for fermi level given. Defaulting to  0.1000E-19.
  Maximum # of iterations to find E_F not set. Defaulting to  200.
  Preferred method for the eigenvalue solver ('KS_method') not specified in 'control.in'.
  Defaulting to serial version, 'lapack_fast'.
  Will not use alltoall communication since running on < 1024 CPUs.
  Threshold for basis singularities not set.
  Default threshold for basis singularities:  0.1000E-04
  partition_type (choice of integration weights) for integrals was not specified.
  | Using a version of the partition function of Stratmann and coworkers ('stratmann_smoother').
  | At each grid point, the set of atoms used to build the partition table is smoothly restricted to
  | only those atoms whose free-atom density would be non-zero at that grid point.
  Partitioning for Hartree potential was not defined. Using partition_type for integrals.
  | Adjusted default value of keyword multip_moments_threshold to:       0.10000000E-11
  | This value may affect high angular momentum components of the Hartree potential in periodic systems.
  No q(lm)/r^(l+1) cutoff set for long-range Hartree potential.
  | Using default value of  0.100000E-09 .
  | Verify using the multipole_threshold keyword.
  Defaulting to new monopole extrapolation.
  Density update method: automatic selection selected.
------------------------------------------------------------


------------------------------------------------------------
          Reading geometry description geometry.in.
------------------------------------------------------------
  Input structure read successfully.
  The structure contains       13 atoms,  and a total of         48.000 electrons.

  Input geometry:
  | No unit cell requested.
  | Atomic structure:
  |       Atom                x [A]            y [A]            z [A]
  |    1: Species C             0.00000000        0.00000000        0.00000000
  |    2: Species H             1.09300000        0.00000000        0.00000000
  |    3: Species N            -0.47961000        0.00000000       -1.41207000
  |    4: Species H            -1.07697000        0.81527000       -1.55461000
  |    5: Species H             0.32717000        0.04239000       -2.03129000
  |    6: Species C            -0.49584000        1.26211000        0.72868000
  |    7: Species H            -1.58789000        1.28919000        0.74431000
  |    8: Species H            -0.13407000        1.27425000        1.75947000
  |    9: Species H            -0.13407000        2.16087000        0.22380000
  |   10: Species C            -0.39425000       -1.28861000        0.74398000
  |   11: Species O            -0.10189000       -1.56493000        1.88303000
  |   12: Species O            -1.10210000       -2.13717000        0.06896000
  |   13: Species H            -1.15035000       -1.64679000       -0.76900000
  |

  | The smallest distance between any two atoms is         0.97209957 AA.
  |
  | The first atom of this pair is atom number                     12 .
  | The second atom of this pair is atom number                    13 .

  Number of empty states per atom not set in control.in - providing a guess from actual geometry.
  | Total number of empty states used during s.c.f. cycle:       29
  If you use a very high smearing, use empty_states (per atom!) in control.in to increase this value.

  Structure-dependent array size parameters: 
  | Maximum number of distinct radial functions  :       21
  | Maximum number of basis functions            :      119
  | Number of Kohn-Sham states (occupied + empty):       53
------------------------------------------------------------

------------------------------------------------------------
          Preparing all fixed parts of the calculation.
------------------------------------------------------------
  Determining machine precision:
    2.225073858507201E-308
  Setting up grids for atomic and cluster calculations.

  Creating wave function, potential, and density for free atoms.

  Species: H

  List of occupied orbitals and eigenvalues:
    n    l              occ      energy [Ha]    energy [eV]
    1    0           1.0000        -0.237589        -6.4651


  Species: C

  List of occupied orbitals and eigenvalues:
    n    l              occ      energy [Ha]    energy [eV]
    1    0           2.0000       -10.038835      -273.1706
    2    0           2.0000        -0.502696       -13.6791
    2    1           2.0000        -0.191971        -5.2238


  Species: N

  List of occupied orbitals and eigenvalues:
    n    l              occ      energy [Ha]    energy [eV]
    1    0           2.0000       -14.128000      -384.4424
    2    0           2.0000        -0.681077       -18.5330
    2    1           3.0000        -0.259788        -7.0692


  Species: O

  List of occupied orbitals and eigenvalues:
    n    l              occ      energy [Ha]    energy [eV]
    1    0           2.0000       -18.898188      -514.2459
    2    0           2.0000        -0.878505       -23.9053
    2    1           4.0000        -0.331779        -9.0282

  Creating fixed part of basis set: Ionic, confined, hydrogenic.
 
  H                    hydrogenic:
 
  List of hydrogenic basis orbitals: 
    n    l      effective z      eigenvalue [eV]  inner max. [A]     outer max. [A]     outer radius [A]   
    2    0         2.100000       -14.9728           0.193243           1.317208           4.583499
    2    1         3.500000       -41.6669           0.602369           0.602369           3.723403
 
 
  C                    hydrogenic:
 
  List of hydrogenic basis orbitals: 
    n    l      effective z      eigenvalue [eV]  inner max. [A]     outer max. [A]     outer radius [A]   
    2    1         1.700000        -9.7616           1.230570           1.230570           4.607917
    3    2         6.000000       -54.4224           0.792453           0.792453           3.883070
    2    0         4.900000       -81.6679           0.082559           0.562749           3.078220
 
 
  N                    hydrogenic:
 
  List of hydrogenic basis orbitals: 
    n    l      effective z      eigenvalue [eV]  inner max. [A]     outer max. [A]     outer radius [A]   
    2    1         1.800000       -10.9749           1.177451           1.177451           4.573712
    3    2         6.800000       -69.9026           0.704619           0.704619           3.538137
    3    0         5.800000       -50.8545           0.067388           1.191934           4.250239
 
 
  O                    hydrogenic:
 
  List of hydrogenic basis orbitals: 
    n    l      effective z      eigenvalue [eV]  inner max. [A]     outer max. [A]     outer radius [A]   
    2    1         1.800000       -10.9749           1.164242           1.164242           4.578029
    3    2         7.600000       -87.3180           0.624125           0.624125           3.251020
    3    0         6.400000       -61.9207           0.061167           1.081902           4.001998
 

  Adding cutoff potential to free-atom effective potential.
  Creating atomic-like basis functions for current effective potential.

  Species H                   :

  List of atomic basis orbitals and eigenvalues:
    n    l      energy [Ha]    energy [eV]    outer radius [A]
    1    0        -0.237589        -6.4651       4.527807


  Species C                   :

  List of atomic basis orbitals and eigenvalues:
    n    l      energy [Ha]    energy [eV]    outer radius [A]
    1    0       -10.038835      -273.1706       1.934409
    2    0        -0.502696       -13.6791       4.496620
    2    1        -0.191971        -5.2238       4.551928


  Species N                   :

  List of atomic basis orbitals and eigenvalues:
    n    l      energy [Ha]    energy [eV]    outer radius [A]
    1    0       -14.128000      -384.4424       1.637919
    2    0        -0.681077       -18.5330       4.463241
    2    1        -0.259788        -7.0692       4.518138


  Species O                   :

  List of atomic basis orbitals and eigenvalues:
    n    l      energy [Ha]    energy [eV]    outer radius [A]
    1    0       -18.898188      -514.2459       1.415765
    2    0        -0.878505       -23.9053       4.413171
    2    1        -0.331779        -9.0282       4.522403

  Assembling full basis from fixed parts.
  | Species H :   atomic orbital   1 s accepted.
  | Species H :    hydro orbital   2 s accepted.
  | Species H :    hydro orbital   2 p accepted.
  | Species C :   atomic orbital   1 s accepted.
  | Species C :    hydro orbital   2 s accepted.
  | Species C :   atomic orbital   2 s accepted.
  | Species C :   atomic orbital   2 p accepted.
  | Species C :    hydro orbital   2 p accepted.
  | Species C :    hydro orbital   3 d accepted.
  | Species N :   atomic orbital   1 s accepted.
  | Species N :    hydro orbital   3 s accepted.
  | Species N :   atomic orbital   2 s accepted.
  | Species N :   atomic orbital   2 p accepted.
  | Species N :    hydro orbital   2 p accepted.
  | Species N :    hydro orbital   3 d accepted.
  | Species O :   atomic orbital   1 s accepted.
  | Species O :    hydro orbital   3 s accepted.
  | Species O :   atomic orbital   2 s accepted.
  | Species O :   atomic orbital   2 p accepted.
  | Species O :    hydro orbital   2 p accepted.
  | Species O :    hydro orbital   3 d accepted.
 
  Basis size parameters after reduction:
  | Total number of radial functions:       21
  | Total number of basis functions :      119
 
  Per-task memory consumption for arrays in subroutine allocate_ext:
  |           5.250512MB.
  Testing on-site integration grid accuracy.
  |  Species  Function  <phi|h_atom|phi> (log., in eV)  <phi|h_atom|phi> (rad., in eV)
           1        1                 -6.4663192853                 -6.4651273558
           1        2                 13.7111246313                 13.7170609718
           1        3                 25.2673269279                 25.2674696378
           2        4               -273.1705927641               -273.1705631568
           2        5                -10.7109323383                -10.7107120029
           2        6                 17.4381822266                 17.4352413244
           2        7                 -5.2255326521                 -5.2270484734
           2        8                  8.6835629259                  8.6603288385
           2        9                 27.4952418996                 27.4953360207
           3       10               -384.4424306495               -384.4423701208
           3       11                 12.5842251816                 12.5842222903
           3       12                -15.7264628251                -15.7264433455
           3       13                 -7.0696854293                 -7.0701769954
           3       14                  8.8090390882                  8.7901077751
           3       15                 35.9586762123                 35.9588528632
           4       16               -514.2458688638               -514.2457643834
           4       17                 15.1795651126                 15.1795290741
           4       18                -21.5359799773                -21.5360846186
           4       19                 -9.0283069236                 -9.0284644067
           4       20                  8.3027758564                  8.2834874195
           4       21                 45.8339351984                 45.8338762259

  Preparing densities etc. for the partition functions (integrals / Hartree potential).

  Preparations completed.
  max(cpu_time)          :      0.146 s.
  Wall clock time (cpu1) :      0.147 s.
------------------------------------------------------------

------------------------------------------------------------
          Begin self-consistency loop: Initialization.

          Date     :  20200805, Time     :  184755.311
------------------------------------------------------------

  Initializing index lists of integration centers etc. from given atomic structure:
  | Number of centers in hartree potential         :        13
  | Number of centers in hartree multipole         :        13
  | Number of centers in electron density summation:        13
  | Number of centers in basis integrals           :        13
  | Number of centers in integrals                 :        13
  | Number of centers in hamiltonian               :        13
  Partitioning the integration grid into batches with parallel hashing+maxmin method.
  | Number of batches:      956
  | Maximal batch size:     139
  | Minimal batch size:      66
  | Average batch size:      72.851
  | Standard deviation of batch sizes:      17.492

  Integration load balanced across     1 MPI tasks.
  Work distribution over tasks is as follows:
  Task     0 has      69646 integration points.
  Initializing partition tables, free-atom densities, potentials, etc. across the integration grid (initialize_grid_storage).
  | initialize_grid_storage: Actual outermost partition radius vs. multipole_radius_free
  | (-- VB: in principle, multipole_radius_free should be larger, hence this output)
  | Species        1: Confinement radius =              4.999999999999999 AA, multipole_radius_free =              5.054417573612229 AA.
  | Species        1: outer_partition_radius set to              5.054417573612229 AA .
  | Species        2: Confinement radius =              4.999999999999999 AA, multipole_radius_free =              5.019602836301480 AA.
  | Species        2: outer_partition_radius set to              5.019602836301480 AA .
  | Species        3: Confinement radius =              4.999999999999999 AA, multipole_radius_free =              5.043624274424571 AA.
  | Species        3: outer_partition_radius set to              5.043624274424571 AA .
  | Species        4: Confinement radius =              4.999999999999999 AA, multipole_radius_free =              5.048384829883283 AA.
  | Species        4: outer_partition_radius set to              5.048384829883283 AA .
  | Original list of interatomic distances with          13 x         13 entries is created.
  | Net number of integration points:    69646
  | of which are non-zero points    :    59419
  Renormalizing the initial density to the exact electron count on the 3D integration grid.
  | Initial density: Formal number of electrons (from input files) :      48.0000000000
  | Integrated number of electrons on 3D grid     :      47.9999302456
  | Charge integration error                      :      -0.0000697544
  | Normalization factor for density and gradient :       1.0000014532
  Obtaining max. number of non-zero basis functions in each batch (get_n_compute_maxes).
  | Maximal number of non-zero basis functions:      119 in task     0
  Selecting the method for density update.
  Loop over occupied states selected for charge density update.
  Allocating        0.050 MB for KS_eigenvector
  Integrating Hamiltonian matrix: batch-based integration.
  Time summed over all CPUs for integration: real work        0.501 s, elapsed        0.501 s
  Integrating overlap matrix.
  Time summed over all CPUs for integration: real work        0.212 s, elapsed        0.212 s

  Updating Kohn-Sham eigenvalues and eigenvectors using ELSI and the ELPA eigensolver.
  Overlap matrix is nonsingular
  | Lowest eigenvalue of overlap  :  0.44E-02
  | Highest eigenvalue of overlap :  0.63E+01
  Finished singularity check of overlap matrix
  | Time :     0.002 s
  Finished Cholesky decomposition
  | Time :     0.000 s
  Finished transformation to standard eigenproblem
  | Time :     0.000 s
  Starting LAPACK eigensolver
  Finished solving standard eigenproblem
  | Time :     0.002 s
  Finished back-transformation of eigenvectors
  | Time :     0.000 s

  Obtaining occupation numbers and chemical potential using ELSI.
  | Chemical potential (Fermi level):    -9.89866643eV
  Writing Kohn-Sham eigenvalues.

  State    Occupation    Eigenvalue [Ha]    Eigenvalue [eV]
      1       2.00000         -19.007486         -517.22001
      2       2.00000         -18.977117         -516.39363
      3       2.00000         -14.247812         -387.70269
      4       2.00000         -10.166911         -276.65573
      5       2.00000         -10.142046         -275.97911
      6       2.00000         -10.131882         -275.70253
      7       2.00000          -1.181326          -32.14553
      8       2.00000          -1.101452          -29.97204
      9       2.00000          -0.994197          -27.05347
     10       2.00000          -0.859587          -23.39055
     11       2.00000          -0.756415          -20.58309
     12       2.00000          -0.680480          -18.51680
     13       2.00000          -0.628780          -17.10997
     14       2.00000          -0.616777          -16.78337
     15       2.00000          -0.591025          -16.08261
     16       2.00000          -0.557017          -15.15721
     17       2.00000          -0.550829          -14.98883
     18       2.00000          -0.527558          -14.35559
     19       2.00000          -0.520474          -14.16282
     20       2.00000          -0.494030          -13.44324
     21       2.00000          -0.473133          -12.87459
     22       2.00000          -0.428456          -11.65888
     23       2.00000          -0.423936          -11.53588
     24       2.00000          -0.385337          -10.48555
     25       0.00000          -0.148087           -4.02966
     26       0.00000          -0.063493           -1.72772
     27       0.00000          -0.029106           -0.79203
     28       0.00000          -0.010081           -0.27433
     29       0.00000           0.007127            0.19395
     30       0.00000           0.012723            0.34622
     31       0.00000           0.018756            0.51037
     32       0.00000           0.030076            0.81841
     33       0.00000           0.034179            0.93006
     34       0.00000           0.076870            2.09175
     35       0.00000           0.095074            2.58709
     36       0.00000           0.132158            3.59620
     37       0.00000           0.175160            4.76635
     38       0.00000           0.189382            5.15334
     39       0.00000           0.202373            5.50685
     40       0.00000           0.224917            6.12029
     41       0.00000           0.249555            6.79074
     42       0.00000           0.266627            7.25528
     43       0.00000           0.290962            7.91747
     44       0.00000           0.302675            8.23620
     45       0.00000           0.347084            9.44464
     46       0.00000           0.352497            9.59194
     47       0.00000           0.367876           10.01041
     48       0.00000           0.382000           10.39474
     49       0.00000           0.427285           11.62702
     50       0.00000           0.492191           13.39320
     51       0.00000           0.498667           13.56941
     52       0.00000           0.546747           14.87775
     53       0.00000           0.553135           15.05156

  Highest occupied state (VBM) at    -10.48554751 eV
  | Occupation number:      2.00000000

  Lowest unoccupied state (CBM) at    -4.02965653 eV
  | Occupation number:      0.00000000

  Overall HOMO-LUMO gap:      6.45589098 eV.
  Calculating total energy contributions from superposition of free atom densities.

  Total energy components:
  | Sum of eigenvalues            :        -188.88812598 Ha       -5139.90742349 eV
  | XC energy correction          :         -41.80310789 Ha       -1137.52044209 eV
  | XC potential correction       :          53.73986235 Ha        1462.33605748 eV
  | Free-atom electrostatic energy:        -146.82275541 Ha       -3995.25045087 eV
  | Hartree energy correction     :           0.00000000 Ha           0.00000000 eV
  | vdW energy correction         :           0.00000000 Ha           0.00000000 eV
  | Entropy correction            :           0.00000000 Ha           0.00000000 eV
  | ---------------------------
  | Total energy                  :        -323.77412693 Ha       -8810.34225896 eV
  | Total energy, T -> 0          :        -323.77412693 Ha       -8810.34225896 eV  <-- do not rely on this value for anything but (periodic) metals
  | Electronic free energy        :        -323.77412693 Ha       -8810.34225896 eV

  Derived energy quantities:
  | Kinetic energy                :         320.51252250 Ha        8721.58948677 eV
  | Electrostatic energy          :        -602.48354154 Ha      -16394.41130364 eV
  | Energy correction for multipole
  | error in Hartree potential    :           0.00000000 Ha           0.00000000 eV
  | Sum of eigenvalues per atom                           :        -395.37749411 eV
  | Total energy (T->0) per atom                          :        -677.71863530 eV  <-- do not rely on this value for anything but (periodic) metals
  | Electronic free energy per atom                       :        -677.71863530 eV
  Initialize hartree_potential_storage
  Max. number of atoms included in rho_multipole:           13

  End scf initialization - timings             :  max(cpu_time)    wall_clock(cpu1)
  | Time for scf. initialization               :        1.148 s           1.157 s
  | Boundary condition initialization          :        0.000 s           0.000 s
  | Integration                                :        0.706 s           0.713 s
  | Solution of K.-S. eqns.                    :        0.004 s           0.004 s
  | Grid partitioning                          :        0.110 s           0.111 s
  | Preloading free-atom quantities on grid    :        0.002 s           0.002 s
  | Free-atom superposition energy             :        0.084 s           0.084 s
  | Total energy evaluation                    :        0.000 s           0.000 s

  Partial memory accounting:
  | Current value for overall tracked memory usage on task 0  :           0.165 MB
  | Peak value for overall tracked memory usage on task 0     :           0.678 MB after allocating wave
  | Largest tracked array allocation on task 0 so far         :           0.132 MB  when allocating H_times_psi
  Note:  These values currently only include a subset of arrays which are explicitly tracked.
  The "true" memory usage will be greater.
------------------------------------------------------------

------------------------------------------------------------
          Begin self-consistency iteration #    1

  Date     :  20200805, Time     :  184756.468
------------------------------------------------------------
  Evaluating new KS density.
  Integration grid: deviation in total charge (<rho> - N_e) =  -1.421085E-14
  Pulay mixing of updated and previous charge densities.

  Evaluating partitioned Hartree potential by multipole expansion.
  | Analytical far-field extrapolation by fixed multipoles:
  | Hartree multipole sum: apparent total charge =  -0.167980E-03
  Summing up the Hartree potential.
  Time summed over all CPUs for potential: real work        0.281 s, elapsed        0.281 s
  | RMS charge density error from multipole expansion :   0.591388E-02

  Integrating Hamiltonian matrix: batch-based integration.
  Time summed over all CPUs for integration: real work        0.493 s, elapsed        0.493 s

  Updating Kohn-Sham eigenvalues and eigenvectors using ELSI and the ELPA eigensolver.
  Finished Cholesky decomposition
  | Time :     0.000 s
  Finished transformation to standard eigenproblem
  | Time :     0.000 s
  Starting LAPACK eigensolver
  Finished solving standard eigenproblem
  | Time :     0.001 s
  Finished back-transformation of eigenvectors
  | Time :     0.000 s

  Obtaining occupation numbers and chemical potential using ELSI.
  | Chemical potential (Fermi level):    -4.65208400eV
  Writing Kohn-Sham eigenvalues.

  State    Occupation    Eigenvalue [Ha]    Eigenvalue [eV]
      1       2.00000         -18.899650         -514.28564
      2       2.00000         -18.826461         -512.29406
      3       2.00000         -14.116146         -384.11986
      4       2.00000         -10.108978         -275.07929
      5       2.00000         -10.069358         -274.00119
      6       2.00000         -10.036126         -273.09687
      7       2.00000          -1.126520          -30.65416
      8       2.00000          -1.031339          -28.06415
      9       2.00000          -0.934482          -25.42854
     10       2.00000          -0.798670          -21.73291
     11       2.00000          -0.706214          -19.21707
     12       2.00000          -0.629824          -17.13838
     13       2.00000          -0.581698          -15.82882
     14       2.00000          -0.561412          -15.27680
     15       2.00000          -0.532181          -14.48138
     16       2.00000          -0.499025          -13.57916
     17       2.00000          -0.485841          -13.22041
     18       2.00000          -0.472273          -12.85121
     19       2.00000          -0.460501          -12.53086
     20       2.00000          -0.436811          -11.88624
     21       2.00000          -0.419768          -11.42248
     22       2.00000          -0.359888           -9.79306
     23       2.00000          -0.356012           -9.68758
     24       2.00000          -0.314770           -8.56531
     25       0.00000          -0.106385           -2.89488
     26       0.00000          -0.040702           -1.10756
     27       0.00000           0.009181            0.24982
     28       0.00000           0.015434            0.41999
     29       0.00000           0.041241            1.12221
     30       0.00000           0.045109            1.22747
     31       0.00000           0.051114            1.39089
     32       0.00000           0.062108            1.69004
     33       0.00000           0.070587            1.92076
     34       0.00000           0.115271            3.13668
     35       0.00000           0.132963            3.61810
     36       0.00000           0.163493            4.44888
     37       0.00000           0.206391            5.61618
     38       0.00000           0.215321            5.85917
     39       0.00000           0.230685            6.27726
     40       0.00000           0.257877            7.01719
     41       0.00000           0.282079            7.67575
     42       0.00000           0.298636            8.12631
     43       0.00000           0.324384            8.82694
     44       0.00000           0.343710            9.35281
     45       0.00000           0.381148           10.37157
     46       0.00000           0.395059           10.75010
     47       0.00000           0.405621           11.03751
     48       0.00000           0.422375           11.49341
     49       0.00000           0.462846           12.59467
     50       0.00000           0.523804           14.25343
     51       0.00000           0.527318           14.34906
     52       0.00000           0.576961           15.69991
     53       0.00000           0.590368           16.06473

  Highest occupied state (VBM) at     -8.56531424 eV
  | Occupation number:      2.00000000

  Lowest unoccupied state (CBM) at    -2.89487685 eV
  | Occupation number:      0.00000000

  Overall HOMO-LUMO gap:      5.67043739 eV.

  Total energy components:
  | Sum of eigenvalues            :        -185.52789606 Ha       -5048.47091509 eV
  | XC energy correction          :         -42.12766026 Ha       -1146.35196150 eV
  | XC potential correction       :          54.16194550 Ha        1473.82152423 eV
  | Free-atom electrostatic energy:        -146.82275541 Ha       -3995.25045087 eV
  | Hartree energy correction     :          -3.28433259 Ha         -89.37123701 eV
  | vdW energy correction         :           0.00000000 Ha           0.00000000 eV
  | Entropy correction            :           0.00000000 Ha           0.00000000 eV
  | ---------------------------
  | Total energy                  :        -323.60069883 Ha       -8805.62304024 eV
  | Total energy, T -> 0          :        -323.60069883 Ha       -8805.62304024 eV  <-- do not rely on this value for anything but (periodic) metals
  | Electronic free energy        :        -323.60069883 Ha       -8805.62304024 eV

  Derived energy quantities:
  | Kinetic energy                :         322.27731606 Ha        8769.61196306 eV
  | Electrostatic energy          :        -603.75035463 Ha      -16428.88304179 eV
  | Energy correction for multipole
  | error in Hartree potential    :           0.01177088 Ha           0.32030205 eV
  | Sum of eigenvalues per atom                           :        -388.34391655 eV
  | Total energy (T->0) per atom                          :        -677.35561848 eV  <-- do not rely on this value for anything but (periodic) metals
  | Electronic free energy per atom                       :        -677.35561848 eV

  Self-consistency convergence accuracy:
  | Change of charge density      :  0.5741E+00
  | Change of sum of eigenvalues  :  0.9144E+02 eV
  | Change of total energy        :  0.4719E+01 eV

  End self-consistency iteration #     1       :  max(cpu_time)    wall_clock(cpu1)
  | Time for this iteration                    :        1.185 s           1.185 s
  | Charge density update                      :        0.393 s           0.393 s
  | Density mixing                             :        0.005 s           0.005 s
  | Hartree multipole update                   :        0.009 s           0.009 s
  | Hartree multipole summation                :        0.282 s           0.283 s
  | Integration                                :        0.493 s           0.493 s
  | Solution of K.-S. eqns.                    :        0.002 s           0.002 s
  | Total energy evaluation                    :        0.000 s           0.000 s

  Partial memory accounting:
  | Current value for overall tracked memory usage on task 0  :           0.165 MB
  | Peak value for overall tracked memory usage on task 0     :           0.695 MB after allocating gradient_basis_wave
  | Largest tracked array allocation on task 0 so far         :           0.397 MB  when allocating gradient_basis_wave
  Note:  These values currently only include a subset of arrays which are explicitly tracked.
  The "true" memory usage will be greater.
------------------------------------------------------------

------------------------------------------------------------
          Begin self-consistency iteration #    2

  Date     :  20200805, Time     :  184757.654
------------------------------------------------------------
  Evaluating new KS density.
  Integration grid: deviation in total charge (<rho> - N_e) =   0.000000E+00
  Pulay mixing of updated and previous charge densities.

  Evaluating partitioned Hartree potential by multipole expansion.
  | Analytical far-field extrapolation by fixed multipoles:
  | Hartree multipole sum: apparent total charge =  -0.295182E-03
  Summing up the Hartree potential.
  Time summed over all CPUs for potential: real work        0.281 s, elapsed        0.281 s
  | RMS charge density error from multipole expansion :   0.141521E-01

  Integrating Hamiltonian matrix: batch-based integration.
  Time summed over all CPUs for integration: real work        0.493 s, elapsed        0.493 s

  Updating Kohn-Sham eigenvalues and eigenvectors using ELSI and the ELPA eigensolver.
  Finished Cholesky decomposition
  | Time :     0.000 s
  Finished transformation to standard eigenproblem
  | Time :     0.000 s
  Starting LAPACK eigensolver
  Finished solving standard eigenproblem
  | Time :     0.002 s
  Finished back-transformation of eigenvectors
  | Time :     0.000 s

  Obtaining occupation numbers and chemical potential using ELSI.
  | Chemical potential (Fermi level):    -3.34626681eV
  Highest occupied state (VBM) at     -6.59769334 eV
  | Occupation number:      2.00000000

  Lowest unoccupied state (CBM) at    -1.46339489 eV
  | Occupation number:      0.00000000

  Overall HOMO-LUMO gap:      5.13429845 eV.

  Checking to see if s.c.f. parameters should be adjusted.

  Total energy components:
  | Sum of eigenvalues            :        -181.93840503 Ha       -4950.79589446 eV
  | XC energy correction          :         -42.48695169 Ha       -1156.12877867 eV
  | XC potential correction       :          54.62767523 Ha        1486.49467492 eV
  | Free-atom electrostatic energy:        -146.82275541 Ha       -3995.25045087 eV
  | Hartree energy correction     :          -6.90405799 Ha        -187.86897665 eV
  | vdW energy correction         :           0.00000000 Ha           0.00000000 eV
  | Entropy correction            :           0.00000000 Ha           0.00000000 eV
  | ---------------------------
  | Total energy                  :        -323.52449489 Ha       -8803.54942572 eV
  | Total energy, T -> 0          :        -323.52449489 Ha       -8803.54942572 eV  <-- do not rely on this value for anything but (periodic) metals
  | Electronic free energy        :        -323.52449489 Ha       -8803.54942572 eV

  Derived energy quantities:
  | Kinetic energy                :         323.60212375 Ha        8805.66181435 eV
  | Electrostatic energy          :        -604.63966695 Ha      -16453.08246140 eV
  | Energy correction for multipole
  | error in Hartree potential    :           0.02594511 Ha           0.70600228 eV
  | Sum of eigenvalues per atom                           :        -380.83045342 eV
  | Total energy (T->0) per atom                          :        -677.19610967 eV  <-- do not rely on this value for anything but (periodic) metals
  | Electronic free energy per atom                       :        -677.19610967 eV

  Self-consistency convergence accuracy:
  | Change of charge density      :  0.3585E+00
  | Change of sum of eigenvalues  :  0.9768E+02 eV
  | Change of total energy        :  0.2074E+01 eV

  End self-consistency iteration #     2       :  max(cpu_time)    wall_clock(cpu1)
  | Time for this iteration                    :        1.178 s           1.178 s
  | Charge density update                      :        0.385 s           0.385 s
  | Density mixing                             :        0.007 s           0.007 s
  | Hartree multipole update                   :        0.009 s           0.009 s
  | Hartree multipole summation                :        0.282 s           0.282 s
  | Integration                                :        0.493 s           0.493 s
  | Solution of K.-S. eqns.                    :        0.002 s           0.002 s
  | Total energy evaluation                    :        0.000 s           0.000 s

  Partial memory accounting:
  | Current value for overall tracked memory usage on task 0  :           0.166 MB
  | Peak value for overall tracked memory usage on task 0     :           0.695 MB after allocating gradient_basis_wave
  | Largest tracked array allocation on task 0 so far         :           0.397 MB  when allocating gradient_basis_wave
  Note:  These values currently only include a subset of arrays which are explicitly tracked.
  The "true" memory usage will be greater.
------------------------------------------------------------

------------------------------------------------------------
          Begin self-consistency iteration #    3

  Date     :  20200805, Time     :  184758.833
------------------------------------------------------------
  Evaluating new KS density.
  Integration grid: deviation in total charge (<rho> - N_e) =   3.552714E-14
  Pulay mixing of updated and previous charge densities.

  Evaluating partitioned Hartree potential by multipole expansion.
  | Analytical far-field extrapolation by fixed multipoles:
  | Hartree multipole sum: apparent total charge =  -0.387726E-03
  Summing up the Hartree potential.
  Time summed over all CPUs for potential: real work        0.284 s, elapsed        0.284 s
  | RMS charge density error from multipole expansion :   0.224347E-01

  Integrating Hamiltonian matrix: batch-based integration.
  Time summed over all CPUs for integration: real work        0.496 s, elapsed        0.496 s

  Updating Kohn-Sham eigenvalues and eigenvectors using ELSI and the ELPA eigensolver.
  Finished Cholesky decomposition
  | Time :     0.000 s
  Finished transformation to standard eigenproblem
  | Time :     0.000 s
  Starting LAPACK eigensolver
  Finished solving standard eigenproblem
  | Time :     0.002 s
  Finished back-transformation of eigenvectors
  | Time :     0.000 s

  Obtaining occupation numbers and chemical potential using ELSI.
  | Chemical potential (Fermi level):    -2.63715144eV
  Highest occupied state (VBM) at     -5.93448559 eV
  | Occupation number:      2.00000000

  Lowest unoccupied state (CBM) at    -0.69870420 eV
  | Occupation number:      0.00000000

  Overall HOMO-LUMO gap:      5.23578139 eV.

  Total energy components:
  | Sum of eigenvalues            :        -180.57256598 Ha       -4913.62952303 eV
  | XC energy correction          :         -42.64121676 Ha       -1160.32654475 eV
  | XC potential correction       :          54.82447574 Ha        1491.84988929 eV
  | Free-atom electrostatic energy:        -146.82275541 Ha       -3995.25045087 eV
  | Hartree energy correction     :          -8.30030353 Ha        -225.86275075 eV
  | vdW energy correction         :           0.00000000 Ha           0.00000000 eV
  | Entropy correction            :           0.00000000 Ha           0.00000000 eV
  | ---------------------------
  | Total energy                  :        -323.51236594 Ha       -8803.21938011 eV
  | Total energy, T -> 0          :        -323.51236594 Ha       -8803.21938011 eV  <-- do not rely on this value for anything but (periodic) metals
  | Electronic free energy        :        -323.51236594 Ha       -8803.21938011 eV

  Derived energy quantities:
  | Kinetic energy                :         323.20187972 Ha        8794.77062007 eV
  | Electrostatic energy          :        -604.07302890 Ha      -16437.66345543 eV
  | Energy correction for multipole
  | error in Hartree potential    :           0.03649791 Ha           0.99315873 eV
  | Sum of eigenvalues per atom                           :        -377.97150177 eV
  | Total energy (T->0) per atom                          :        -677.17072155 eV  <-- do not rely on this value for anything but (periodic) metals
  | Electronic free energy per atom                       :        -677.17072155 eV

  Self-consistency convergence accuracy:
  | Change of charge density      :  0.1987E+00
  | Change of sum of eigenvalues  :  0.3717E+02 eV
  | Change of total energy        :  0.3300E+00 eV

  End self-consistency iteration #     3       :  max(cpu_time)    wall_clock(cpu1)
  | Time for this iteration                    :        1.186 s           1.187 s
  | Charge density update                      :        0.386 s           0.387 s
  | Density mixing                             :        0.008 s           0.008 s
  | Hartree multipole update                   :        0.009 s           0.009 s
  | Hartree multipole summation                :        0.284 s           0.284 s
  | Integration                                :        0.496 s           0.497 s
  | Solution of K.-S. eqns.                    :        0.002 s           0.002 s
  | Total energy evaluation                    :        0.000 s           0.000 s

  Partial memory accounting:
  | Current value for overall tracked memory usage on task 0  :           0.166 MB
  | Peak value for overall tracked memory usage on task 0     :           0.695 MB after allocating gradient_basis_wave
  | Largest tracked array allocation on task 0 so far         :           0.397 MB  when allocating gradient_basis_wave
  Note:  These values currently only include a subset of arrays which are explicitly tracked.
  The "true" memory usage will be greater.
------------------------------------------------------------

------------------------------------------------------------
          Begin self-consistency iteration #    4

  Date     :  20200805, Time     :  184800.021
------------------------------------------------------------
  Evaluating new KS density.
  Integration grid: deviation in total charge (<rho> - N_e) =  -1.421085E-14
  Pulay mixing of updated and previous charge densities.

  Evaluating partitioned Hartree potential by multipole expansion.
  | Analytical far-field extrapolation by fixed multipoles:
  | Hartree multipole sum: apparent total charge =  -0.417704E-03
  Summing up the Hartree potential.
  Time summed over all CPUs for potential: real work        0.282 s, elapsed        0.282 s
  | RMS charge density error from multipole expansion :   0.259133E-01

  Integrating Hamiltonian matrix: batch-based integration.
  Time summed over all CPUs for integration: real work        0.495 s, elapsed        0.495 s

  Updating Kohn-Sham eigenvalues and eigenvectors using ELSI and the ELPA eigensolver.
  Finished Cholesky decomposition
  | Time :     0.000 s
  Finished transformation to standard eigenproblem
  | Time :     0.000 s
  Starting LAPACK eigensolver
  Finished solving standard eigenproblem
  | Time :     0.002 s
  Finished back-transformation of eigenvectors
  | Time :     0.000 s

  Obtaining occupation numbers and chemical potential using ELSI.
  | Chemical potential (Fermi level):    -2.54179484eV
  Highest occupied state (VBM) at     -5.64394651 eV
  | Occupation number:      2.00000000

  Lowest unoccupied state (CBM) at    -0.63236643 eV
  | Occupation number:      0.00000000

  Overall HOMO-LUMO gap:      5.01158008 eV.

  Total energy components:
  | Sum of eigenvalues            :        -180.49247883 Ha       -4911.45024090 eV
  | XC energy correction          :         -42.67344148 Ha       -1161.20342402 eV
  | XC potential correction       :          54.86473785 Ha        1492.94547719 eV
  | Free-atom electrostatic energy:        -146.82275541 Ha       -3995.25045087 eV
  | Hartree energy correction     :          -8.38749193 Ha        -228.23526793 eV
  | vdW energy correction         :           0.00000000 Ha           0.00000000 eV
  | Entropy correction            :           0.00000000 Ha           0.00000000 eV
  | ---------------------------
  | Total energy                  :        -323.51142980 Ha       -8803.19390653 eV
  | Total energy, T -> 0          :        -323.51142980 Ha       -8803.19390653 eV  <-- do not rely on this value for anything but (periodic) metals
  | Electronic free energy        :        -323.51142980 Ha       -8803.19390653 eV

  Derived energy quantities:
  | Kinetic energy                :         322.78395836 Ha        8783.39840131 eV
  | Electrostatic energy          :        -603.62194668 Ha      -16425.38888382 eV
  | Energy correction for multipole
  | error in Hartree potential    :           0.04026484 Ha           1.09566217 eV
  | Sum of eigenvalues per atom                           :        -377.80386468 eV
  | Total energy (T->0) per atom                          :        -677.16876204 eV  <-- do not rely on this value for anything but (periodic) metals
  | Electronic free energy per atom                       :        -677.16876204 eV

  Self-consistency convergence accuracy:
  | Change of charge density      :  0.6381E-01
  | Change of sum of eigenvalues  :  0.2179E+01 eV
  | Change of total energy        :  0.2547E-01 eV

  End self-consistency iteration #     4       :  max(cpu_time)    wall_clock(cpu1)
  | Time for this iteration                    :        1.185 s           1.185 s
  | Charge density update                      :        0.386 s           0.386 s
  | Density mixing                             :        0.009 s           0.009 s
  | Hartree multipole update                   :        0.009 s           0.009 s
  | Hartree multipole summation                :        0.283 s           0.283 s
  | Integration                                :        0.495 s           0.496 s
  | Solution of K.-S. eqns.                    :        0.002 s           0.002 s
  | Total energy evaluation                    :        0.000 s           0.000 s

  Partial memory accounting:
  | Current value for overall tracked memory usage on task 0  :           0.166 MB
  | Peak value for overall tracked memory usage on task 0     :           0.696 MB after allocating gradient_basis_wave
  | Largest tracked array allocation on task 0 so far         :           0.397 MB  when allocating gradient_basis_wave
  Note:  These values currently only include a subset of arrays which are explicitly tracked.
  The "true" memory usage will be greater.
------------------------------------------------------------

------------------------------------------------------------
          Begin self-consistency iteration #    5

  Date     :  20200805, Time     :  184801.207
------------------------------------------------------------
  Evaluating new KS density.
  Integration grid: deviation in total charge (<rho> - N_e) =   2.842171E-14
  Pulay mixing of updated and previous charge densities.

  Evaluating partitioned Hartree potential by multipole expansion.
  | Analytical far-field extrapolation by fixed multipoles:
  | Hartree multipole sum: apparent total charge =  -0.413558E-03
  Summing up the Hartree potential.
  Time summed over all CPUs for potential: real work        0.282 s, elapsed        0.282 s
  | RMS charge density error from multipole expansion :   0.256539E-01

  Integrating Hamiltonian matrix: batch-based integration.
  Time summed over all CPUs for integration: real work        0.495 s, elapsed        0.495 s

  Updating Kohn-Sham eigenvalues and eigenvectors using ELSI and the ELPA eigensolver.
  Finished Cholesky decomposition
  | Time :     0.000 s
  Finished transformation to standard eigenproblem
  | Time :     0.000 s
  Starting LAPACK eigensolver
  Finished solving standard eigenproblem
  | Time :     0.002 s
  Finished back-transformation of eigenvectors
  | Time :     0.000 s

  Obtaining occupation numbers and chemical potential using ELSI.
  | Chemical potential (Fermi level):    -2.58341761eV
  Highest occupied state (VBM) at     -5.76287146 eV
  | Occupation number:      2.00000000

  Lowest unoccupied state (CBM) at    -0.68879014 eV
  | Occupation number:      0.00000000

  Overall HOMO-LUMO gap:      5.07408132 eV.

  Total energy components:
  | Sum of eigenvalues            :        -180.61641281 Ha       -4914.82265588 eV
  | XC energy correction          :         -42.65695236 Ha       -1160.75473230 eV
  | XC potential correction       :          54.84338513 Ha        1492.36443995 eV
  | Free-atom electrostatic energy:        -146.82275541 Ha       -3995.25045087 eV
  | Hartree energy correction     :          -8.25839752 Ha        -224.72243040 eV
  | vdW energy correction         :           0.00000000 Ha           0.00000000 eV
  | Entropy correction            :           0.00000000 Ha           0.00000000 eV
  | ---------------------------
  | Total energy                  :        -323.51113298 Ha       -8803.18582949 eV
  | Total energy, T -> 0          :        -323.51113298 Ha       -8803.18582949 eV  <-- do not rely on this value for anything but (periodic) metals
  | Electronic free energy        :        -323.51113298 Ha       -8803.18582949 eV

  Derived energy quantities:
  | Kinetic energy                :         322.72258189 Ha        8781.72826264 eV
  | Electrostatic energy          :        -603.57676251 Ha      -16424.15935984 eV
  | Energy correction for multipole
  | error in Hartree potential    :           0.03971740 Ha           1.08076545 eV
  | Sum of eigenvalues per atom                           :        -378.06328122 eV
  | Total energy (T->0) per atom                          :        -677.16814073 eV  <-- do not rely on this value for anything but (periodic) metals
  | Electronic free energy per atom                       :        -677.16814073 eV

  Self-consistency convergence accuracy:
  | Change of charge density      :  0.2260E-01
  | Change of sum of eigenvalues  : -0.3372E+01 eV
  | Change of total energy        :  0.8077E-02 eV

  End self-consistency iteration #     5       :  max(cpu_time)    wall_clock(cpu1)
  | Time for this iteration                    :        1.186 s           1.186 s
  | Charge density update                      :        0.386 s           0.386 s
  | Density mixing                             :        0.011 s           0.011 s
  | Hartree multipole update                   :        0.009 s           0.008 s
  | Hartree multipole summation                :        0.283 s           0.284 s
  | Integration                                :        0.495 s           0.495 s
  | Solution of K.-S. eqns.                    :        0.002 s           0.002 s
  | Total energy evaluation                    :        0.000 s           0.000 s

  Partial memory accounting:
  | Current value for overall tracked memory usage on task 0  :           0.166 MB
  | Peak value for overall tracked memory usage on task 0     :           0.696 MB after allocating gradient_basis_wave
  | Largest tracked array allocation on task 0 so far         :           0.397 MB  when allocating gradient_basis_wave
  Note:  These values currently only include a subset of arrays which are explicitly tracked.
  The "true" memory usage will be greater.
------------------------------------------------------------

------------------------------------------------------------
          Begin self-consistency iteration #    6

  Date     :  20200805, Time     :  184802.394
------------------------------------------------------------
  Evaluating new KS density.
  Integration grid: deviation in total charge (<rho> - N_e) =   6.394885E-14
  Pulay mixing of updated and previous charge densities.

  Evaluating partitioned Hartree potential by multipole expansion.
  | Analytical far-field extrapolation by fixed multipoles:
  | Hartree multipole sum: apparent total charge =  -0.414750E-03
  Summing up the Hartree potential.
  Time summed over all CPUs for potential: real work        0.283 s, elapsed        0.283 s
  | RMS charge density error from multipole expansion :   0.259014E-01

  Integrating Hamiltonian matrix: batch-based integration.
  Time summed over all CPUs for integration: real work        0.496 s, elapsed        0.496 s

  Updating Kohn-Sham eigenvalues and eigenvectors using ELSI and the ELPA eigensolver.
  Finished Cholesky decomposition
  | Time :     0.000 s
  Finished transformation to standard eigenproblem
  | Time :     0.000 s
  Starting LAPACK eigensolver
  Finished solving standard eigenproblem
  | Time :     0.002 s
  Finished back-transformation of eigenvectors
  | Time :     0.000 s

  Obtaining occupation numbers and chemical potential using ELSI.
  | Chemical potential (Fermi level):    -2.60645316eV
  Highest occupied state (VBM) at     -5.80553457 eV
  | Occupation number:      2.00000000

  Lowest unoccupied state (CBM) at    -0.73072788 eV
  | Occupation number:      0.00000000

  Overall HOMO-LUMO gap:      5.07480668 eV.

  Total energy components:
  | Sum of eigenvalues            :        -180.68551808 Ha       -4916.70310617 eV
  | XC energy correction          :         -42.64755272 Ha       -1160.49895495 eV
  | XC potential correction       :          54.83119046 Ha        1492.03260613 eV
  | Free-atom electrostatic energy:        -146.82275541 Ha       -3995.25045087 eV
  | Hartree energy correction     :          -8.18641245 Ha        -222.76361691 eV
  | vdW energy correction         :           0.00000000 Ha           0.00000000 eV
  | Entropy correction            :           0.00000000 Ha           0.00000000 eV
  | ---------------------------
  | Total energy                  :        -323.51104821 Ha       -8803.18352276 eV
  | Total energy, T -> 0          :        -323.51104821 Ha       -8803.18352276 eV  <-- do not rely on this value for anything but (periodic) metals
  | Electronic free energy        :        -323.51104821 Ha       -8803.18352276 eV

  Derived energy quantities:
  | Kinetic energy                :         322.62178926 Ha        8778.98555577 eV
  | Electrostatic energy          :        -603.48528476 Ha      -16421.67012358 eV
  | Energy correction for multipole
  | error in Hartree potential    :           0.03966724 Ha           1.07940042 eV
  | Sum of eigenvalues per atom                           :        -378.20793124 eV
  | Total energy (T->0) per atom                          :        -677.16796329 eV  <-- do not rely on this value for anything but (periodic) metals
  | Electronic free energy per atom                       :        -677.16796329 eV

  Self-consistency convergence accuracy:
  | Change of charge density      :  0.1116E-01
  | Change of sum of eigenvalues  : -0.1880E+01 eV
  | Change of total energy        :  0.2307E-02 eV

  End self-consistency iteration #     6       :  max(cpu_time)    wall_clock(cpu1)
  | Time for this iteration                    :        1.188 s           1.190 s
  | Charge density update                      :        0.386 s           0.387 s
  | Density mixing                             :        0.012 s           0.012 s
  | Hartree multipole update                   :        0.009 s           0.009 s
  | Hartree multipole summation                :        0.283 s           0.283 s
  | Integration                                :        0.496 s           0.496 s
  | Solution of K.-S. eqns.                    :        0.002 s           0.002 s
  | Total energy evaluation                    :        0.000 s           0.001 s

  Partial memory accounting:
  | Current value for overall tracked memory usage on task 0  :           0.166 MB
  | Peak value for overall tracked memory usage on task 0     :           0.696 MB after allocating gradient_basis_wave
  | Largest tracked array allocation on task 0 so far         :           0.397 MB  when allocating gradient_basis_wave
  Note:  These values currently only include a subset of arrays which are explicitly tracked.
  The "true" memory usage will be greater.
------------------------------------------------------------

------------------------------------------------------------
          Begin self-consistency iteration #    7

  Date     :  20200805, Time     :  184803.584
------------------------------------------------------------
  Evaluating new KS density.
  Integration grid: deviation in total charge (<rho> - N_e) =  -1.421085E-14
  Pulay mixing of updated and previous charge densities.

  Evaluating partitioned Hartree potential by multipole expansion.
  | Analytical far-field extrapolation by fixed multipoles:
  | Hartree multipole sum: apparent total charge =  -0.416538E-03
  Summing up the Hartree potential.
  Time summed over all CPUs for potential: real work        0.285 s, elapsed        0.285 s
  | RMS charge density error from multipole expansion :   0.260671E-01

  Integrating Hamiltonian matrix: batch-based integration.
  Time summed over all CPUs for integration: real work        0.495 s, elapsed        0.495 s

  Updating Kohn-Sham eigenvalues and eigenvectors using ELSI and the ELPA eigensolver.
  Finished Cholesky decomposition
  | Time :     0.000 s
  Finished transformation to standard eigenproblem
  | Time :     0.000 s
  Starting LAPACK eigensolver
  Finished solving standard eigenproblem
  | Time :     0.001 s
  Finished back-transformation of eigenvectors
  | Time :     0.000 s

[...]
  |   Hirshfeld dipole moment :      0.06571022
  |   Hirshfeld second moments:     -0.00535204      -0.02456265      -0.01498120
  |                                 -0.02456265      -0.03056967       0.00563169
  |                                 -0.01498120       0.00563169      -0.02617049
  ----------------------------------------------------------------------
  | Atom    12: O
  |   Hirshfeld charge        :     -0.15433936
  |   Free atom volume        :     23.61338643
  |   Hirshfeld volume        :     21.30227238
  |   Hirshfeld dipole vector :      0.01601125       0.03841737      -0.01098889
  |   Hirshfeld dipole moment :      0.04304661
  |   Hirshfeld second moments:      0.05100855      -0.01124086       0.01227228
  |                                 -0.01124086       0.02340059       0.01073676
  |                                  0.01227228       0.01073676       0.07046661
  ----------------------------------------------------------------------
  | Atom    13: H
  |   Hirshfeld charge        :      0.11307912
  |   Free atom volume        :      9.95071624
  |   Hirshfeld volume        :      7.27655893
  |   Hirshfeld dipole vector :     -0.02179923       0.00097477      -0.05816713
  |   Hirshfeld dipole moment :      0.06212545
  |   Hirshfeld second moments:      0.10142645      -0.00949778       0.00604488
  |                                 -0.00949778       0.06276530       0.03450679
  |                                  0.00604488       0.03450679       0.06868344
  ----------------------------------------------------------------------


  Total energy components:
  | Sum of eigenvalues            :        -180.67099415 Ha       -4916.30788968 eV
  | XC energy correction          :         -42.64616876 Ha       -1160.46129564 eV
  | XC potential correction       :          54.82947348 Ha        1491.98588488 eV
  | Free-atom electrostatic energy:        -146.82275541 Ha       -3995.25045087 eV
  | Hartree energy correction     :          -8.20058551 Ha        -223.14928546 eV
  | vdW energy correction         :          -0.00345737 Ha          -0.09407974 eV
  | Entropy correction            :           0.00000000 Ha           0.00000000 eV
  | ---------------------------
  | Total energy                  :        -323.51448771 Ha       -8803.27711650 eV
  | Total energy, T -> 0          :        -323.51448771 Ha       -8803.27711650 eV  <-- do not rely on this value for anything but (periodic) metals
  | Electronic free energy        :        -323.51448771 Ha       -8803.27711650 eV

  Derived energy quantities:
  | Kinetic energy                :         322.58542296 Ha        8777.99597830 eV
  | Electrostatic energy          :        -603.45028455 Ha      -16420.71771942 eV
  | Energy correction for multipole
  | error in Hartree potential    :           0.03971314 Ha           1.08064961 eV
  | Sum of eigenvalues per atom                           :        -378.17752998 eV
  | Total energy (T->0) per atom                          :        -677.17516281 eV  <-- do not rely on this value for anything but (periodic) metals
  | Electronic free energy per atom                       :        -677.17516281 eV

  atomic forces [eV/Ang]:
  -----------------------
  atom #    1
   Hellmann-Feynman              :  0.852700E+00  0.138793E+00  0.176014E+01
   Ionic forces                  :  0.000000E+00  0.000000E+00  0.000000E+00
   Multipole                     :  0.590063E-01  0.409509E+00 -0.287080E+00
   Pulay + GGA                   : -0.968165E+00  0.171232E+00 -0.156766E+01
   Van der Waals                 :  0.200890E-02  0.706789E-03 -0.108430E-02
   ----------------------------------------------------------------
   Total forces(   1)            : -0.544497E-01  0.720241E+00 -0.956818E-01
  atom #    2
   Hellmann-Feynman              :  0.241895E+00 -0.125904E-01  0.507375E-02
   Ionic forces                  :  0.000000E+00  0.000000E+00  0.000000E+00
   Multipole                     :  0.182758E+00  0.374068E-01  0.163446E-01
   Pulay + GGA                   : -0.132913E+00  0.588597E-02  0.595051E-01
   Van der Waals                 :  0.466796E-02 -0.425049E-02 -0.638724E-02
   ----------------------------------------------------------------
   Total forces(   2)            :  0.296408E+00  0.264519E-01  0.745361E-01
  atom #    3
   Hellmann-Feynman              : -0.524997E+01 -0.932274E+01  0.651973E-01
   Ionic forces                  :  0.000000E+00  0.000000E+00  0.000000E+00
   Multipole                     : -0.142136E+00  0.142325E+00 -0.857323E+00
   Pulay + GGA                   :  0.540991E+01  0.863497E+01  0.145411E+01
   Van der Waals                 :  0.358046E-02 -0.522162E-02 -0.909774E-02
   ----------------------------------------------------------------
   Total forces(   3)            :  0.213808E-01 -0.550661E+00  0.652889E+00
  atom #    4
   Hellmann-Feynman              :  0.706681E-01  0.120189E+00 -0.215970E+00
   Ionic forces                  :  0.000000E+00  0.000000E+00  0.000000E+00
   Multipole                     : -0.823103E-01  0.593804E-01 -0.869636E-01
   Pulay + GGA                   :  0.830777E-01 -0.219253E+00  0.421753E-01
   Van der Waals                 : -0.306336E-03 -0.345953E-02 -0.704073E-02
   ----------------------------------------------------------------
   Total forces(   4)            :  0.711292E-01 -0.431429E-01 -0.267798E+00
  atom #    5
   Hellmann-Feynman              : -0.774753E-03  0.181330E+00 -0.279484E+00
   Ionic forces                  :  0.000000E+00  0.000000E+00  0.000000E+00
   Multipole                     :  0.401912E-01 -0.700521E-02 -0.128426E+00
   Pulay + GGA                   : -0.187851E+00 -0.741137E-01  0.138208E+00
   Van der Waals                 : -0.103619E-02  0.317610E-02  0.405651E-02
   ----------------------------------------------------------------
   Total forces(   5)            : -0.149471E+00  0.103387E+00 -0.265646E+00
  atom #    6
   Hellmann-Feynman              :  0.103654E+00 -0.414155E+00  0.207894E+00
   Ionic forces                  :  0.000000E+00  0.000000E+00  0.000000E+00
   Multipole                     : -0.615813E-01  0.589041E+00  0.256664E+00
   Pulay + GGA                   :  0.218789E+00 -0.607670E+00 -0.332743E+00
   Van der Waals                 : -0.256567E-02  0.414383E-02 -0.376503E-02
   ----------------------------------------------------------------
   Total forces(   6)            :  0.258296E+00 -0.428640E+00  0.128050E+00
  atom #    7
   Hellmann-Feynman              : -0.251018E+00 -0.654360E-01 -0.337250E-01
   Ionic forces                  :  0.000000E+00  0.000000E+00  0.000000E+00
   Multipole                     : -0.119601E+00  0.490972E-01  0.260420E-01
   Pulay + GGA                   :  0.110191E+00  0.392826E-02  0.442985E-01
   Van der Waals                 : -0.275750E-02  0.221710E-02  0.829810E-02
   ----------------------------------------------------------------
   Total forces(   7)            : -0.263186E+00 -0.101934E-01  0.449136E-01
  atom #    8
   Hellmann-Feynman              :  0.141442E-01 -0.232834E-01  0.170093E+00
   Ionic forces                  :  0.000000E+00  0.000000E+00  0.000000E+00
   Multipole                     :  0.176771E-01  0.648348E-01  0.120154E+00
   Pulay + GGA                   : -0.535202E-01 -0.562816E-01 -0.119944E+00
   Van der Waals                 : -0.299761E-02  0.113830E-01  0.578952E-03
   ----------------------------------------------------------------
   Total forces(   8)            : -0.246965E-01 -0.334710E-02  0.170882E+00
  atom #    9
   Hellmann-Feynman              :  0.127361E+00  0.687550E-01 -0.169313E+00
   Ionic forces                  :  0.000000E+00  0.000000E+00  0.000000E+00
   Multipole                     :  0.162302E-01  0.127216E+00 -0.111132E-01
   Pulay + GGA                   : -0.274006E-01 -0.696353E-01  0.665469E-01
   Van der Waals                 :  0.257110E-03  0.594596E-02  0.712939E-02
   ----------------------------------------------------------------
   Total forces(   9)            :  0.116448E+00  0.132282E+00 -0.106750E+00
  atom #   10
   Hellmann-Feynman              :  0.180636E+01  0.296489E+01  0.150673E+01
   Ionic forces                  :  0.000000E+00  0.000000E+00  0.000000E+00
   Multipole                     :  0.415140E-01 -0.825696E-01  0.239564E+00
   Pulay + GGA                   : -0.122623E+01 -0.242632E+01 -0.126457E+00
   Van der Waals                 :  0.263755E-02 -0.108488E-01 -0.318322E-02
   ----------------------------------------------------------------
   Total forces(  10)            :  0.624287E+00  0.445152E+00  0.161666E+01
  atom #   11
   Hellmann-Feynman              :  0.420330E+01 -0.231254E+01  0.143519E+02
   Ionic forces                  :  0.000000E+00  0.000000E+00  0.000000E+00
   Multipole                     :  0.148278E+00 -0.613410E+00  0.962697E+00
   Pulay + GGA                   : -0.347006E+01  0.365740E+01 -0.140767E+02
   Van der Waals                 : -0.106924E-02 -0.121865E-01  0.803259E-02
   ----------------------------------------------------------------
   Total forces(  11)            :  0.880450E+00  0.719269E+00  0.124592E+01
  atom #   12
   Hellmann-Feynman              : -0.617657E+01 -0.125616E+02  0.136275E+01
   Ionic forces                  :  0.000000E+00  0.000000E+00  0.000000E+00
   Multipole                     : -0.807965E+00 -0.146248E+01 -0.106803E-01
   Pulay + GGA                   :  0.584582E+01  0.128877E+02 -0.281793E+01
   Van der Waals                 :  0.166922E-02  0.103978E-01  0.875896E-03
   ----------------------------------------------------------------
   Total forces(  12)            : -0.113705E+01 -0.112593E+01 -0.146499E+01
  atom #   13
   Hellmann-Feynman              : -0.683731E+00  0.128308E+00 -0.202044E+01
   Ionic forces                  :  0.000000E+00  0.000000E+00  0.000000E+00
   Multipole                     :  0.778713E-02  0.721974E-01 -0.758640E-01
   Pulay + GGA                   :  0.402928E-01 -0.180441E+00  0.353928E+00
   Van der Waals                 : -0.408865E-02 -0.200373E-02  0.158683E-02
   ----------------------------------------------------------------
   Total forces(  13)            : -0.639740E+00  0.180608E-01 -0.174079E+01

  Timings for VdW correction (Tkatchenko-Scheffler 2009 or later):
  | CPU time:        0.090 s, Wall clock time:        0.091 s.
  Removing unitary transformations (pure translations, rotations) from forces on atoms.
  Atomic forces before filtering:
  | Net force on center of mass :  -0.192023E-03  0.293465E-02 -0.780575E-02 eV/A
  | Net torque on center of mass:   0.935635E-02 -0.233948E-02 -0.255370E-02 eV
  Atomic forces after filtering:
  | Net force on center of mass :  -0.356812E-15  0.317786E-15 -0.713624E-15 eV/A
  | Net torque on center of mass:   0.134532E-14  0.377634E-15  0.377634E-15 eV

  Energy and forces in a compact form:
  | Total energy uncorrected      :         -0.880327711650006E+04 eV
  | Total energy corrected        :         -0.880327711650006E+04 eV  <-- do not rely on this value for anything but (periodic) metals
  | Electronic free energy        :         -0.880327711650006E+04 eV
  Total atomic forces (unitary forces cleaned) [eV/Ang]:
  |   1         -0.544362363951146E-01          0.720045178743531E+00         -0.951142672275147E-01
  |   2          0.296421574049806E+00          0.263548183765547E-01          0.750041113907168E-01
  |   3          0.212657521574196E-01         -0.551234626332600E+00          0.653500530635084E+00
  |   4          0.709272145101506E-01         -0.438043687567278E-01         -0.267325603900544E+00
  |   5         -0.149646418422657E+00          0.102740635738452E+00         -0.265117959780175E+00
  |   6          0.258261514988974E+00         -0.428709277423111E+00          0.128363907687314E+00
  |   7         -0.263221733927813E+00         -0.103576311934655E-01          0.453209293228645E-01
  |   8         -0.246383311047343E-01         -0.313950055236834E-02          0.171159994052244E+00
  |   9          0.116286078283406E+00          0.132126747415857E+00         -0.106681047601715E+00
  |  10          0.624485435879815E+00          0.445096284980449E+00          0.161756420321898E+01
  |  11          0.880777078767607E+00          0.719509195390457E+00          0.124686466670003E+01
  |  12         -0.113683523958850E+01         -0.112620588737965E+01         -0.146381323391674E+01
  |  13         -0.639646689198361E+00          0.175784309926249E-01         -0.173972623058055E+01

  ------------------------------------ 
  Start decomposition of the XC Energy 
  ------------------------------------ 
  X and C from original XC functional choice 
  Hartree-Fock Energy :          0.000000000 Ha              0.000000000 eV
  X Energy            :        -41.042954841 Ha          -1116.835625182 eV
  C Energy            :         -1.603213922 Ha            -43.625670456 eV
  Total XC Energy     :        -42.646168762 Ha          -1160.461295637 eV
  ------------------------------------ 
  LDA X and C from self-consistent density 
  X Energy LDA        :        -37.265425774 Ha          -1014.043829294 eV
  C Energy LDA        :         -3.139422360 Ha            -85.428028955 eV
  ------------------------------------ 
  End decomposition of the XC Energy 
  ------------------------------------ 

------------------------------------------------------------

------------------------------------------------------------------------------
  Final output of selected total energy values:

  The following output summarizes some interesting total energy values
  at the end of a run (AFTER all relaxation, molecular dynamics, etc.).

  | Total energy of the DFT / Hartree-Fock s.c.f. calculation      :          -8803.277116500 eV
  | Final zero-broadening corrected energy (caution - metals only) :          -8803.277116500 eV
  | For reference only, the value of 1 Hartree used in FHI-aims is :             27.211384500 eV

  Before relying on these values, please be sure to understand exactly which
  total energy value is referred to by a given number. Different objects may
  all carry the same name 'total energy'. Definitions:

  Total energy of the DFT / Hartree-Fock s.c.f. calculation:
  | Note that this energy does not include ANY quantities calculated after the
  | s.c.f. cycle, in particular not ANY RPA, MP2, etc. many-body perturbation terms.

  Final zero-broadening corrected energy:
  | For metallic systems only, a broadening of the occupation numbers at the Fermi
  | level can be extrapolated back to zero broadening by an electron-gas inspired
  | formula. For all systems that are not real metals, this value can be
  | meaningless and should be avoided.

------------------------------------------------------------------------------
  Methods described in the following list of references were used in this FHI-aims run.
  If you publish the results, please make sure to cite these reference if they apply.
  FHI-aims is an academic code, and for our developers (often, Ph.D. students
  and postdocs), scientific credit in the community is essential.
  Thank you for helping us!

  For any use of FHI-aims, please cite:

    Volker Blum, Ralf Gehrke, Felix Hanke, Paula Havu, Ville Havu,
    Xinguo Ren, Karsten Reuter, and Matthias Scheffler
    'Ab initio molecular simulations with numeric atom-centered orbitals'
    Computer Physics Communications 180, 2175-2196 (2009)
    http://dx.doi.org/10.1016/j.cpc.2009.06.022


  The scalable eigensolver library ELPA was used in your run.
  ELPA is essential especially for large systems on hundreds or thousands of CPUs.
  For ELPA, please cite:

    Andreas Marek, Volker Blum, Rainer Johanni, Ville Havu, Bruno Lang,
    Thomas Auckenthaler, Alexander Heinecke, Hans-Joachim Bungartz, and Hermann Lederer,
    'The ELPA Library - Scalable Parallel Eigenvalue Solutions
    for Electronic Structure Theory and Computational Science'
    The Journal of Physics: Condensed Matter 26, 213201 (2014).
    http://dx.doi.org/10.1088/0953-8984/26/21/213201


  The ELSI infrastructure was used in your run to solve the Kohn-Sham electronic structure.
  Please check out http://elsi-interchange.org to learn more.
  If scalability is important for your project, please acknowledge ELSI by citing:

    V. W-z. Yu, F. Corsetti, A. Garcia, W. P. Huhn, M. Jacquelin, W. Jia,
    B. Lange, L. Lin, J. Lu, W. Mi, A. Seifitokaldani, A. Vazquez-Mayagoitia,
    C. Yang, H. Yang, and V. Blum
    'ELSI: A unified software interface for Kohn-Sham electronic structure solvers'
    Computer Physics Communications 222, 267-285 (2018).
    http://dx.doi.org/10.1016/j.cpc.2017.09.007


  For the real-space grid partitioning and parallelization used in this calculation, please cite:

    Ville Havu, Volker Blum, Paula Havu, and Matthias Scheffler,
    'Efficient O(N) integration for all-electron electronic structure calculation'
    'using numerically tabulated basis functions'
    Journal of Computational Physics 228, 8367-8379 (2009).
    http://dx.doi.org/10.1016/j.jcp.2009.08.008

  Of course, there are many other important community references, e.g., those cited in the
  above references. Our list is limited to references that describe implementations in the
  FHI-aims code. The reason is purely practical (length of this list) - please credit others as well.

------------------------------------------------------------
          Leaving FHI-aims.
          Date     :  20200805, Time     :  184817.855

          Computational steps:
          | Number of self-consistency cycles          :           16
          | Number of SCF (re)initializations          :            1

          Detailed time accounting                     :  max(cpu_time)    wall_clock(cpu1)
          | Total time                                 :       22.647 s          22.704 s
          | Preparation time                           :        0.146 s           0.147 s
          | Boundary condition initalization           :        0.000 s           0.000 s
          | Grid partitioning                          :        0.110 s           0.111 s
          | Preloading free-atom quantities on grid    :        0.002 s           0.002 s
          | Free-atom superposition energy             :        0.084 s           0.084 s
          | Total time for integrations                :        8.621 s           8.632 s
          | Total time for solution of K.-S. equations :        0.037 s           0.038 s
          | Total time for density & force components  :        7.120 s           7.147 s
          | Total time for mixing                      :        0.212 s           0.212 s
          | Total time for Hartree multipole update    :        0.139 s           0.143 s
          | Total time for Hartree multipole sum       :        5.777 s           5.780 s
          | Total time for total energy evaluation     :        0.003 s           0.003 s
          | Total time for vdW correction              :        0.090 s           0.091 s

          Partial memory accounting:
          | Residual value for overall tracked memory usage across tasks :           0.000 MB (should be 0.000 MB)
          | Peak values for overall tracked memory usage (after allocating hessian_basis_wave):
          |   Minimum:        1.622 MB (on task 1)
          |   Maximum:        1.622 MB (on task 1)
          |   Average:        1.622 MB
          | Largest tracked array allocation (hessian_basis_wave):
          |   Minimum:        0.794 MB (on task 1)
          |   Maximum:        0.794 MB (on task 1)
          |   Average:        0.794 MB
          Note:  These values currently only include a subset of arrays which are explicitly tracked.
          The "true" memory usage will be greater.

          Have a nice day.
------------------------------------------------------------
