  MPI-parallelism will be employed.
------------------------------------------------------------
          Invoking FHI-aims ...
          Version 171221_1
          Compiled on 2019/09/09 at 14:39:39 on host puhti-login2.bullx.

          When using FHI-aims, please cite the following reference:

          Volker Blum, Ralf Gehrke, Felix Hanke, Paula Havu,
          Ville Havu, Xinguo Ren, Karsten Reuter, and Matthias Scheffler,
          'Ab Initio Molecular Simulations with Numeric Atom-Centered Orbitals',
          Computer Physics Communications 180, 2175-2196 (2009)

          For any questions about FHI-aims, please visit the aimsclub website
          with its forums and wiki. Contributions to both the forums and the
          wiki are warmly encouraged - they are for you, and everyone is welcome there.

------------------------------------------------------------



  Date     :  20200710, Time     :  151332.677
  Time zero on CPU 1             :   0.118340000000000E-01  s.
  Internal wall clock time zero  :           363626012.677  s.

  FHI-aims created a unique identifier for this run for later identification
  aims_uuid : 6CEFF04E-69DA-485A-A62F-EED27F7B2213

  Using        1 parallel tasks.
  Task        0 on host r18c45.bullx reporting.

  Performing system and environment tests:
  | Environment variable OMP_NUM_THREADS correctly set to 1.
  | Stacksize not measured: no C compiler
  | Checking for scalapack...
  | Testing pdtran()...
  | All pdtran() tests passed.

  Obtaining array dimensions for all initial allocations:
  
  -----------------------------------------------------------------------
  Parsing control.in (first pass over file, find array dimensions only).
  The contents of control.in will be repeated verbatim below
  unless switched off by setting 'verbatim_writeout .false.' .
  in the first line of control.in .
  -----------------------------------------------------------------------
  
  #########################################################################################
  #
  #  Volker Blum, FHI 2009 : Test run input file control.in for simple H2O
  #
  #########################################################################################
  #
  #  Physical model
  #
    xc                 pbe
    vdw_correction_hirshfeld
    spin               none
    relativistic       none
    charge             0.
  #
  #  SCF convergence
  #
    occupation_type    gaussian 0.01
    mixer              pulay
      n_max_pulay        10
      charge_mix_param   0.2
    sc_accuracy_rho    1E-5
    sc_accuracy_eev    1E-3
    sc_accuracy_etot   1E-6
    sc_accuracy_forces 1E-4
    sc_iter_limit      100
  #
  #  Relaxation
  #
  #  relax_geometry   bfgs 1.e-3
  #
  ################################################################################
  #
  #  FHI-aims code project
  #  VB, Fritz-Haber Institut, 2009
  #
  #  Suggested "light" defaults for H atom (to be pasted into control.in file)
  #  Be sure to double-check any results obtained with these settings for post-processing,
  #  e.g., with the "tight" defaults and larger basis sets.
  #
  ################################################################################
    species        H
  #     global species definitions
      nucleus             1
      mass                1.00794
  #
      l_hartree           4
  #
      cut_pot             3.5  1.5  1.0
      basis_dep_cutoff    1e-4
  #
      radial_base         24 5.0
      radial_multiplier   1
      angular_grids       specified
        division   0.2421   50
        division   0.3822  110
        division   0.4799  194
        division   0.5341  302
  #      division   0.5626  434
  #      division   0.5922  590
  #      division   0.6542  770
  #      division   0.6868 1202
  #      outer_grid  770
        outer_grid  302
  ################################################################################
  #
  #  Definition of "minimal" basis
  #
  ################################################################################
  #     valence basis states
      valence      1  s   1.
  #     ion occupancy
      ion_occ      1  s   0.5
  ################################################################################
  #
  #  Suggested additional basis functions. For production calculations,
  #  uncomment them one after another (the most important basis functions are
  #  listed first).
  #
  #  Basis constructed for dimers: 0.5 A, 0.7 A, 1.0 A, 1.5 A, 2.5 A
  #
  ################################################################################
  #  "First tier" - improvements: -1014.90 meV to -62.69 meV
       hydro 2 s 2.1
       hydro 2 p 3.5
  #  "Second tier" - improvements: -12.89 meV to -1.83 meV
  #     hydro 1 s 0.85
  #     hydro 2 p 3.7
  #     hydro 2 s 1.2
  #     hydro 3 d 7
  #  "Third tier" - improvements: -0.25 meV to -0.12 meV
  #     hydro 4 f 11.2
  #     hydro 3 p 4.8
  #     hydro 4 d 9
  #     hydro 3 s 3.2
  ################################################################################
  #
  #  FHI-aims code project
  #  VB, Fritz-Haber Institut, 2009
  #
  #  Suggested "light" defaults for C atom (to be pasted into control.in file)
  #  Be sure to double-check any results obtained with these settings for post-processing,
  #  e.g., with the "tight" defaults and larger basis sets.
  #
  ################################################################################
    species        C
  #     global species definitions
      nucleus             6
      mass                12.0107
  #
      l_hartree           4
  #
      cut_pot             3.5  1.5  1.0
      basis_dep_cutoff    1e-4
  #
      radial_base         34 5.0
      radial_multiplier   1
      angular_grids specified
        division   0.3326   50
        division   0.5710  110
        division   0.7727  194
        division   0.8772  302
  #      division   0.9334  434
  #      division   0.9625  590
  #      division   0.9924  770
  #      division   1.0230  974
  #      division   1.4589 1202
  #     outer_grid  974
       outer_grid 302
  ################################################################################
  #
  #  Definition of "minimal" basis
  #
  ################################################################################
  #     valence basis states
      valence      2  s   2.
      valence      2  p   2.
  #     ion occupancy
      ion_occ      2  s   1.
      ion_occ      2  p   1.
  ################################################################################
  #
  #  Suggested additional basis functions. For production calculations,
  #  uncomment them one after another (the most important basis functions are
  #  listed first).
  #
  #  Constructed for dimers: 1.0 A, 1.25 A, 1.5 A, 2.0 A, 3.0 A
  #
  ################################################################################
  #  "First tier" - improvements: -1214.57 meV to -155.61 meV
       hydro 2 p 1.7
       hydro 3 d 6
       hydro 2 s 4.9
  #  "Second tier" - improvements: -67.75 meV to -5.23 meV
  #     hydro 4 f 9.8
  #     hydro 3 p 5.2
  #     hydro 3 s 4.3
  #     hydro 5 g 14.4
  #     hydro 3 d 6.2
  #  "Third tier" - improvements: -2.43 meV to -0.60 meV
  #     hydro 2 p 5.6
  #     hydro 2 s 1.4
  #     hydro 3 d 4.9
  #     hydro 4 f 11.2
  #  "Fourth tier" - improvements: -0.39 meV to -0.18 meV
  #     hydro 2 p 2.1
  #     hydro 5 g 16.4
  #     hydro 4 d 13.2
  #     hydro 3 s 13.6
  #     hydro 4 f 17.6
  #  Further basis functions - improvements: -0.08 meV and below
  #     hydro 3 s 2
  #     hydro 3 p 6
  #     hydro 4 d 20
  ################################################################################
  #
  #  FHI-aims code project
  #  VB, Fritz-Haber Institut, 2009
  #
  #  Suggested "light" defaults for N atom (to be pasted into control.in file)
  #  Be sure to double-check any results obtained with these settings for post-processing,
  #  e.g., with the "tight" defaults and larger basis sets.
  #
  ################################################################################
    species        N
  #     global species definitions
      nucleus             7
      mass                14.0067
  #
      l_hartree           4
  #
      cut_pot             3.5  1.5  1.0
      basis_dep_cutoff    1e-4
  #
      radial_base         35 5.0
      radial_multiplier   1
      angular_grids       specified
        division   0.2599   50
        division   0.4601  110
        division   0.5885  194
        division   0.6503  302
  #      division   0.6939  434
  #      division   0.7396  590
  #      division   0.7632  770
  #      division   0.8122  974
  #      division   1.1604 1202
  #      outer_grid  974
        outer_grid  302
  ################################################################################
  #
  #  Definition of "minimal" basis
  #
  ################################################################################
  #     valence basis states
      valence      2  s   2.
      valence      2  p   3.
  #     ion occupancy
      ion_occ      2  s   1.
      ion_occ      2  p   2.
  ################################################################################
  #
  #  Suggested additional basis functions. For production calculations,
  #  uncomment them one after another (the most important basis functions are
  #  listed first).
  #
  #  Constructed for dimers: 1.0 A, 1.1 A, 1.5 A, 2.0 A, 3.0 A
  #
  ################################################################################
  #  "First tier" - improvements: -1193.42 meV to -220.60 meV
       hydro 2 p 1.8
       hydro 3 d 6.8
       hydro 3 s 5.8
  #  "Second tier" - improvements: -80.21 meV to -6.86 meV
  #     hydro 4 f 10.8
  #     hydro 3 p 5.8
  #     hydro 1 s 0.8
  #     hydro 5 g 16
  #     hydro 3 d 4.9
  #  "Third tier" - improvements: -4.29 meV to -0.53 meV
  #     hydro 3 s 16
  #     ionic 2 p auto
  #     hydro 3 d 6.6
  #     hydro 4 f 11.6
  #  "Fourth tier" - improvements: -0.75 meV to -0.25 meV
  #     hydro 2 p 4.5
  #     hydro 2 s 2.4
  #     hydro 5 g 14.4
  #     hydro 4 d 14.4
  #     hydro 4 f 16.8
  # Further basis functions - -0.21 meV and below
  #     hydro 3 p 14.8
  #     hydro 3 s 4.4
  #     hydro 3 d 19.6
  #     hydro 5 g 12.8
  ################################################################################
  #
  #  FHI-aims code project
  #  VB, Fritz-Haber Institut, 2009
  #
  #  Suggested "light" defaults for O atom (to be pasted into control.in file)
  #  Be sure to double-check any results obtained with these settings for post-processing,
  #  e.g., with the "tight" defaults and larger basis sets.
  #
  ################################################################################
    species        O
  #     global species definitions
      nucleus             8
      mass                15.9994
  #
      l_hartree           4
  #
      cut_pot             3.5  1.5  1.0
      basis_dep_cutoff    1e-4
  #
      radial_base         36 5.0
      radial_multiplier   1
       angular_grids specified
        division   0.2659   50
        division   0.4451  110
        division   0.6052  194
        division   0.7543  302
  #      division   0.8014  434
  #      division   0.8507  590
  #      division   0.8762  770
  #      division   0.9023  974
  #      division   1.2339 1202
  #      outer_grid 974
        outer_grid 302
  ################################################################################
  #
  #  Definition of "minimal" basis
  #
  ################################################################################
  #     valence basis states
      valence      2  s   2.
      valence      2  p   4.
  #     ion occupancy
      ion_occ      2  s   1.
      ion_occ      2  p   3.
  ################################################################################
  #
  #  Suggested additional basis functions. For production calculations,
  #  uncomment them one after another (the most important basis functions are
  #  listed first).
  #
  #  Constructed for dimers: 1.0 A, 1.208 A, 1.5 A, 2.0 A, 3.0 A
  #
  ################################################################################
  #  "First tier" - improvements: -699.05 meV to -159.38 meV
       hydro 2 p 1.8
       hydro 3 d 7.6
       hydro 3 s 6.4
  #  "Second tier" - improvements: -49.91 meV to -5.39 meV
  #     hydro 4 f 11.6
  #     hydro 3 p 6.2
  #     hydro 3 d 5.6
  #     hydro 5 g 17.6
  #     hydro 1 s 0.75
  #  "Third tier" - improvements: -2.83 meV to -0.50 meV
  #     ionic 2 p auto
  #     hydro 4 f 10.8
  #     hydro 4 d 4.7
  #     hydro 2 s 6.8
  #  "Fourth tier" - improvements: -0.40 meV to -0.12 meV
  #     hydro 3 p 5
  #     hydro 3 s 3.3
  #     hydro 5 g 15.6
  #     hydro 4 f 17.6
  #     hydro 4 d 14
  # Further basis functions - -0.08 meV and below
  #     hydro 3 s 2.1
  #     hydro 4 d 11.6
  #     hydro 3 p 16
  #     hydro 2 s 17.2
  
  -----------------------------------------------------------------------
  Completed first pass over input file control.in .
  -----------------------------------------------------------------------
  
  
  -----------------------------------------------------------------------
  Parsing geometry.in (first pass over file, find array dimensions only).
  The contents of geometry.in will be repeated verbatim below
  unless switched off by setting 'verbatim_writeout .false.' .
  in the first line of geometry.in .
  -----------------------------------------------------------------------
  
  atom  0.00000 0.00000 0.00000 C
  atom  1.09300 0.00000 0.00000 H
  atom  -0.47961 0.00000 -1.41207 N
  atom  0.08777 -0.65598 -1.95022 H
  atom  -1.45633 -0.28630 -1.42553 H
  atom  -0.49584 1.26211 0.72868 C
  atom  -1.58789 1.28919 0.74431 H
  atom  -0.13407 1.27425 1.75947 H
  atom  -0.13407 2.16087 0.22380 H
  atom  -0.39425 -1.28861 0.74398 C
  atom  -0.10189 -1.56493 1.88303 O
  atom  -1.10210 -2.13717 0.06896 O
  atom  -1.97624 -1.91083 0.42900 H
  
  -----------------------------------------------------------------------
  Completed first pass over input file geometry.in .
  -----------------------------------------------------------------------
  

  Basic array size parameters:
  | Number of species                 :        4
  | Number of atoms                   :       13
  | Max. basis fn. angular momentum   :        2
  | Max. atomic/ionic basis occupied n:        2
  | Max. number of basis fn. types    :        2
  | Max. radial fns per species/type  :        3
  | Max. logarithmic grid size        :     1301
  | Max. radial integration grid size :       36
  | Max. angular integration grid size:      302
  | Max. angular grid division number :        8
  | Radial grid for Hartree potential :     1301
  | Number of spin channels           :        1

------------------------------------------------------------
          Reading file control.in.
------------------------------------------------------------
  XC: Using PBE gradient-corrected functionals.
  Spin treatment: No spin polarisation.
  Non-relativistic treatment of kinetic energy.
  Charge =   0.000000E+00: Neutral system requested explicitly.
  Occupation type: Gaussian broadening, width =   0.100000E-01 eV.
  Using pulay charge density mixing.
  Pulay mixing - number of memorized iterations:   10
  Charge density mixing - mixing parameter:     0.2000
  Convergence accuracy of self-consistent charge density:  0.1000E-04
  Convergence accuracy of sum of eigenvalues:  0.1000E-02
  Convergence accuracy of total energy:  0.1000E-05
  Convergence accuracy of forces:  0.1000E-03
  Maximum number of s.-c. iterations  :   100
 
  Reading configuration options for species H                   .
  | Found nuclear charge :   1.0000
  | Found atomic mass :    1.00794000000000      amu
  | Found l_max for Hartree potential  :   4
  | Found cutoff potl. onset [A], width [A], scale factor :    3.50000    1.50000    1.00000
  | Threshold for basis-dependent cutoff potential is   0.100000E-03
  | Found data for basic radial integration grid :    24 points, outermost radius =    5.000 A
  | Found multiplier for basic radial grid :   1
  | Found angular grid specification: user-specified.
  | Specified grid contains     5 separate shells.
  | Check grid settings after all constraints further below.
  | Found free-atom valence shell :  1 s   1.000
  | No ionic wave fns used. Skipping ion_occ.
  | Found hydrogenic basis function :  2 s   2.100
  | Found hydrogenic basis function :  2 p   3.500
  Species H                   : Missing cutoff potential type.
  Defaulting to exp(1/x)/(1-x)^2 type cutoff potential.
  Species H : No 'logarithmic' tag. Using default grid for free atom:
  | Default logarithmic grid data [bohr] : 0.1000E-03 0.1000E+03 0.1012E+01
  Species H : On-site basis accuracy parameter (for Gram-Schmidt orthonormalisation) not specified.
  Using default value basis_acc =  0.1000000E-03.
  Species H                   : Using default innermost maximum threshold i_radial=  2 for radial functions.
  Species H                   : Default cutoff onset for free atom density etc. : 0.35000000E+01 AA.
  Species H                   : Basic radial grid will be enhanced according to radial_multiplier =   1, to contain    24 grid points.
 
  Reading configuration options for species C                   .
  | Found nuclear charge :   6.0000
  | Found atomic mass :    12.0107000000000      amu
  | Found l_max for Hartree potential  :   4
  | Found cutoff potl. onset [A], width [A], scale factor :    3.50000    1.50000    1.00000
  | Threshold for basis-dependent cutoff potential is   0.100000E-03
  | Found data for basic radial integration grid :    34 points, outermost radius =    5.000 A
  | Found multiplier for basic radial grid :   1
  | Found angular grid specification: user-specified.
  | Specified grid contains     5 separate shells.
  | Check grid settings after all constraints further below.
  | Found free-atom valence shell :  2 s   2.000
  | Found free-atom valence shell :  2 p   2.000
  | No ionic wave fns used. Skipping ion_occ.
  | No ionic wave fns used. Skipping ion_occ.
  | Found hydrogenic basis function :  2 p   1.700
  | Found hydrogenic basis function :  3 d   6.000
  | Found hydrogenic basis function :  2 s   4.900
  Species C                   : Missing cutoff potential type.
  Defaulting to exp(1/x)/(1-x)^2 type cutoff potential.
  Species C : No 'logarithmic' tag. Using default grid for free atom:
  | Default logarithmic grid data [bohr] : 0.1000E-03 0.1000E+03 0.1012E+01
  Species C : On-site basis accuracy parameter (for Gram-Schmidt orthonormalisation) not specified.
  Using default value basis_acc =  0.1000000E-03.
  Species C                   : Using default innermost maximum threshold i_radial=  2 for radial functions.
  Species C                   : Default cutoff onset for free atom density etc. : 0.35000000E+01 AA.
  Species C                   : Basic radial grid will be enhanced according to radial_multiplier =   1, to contain    34 grid points.
 
  Reading configuration options for species N                   .
  | Found nuclear charge :   7.0000
  | Found atomic mass :    14.0067000000000      amu
  | Found l_max for Hartree potential  :   4
  | Found cutoff potl. onset [A], width [A], scale factor :    3.50000    1.50000    1.00000
  | Threshold for basis-dependent cutoff potential is   0.100000E-03
  | Found data for basic radial integration grid :    35 points, outermost radius =    5.000 A
  | Found multiplier for basic radial grid :   1
  | Found angular grid specification: user-specified.
  | Specified grid contains     5 separate shells.
  | Check grid settings after all constraints further below.
  | Found free-atom valence shell :  2 s   2.000
  | Found free-atom valence shell :  2 p   3.000
  | No ionic wave fns used. Skipping ion_occ.
  | No ionic wave fns used. Skipping ion_occ.
  | Found hydrogenic basis function :  2 p   1.800
  | Found hydrogenic basis function :  3 d   6.800
  | Found hydrogenic basis function :  3 s   5.800
  Species N                   : Missing cutoff potential type.
  Defaulting to exp(1/x)/(1-x)^2 type cutoff potential.
  Species N : No 'logarithmic' tag. Using default grid for free atom:
  | Default logarithmic grid data [bohr] : 0.1000E-03 0.1000E+03 0.1012E+01
  Species N : On-site basis accuracy parameter (for Gram-Schmidt orthonormalisation) not specified.
  Using default value basis_acc =  0.1000000E-03.
  Species N                   : Using default innermost maximum threshold i_radial=  2 for radial functions.
  Species N                   : Default cutoff onset for free atom density etc. : 0.35000000E+01 AA.
  Species N                   : Basic radial grid will be enhanced according to radial_multiplier =   1, to contain    35 grid points.
 
  Reading configuration options for species O                   .
  | Found nuclear charge :   8.0000
  | Found atomic mass :    15.9994000000000      amu
  | Found l_max for Hartree potential  :   4
  | Found cutoff potl. onset [A], width [A], scale factor :    3.50000    1.50000    1.00000
  | Threshold for basis-dependent cutoff potential is   0.100000E-03
  | Found data for basic radial integration grid :    36 points, outermost radius =    5.000 A
  | Found multiplier for basic radial grid :   1
  | Found angular grid specification: user-specified.
  | Specified grid contains     5 separate shells.
  | Check grid settings after all constraints further below.
  | Found free-atom valence shell :  2 s   2.000
  | Found free-atom valence shell :  2 p   4.000
  | No ionic wave fns used. Skipping ion_occ.
  | No ionic wave fns used. Skipping ion_occ.
  | Found hydrogenic basis function :  2 p   1.800
  | Found hydrogenic basis function :  3 d   7.600
  | Found hydrogenic basis function :  3 s   6.400
  Species O                   : Missing cutoff potential type.
  Defaulting to exp(1/x)/(1-x)^2 type cutoff potential.
  Species O : No 'logarithmic' tag. Using default grid for free atom:
  | Default logarithmic grid data [bohr] : 0.1000E-03 0.1000E+03 0.1012E+01
  Species O : On-site basis accuracy parameter (for Gram-Schmidt orthonormalisation) not specified.
  Using default value basis_acc =  0.1000000E-03.
  Species O                   : Using default innermost maximum threshold i_radial=  2 for radial functions.
  Species O                   : Default cutoff onset for free atom density etc. : 0.35000000E+01 AA.
  Species O                   : Basic radial grid will be enhanced according to radial_multiplier =   1, to contain    36 grid points.
 
  Finished reading input file 'control.in'. Consistency checks are next.
 
  MPI_IN_PLACE appears to work with this MPI implementation.
  | Keeping use_mpi_in_place .true. (see manual).
  Target number of points in a grid batch is not set. Defaulting to  100
  Method for grid partitioning is not set. Defaulting to parallel hash+maxmin partitioning.
  Batch size limit is not set. Defaulting to    200
  By default, will store active basis functions for each batch.
  If in need of memory, prune_basis_once .false. can be used to disable this option.
  communication_type for Hartree potential was not specified.
  Defaulting to calc_hartree .
  Pulay mixer: Number of initial linear mixing iterations not set.
  Defaulting to    0 iterations.
  Work space size for distributed Hartree potential not set.
  Defaulting to   0.200000E+03 MB.
  Algorithm-dependent basis array size parameters:
  | n_max_pulay                         :       10
  Presetting      1001 iterations before the initial mixing cycle
  is restarted anyway using the sc_init_iter criterion / keyword.
  Presetting a factor      1.000 between actual scf density residual
  and density convergence criterion sc_accuracy_rho below which sc_init_iter
  takes no effect.
  Geometry relaxation not requested: no relaxation will be performed.
  Handling of forces: Unphysical translation and rotation will be removed from forces.
  No accuracy limit for integral partition fn. given. Defaulting to  0.1000E-14.
  No threshold value for u(r) in integrations given. Defaulting to  0.1000E-05.
  No accuracy for occupation numbers given. Defaulting to  0.1000E-12.
  No threshold value for occupation numbers given. Defaulting to  0.0000E+00.
  No accuracy for fermi level given. Defaulting to  0.1000E-19.
  Maximum # of iterations to find E_F not set. Defaulting to  200.
  Preferred method for the eigenvalue solver ('KS_method') not specified in 'control.in'.
  Defaulting to serial version, 'lapack_fast'.
  Will not use alltoall communication since running on < 1024 CPUs.
  Threshold for basis singularities not set.
  Default threshold for basis singularities:  0.1000E-04
  partition_type (choice of integration weights) for integrals was not specified.
  | Using a version of the partition function of Stratmann and coworkers ('stratmann_smoother').
  | At each grid point, the set of atoms used to build the partition table is smoothly restricted to
  | only those atoms whose free-atom density would be non-zero at that grid point.
  Partitioning for Hartree potential was not defined. Using partition_type for integrals.
  | Adjusted default value of keyword multip_moments_threshold to:       0.10000000E-11
  | This value may affect high angular momentum components of the Hartree potential in periodic systems.
  No q(lm)/r^(l+1) cutoff set for long-range Hartree potential.
  | Using default value of  0.100000E-09 .
  | Verify using the multipole_threshold keyword.
  Defaulting to new monopole extrapolation.
  Density update method: automatic selection selected.
------------------------------------------------------------


------------------------------------------------------------
          Reading geometry description geometry.in.
------------------------------------------------------------
  Input structure read successfully.
  The structure contains       13 atoms,  and a total of         48.000 electrons.

  Input geometry:
  | No unit cell requested.
  | Atomic structure:
  |       Atom                x [A]            y [A]            z [A]
  |    1: Species C             0.00000000        0.00000000        0.00000000
  |    2: Species H             1.09300000        0.00000000        0.00000000
  |    3: Species N            -0.47961000        0.00000000       -1.41207000
  |    4: Species H             0.08777000       -0.65598000       -1.95022000
  |    5: Species H            -1.45633000       -0.28630000       -1.42553000
  |    6: Species C            -0.49584000        1.26211000        0.72868000
  |    7: Species H            -1.58789000        1.28919000        0.74431000
  |    8: Species H            -0.13407000        1.27425000        1.75947000
  |    9: Species H            -0.13407000        2.16087000        0.22380000
  |   10: Species C            -0.39425000       -1.28861000        0.74398000
  |   11: Species O            -0.10189000       -1.56493000        1.88303000
  |   12: Species O            -1.10210000       -2.13717000        0.06896000
  |   13: Species H            -1.97624000       -1.91083000        0.42900000
  |

  | The smallest distance between any two atoms is         0.97210048 AA.
  |
  | The first atom of this pair is atom number                     12 .
  | The second atom of this pair is atom number                    13 .

  Number of empty states per atom not set in control.in - providing a guess from actual geometry.
  | Total number of empty states used during s.c.f. cycle:       29
  If you use a very high smearing, use empty_states (per atom!) in control.in to increase this value.

  Structure-dependent array size parameters: 
  | Maximum number of distinct radial functions  :       21
  | Maximum number of basis functions            :      119
  | Number of Kohn-Sham states (occupied + empty):       53
------------------------------------------------------------

------------------------------------------------------------
          Preparing all fixed parts of the calculation.
------------------------------------------------------------
  Determining machine precision:
    2.225073858507201E-308
  Setting up grids for atomic and cluster calculations.

  Creating wave function, potential, and density for free atoms.

  Species: H

  List of occupied orbitals and eigenvalues:
    n    l              occ      energy [Ha]    energy [eV]
    1    0           1.0000        -0.237589        -6.4651


  Species: C

  List of occupied orbitals and eigenvalues:
    n    l              occ      energy [Ha]    energy [eV]
    1    0           2.0000       -10.038835      -273.1706
    2    0           2.0000        -0.502696       -13.6791
    2    1           2.0000        -0.191971        -5.2238


  Species: N

  List of occupied orbitals and eigenvalues:
    n    l              occ      energy [Ha]    energy [eV]
    1    0           2.0000       -14.128000      -384.4424
    2    0           2.0000        -0.681077       -18.5330
    2    1           3.0000        -0.259788        -7.0692


  Species: O

  List of occupied orbitals and eigenvalues:
    n    l              occ      energy [Ha]    energy [eV]
    1    0           2.0000       -18.898188      -514.2459
    2    0           2.0000        -0.878505       -23.9053
    2    1           4.0000        -0.331779        -9.0282

  Creating fixed part of basis set: Ionic, confined, hydrogenic.
 
  H                    hydrogenic:
 
  List of hydrogenic basis orbitals: 
    n    l      effective z      eigenvalue [eV]  inner max. [A]     outer max. [A]     outer radius [A]   
    2    0         2.100000       -14.9728           0.193243           1.317208           4.583499
    2    1         3.500000       -41.6669           0.602369           0.602369           3.723403
 
 
  C                    hydrogenic:
 
  List of hydrogenic basis orbitals: 
    n    l      effective z      eigenvalue [eV]  inner max. [A]     outer max. [A]     outer radius [A]   
    2    1         1.700000        -9.7616           1.230570           1.230570           4.607917
    3    2         6.000000       -54.4224           0.792453           0.792453           3.883070
    2    0         4.900000       -81.6679           0.082559           0.562749           3.078220
 
 
  N                    hydrogenic:
 
  List of hydrogenic basis orbitals: 
    n    l      effective z      eigenvalue [eV]  inner max. [A]     outer max. [A]     outer radius [A]   
    2    1         1.800000       -10.9749           1.177451           1.177451           4.573712
    3    2         6.800000       -69.9026           0.704619           0.704619           3.538137
    3    0         5.800000       -50.8545           0.067388           1.191934           4.250239
 
 
  O                    hydrogenic:
 
  List of hydrogenic basis orbitals: 
    n    l      effective z      eigenvalue [eV]  inner max. [A]     outer max. [A]     outer radius [A]   
    2    1         1.800000       -10.9749           1.164242           1.164242           4.578029
    3    2         7.600000       -87.3180           0.624125           0.624125           3.251020
    3    0         6.400000       -61.9207           0.061167           1.081902           4.001998
 

  Adding cutoff potential to free-atom effective potential.
  Creating atomic-like basis functions for current effective potential.

  Species H                   :

  List of atomic basis orbitals and eigenvalues:
    n    l      energy [Ha]    energy [eV]    outer radius [A]
    1    0        -0.237589        -6.4651       4.527807


  Species C                   :

  List of atomic basis orbitals and eigenvalues:
    n    l      energy [Ha]    energy [eV]    outer radius [A]
    1    0       -10.038835      -273.1706       1.934409
    2    0        -0.502696       -13.6791       4.496620
    2    1        -0.191971        -5.2238       4.551928


  Species N                   :

  List of atomic basis orbitals and eigenvalues:
    n    l      energy [Ha]    energy [eV]    outer radius [A]
    1    0       -14.128000      -384.4424       1.637919
    2    0        -0.681077       -18.5330       4.463241
    2    1        -0.259788        -7.0692       4.518138


  Species O                   :

  List of atomic basis orbitals and eigenvalues:
    n    l      energy [Ha]    energy [eV]    outer radius [A]
    1    0       -18.898188      -514.2459       1.415765
    2    0        -0.878505       -23.9053       4.413171
    2    1        -0.331779        -9.0282       4.522403

  Assembling full basis from fixed parts.
  | Species H :   atomic orbital   1 s accepted.
  | Species H :    hydro orbital   2 s accepted.
  | Species H :    hydro orbital   2 p accepted.
  | Species C :   atomic orbital   1 s accepted.
  | Species C :    hydro orbital   2 s accepted.
  | Species C :   atomic orbital   2 s accepted.
  | Species C :   atomic orbital   2 p accepted.
  | Species C :    hydro orbital   2 p accepted.
  | Species C :    hydro orbital   3 d accepted.
  | Species N :   atomic orbital   1 s accepted.
  | Species N :    hydro orbital   3 s accepted.
  | Species N :   atomic orbital   2 s accepted.
  | Species N :   atomic orbital   2 p accepted.
  | Species N :    hydro orbital   2 p accepted.
  | Species N :    hydro orbital   3 d accepted.
  | Species O :   atomic orbital   1 s accepted.
  | Species O :    hydro orbital   3 s accepted.
  | Species O :   atomic orbital   2 s accepted.
  | Species O :   atomic orbital   2 p accepted.
  | Species O :    hydro orbital   2 p accepted.
  | Species O :    hydro orbital   3 d accepted.
 
  Basis size parameters after reduction:
  | Total number of radial functions:       21
  | Total number of basis functions :      119
 
  Per-task memory consumption for arrays in subroutine allocate_ext:
  |           5.250512MB.
  Testing on-site integration grid accuracy.
  |  Species  Function  <phi|h_atom|phi> (log., in eV)  <phi|h_atom|phi> (rad., in eV)
           1        1                 -6.4663192853                 -6.4651273558
           1        2                 13.7111246313                 13.7170609718
           1        3                 25.2673269279                 25.2674696378
           2        4               -273.1705927641               -273.1705631568
           2        5                -10.7109323383                -10.7107120029
           2        6                 17.4381822266                 17.4352413244
           2        7                 -5.2255326521                 -5.2270484734
           2        8                  8.6835629259                  8.6603288385
           2        9                 27.4952418996                 27.4953360207
           3       10               -384.4424306495               -384.4423701208
           3       11                 12.5842251816                 12.5842222903
           3       12                -15.7264628251                -15.7264433455
           3       13                 -7.0696854293                 -7.0701769954
           3       14                  8.8090390882                  8.7901077751
           3       15                 35.9586762123                 35.9588528632
           4       16               -514.2458688638               -514.2457643834
           4       17                 15.1795651126                 15.1795290741
           4       18                -21.5359799773                -21.5360846186
           4       19                 -9.0283069236                 -9.0284644067
           4       20                  8.3027758564                  8.2834874195
           4       21                 45.8339351984                 45.8338762259

  Preparing densities etc. for the partition functions (integrals / Hartree potential).

  Preparations completed.
  max(cpu_time)          :      0.148 s.
  Wall clock time (cpu1) :      0.150 s.
------------------------------------------------------------

------------------------------------------------------------
          Begin self-consistency loop: Initialization.

          Date     :  20200710, Time     :  151332.841
------------------------------------------------------------

  Initializing index lists of integration centers etc. from given atomic structure:
  | Number of centers in hartree potential         :        13
  | Number of centers in hartree multipole         :        13
  | Number of centers in electron density summation:        13
  | Number of centers in basis integrals           :        13
  | Number of centers in integrals                 :        13
  | Number of centers in hamiltonian               :        13
  Partitioning the integration grid into batches with parallel hashing+maxmin method.
  | Number of batches:      953
  | Maximal batch size:     139
  | Minimal batch size:      66
  | Average batch size:      73.081
  | Standard deviation of batch sizes:      17.885

  Integration load balanced across     1 MPI tasks.
  Work distribution over tasks is as follows:
  Task     0 has      69646 integration points.
  Initializing partition tables, free-atom densities, potentials, etc. across the integration grid (initialize_grid_storage).
  | initialize_grid_storage: Actual outermost partition radius vs. multipole_radius_free
  | (-- VB: in principle, multipole_radius_free should be larger, hence this output)
  | Species        1: Confinement radius =              4.999999999999999 AA, multipole_radius_free =              5.054417573612229 AA.
  | Species        1: outer_partition_radius set to              5.054417573612229 AA .
  | Species        2: Confinement radius =              4.999999999999999 AA, multipole_radius_free =              5.019602836301480 AA.
  | Species        2: outer_partition_radius set to              5.019602836301480 AA .
  | Species        3: Confinement radius =              4.999999999999999 AA, multipole_radius_free =              5.043624274424571 AA.
  | Species        3: outer_partition_radius set to              5.043624274424571 AA .
  | Species        4: Confinement radius =              4.999999999999999 AA, multipole_radius_free =              5.048384829883283 AA.
  | Species        4: outer_partition_radius set to              5.048384829883283 AA .
  | Original list of interatomic distances with          13 x         13 entries is created.
  | Net number of integration points:    69646
  | of which are non-zero points    :    59459
  Renormalizing the initial density to the exact electron count on the 3D integration grid.
  | Initial density: Formal number of electrons (from input files) :      48.0000000000
  | Integrated number of electrons on 3D grid     :      47.9999015596
  | Charge integration error                      :      -0.0000984404
  | Normalization factor for density and gradient :       1.0000020508
  Obtaining max. number of non-zero basis functions in each batch (get_n_compute_maxes).
  | Maximal number of non-zero basis functions:      118 in task     0
  Selecting the method for density update.
  Loop over occupied states selected for charge density update.
  Allocating        0.050 MB for KS_eigenvector
  Integrating Hamiltonian matrix: batch-based integration.
  Time summed over all CPUs for integration: real work        0.496 s, elapsed        0.496 s
  Integrating overlap matrix.
  Time summed over all CPUs for integration: real work        0.213 s, elapsed        0.213 s

  Updating Kohn-Sham eigenvalues and eigenvectors using ELSI and the ELPA eigensolver.
  Overlap matrix is nonsingular
  | Lowest eigenvalue of overlap  :  0.52E-02
  | Highest eigenvalue of overlap :  0.62E+01
  Finished singularity check of overlap matrix
  | Time :     0.002 s
  Finished Cholesky decomposition
  | Time :     0.000 s
  Finished transformation to standard eigenproblem
  | Time :     0.000 s
  Starting LAPACK eigensolver
  Finished solving standard eigenproblem
  | Time :     0.002 s
  Finished back-transformation of eigenvectors
  | Time :     0.000 s

  Obtaining occupation numbers and chemical potential using ELSI.
  | Chemical potential (Fermi level):    -8.93239205eV
  Writing Kohn-Sham eigenvalues.

  State    Occupation    Eigenvalue [Ha]    Eigenvalue [eV]
      1       2.00000         -19.007868         -517.23041
      2       2.00000         -18.977389         -516.40104
      3       2.00000         -14.245809         -387.64818
      4       2.00000         -10.166625         -276.64794
      5       2.00000         -10.141297         -275.95873
      6       2.00000         -10.132072         -275.70770
      7       2.00000          -1.184334          -32.22736
      8       2.00000          -1.096673          -29.84198
      9       2.00000          -0.990763          -26.96003
     10       2.00000          -0.861231          -23.43528
     11       2.00000          -0.754313          -20.52590
     12       2.00000          -0.679359          -18.48630
     13       2.00000          -0.629919          -17.14097
     14       2.00000          -0.614782          -16.72907
     15       2.00000          -0.585473          -15.93152
     16       2.00000          -0.568766          -15.47690
     17       2.00000          -0.551192          -14.99871
     18       2.00000          -0.532410          -14.48762
     19       2.00000          -0.514154          -13.99085
     20       2.00000          -0.494352          -13.45200
     21       2.00000          -0.455537          -12.39580
     22       2.00000          -0.430755          -11.72144
     23       2.00000          -0.419762          -11.42231
     24       2.00000          -0.377946          -10.28443
     25       0.00000          -0.163403           -4.44643
     26       0.00000          -0.067989           -1.85008
     27       0.00000          -0.032349           -0.88025
     28       0.00000          -0.017680           -0.48111
     29       0.00000           0.007046            0.19172
     30       0.00000           0.012096            0.32915
     31       0.00000           0.019721            0.53663
     32       0.00000           0.029839            0.81195
     33       0.00000           0.043952            1.19598
     34       0.00000           0.062532            1.70157
     35       0.00000           0.080887            2.20105
     36       0.00000           0.135177            3.67835
     37       0.00000           0.157165            4.27669
     38       0.00000           0.204671            5.56937
     39       0.00000           0.214475            5.83615
     40       0.00000           0.230341            6.26789
     41       0.00000           0.256224            6.97221
     42       0.00000           0.274224            7.46202
     43       0.00000           0.277158            7.54186
     44       0.00000           0.299396            8.14697
     45       0.00000           0.319924            8.70557
     46       0.00000           0.353772            9.62664
     47       0.00000           0.365780            9.95339
     48       0.00000           0.385580           10.49216
     49       0.00000           0.446576           12.15195
     50       0.00000           0.491600           13.37713
     51       0.00000           0.503026           13.68804
     52       0.00000           0.510014           13.87820
     53       0.00000           0.590410           16.06587

  Highest occupied state (VBM) at    -10.28442980 eV
  | Occupation number:      2.00000000

  Lowest unoccupied state (CBM) at    -4.44642505 eV
  | Occupation number:      0.00000000

  Overall HOMO-LUMO gap:      5.83800475 eV.
  Calculating total energy contributions from superposition of free atom densities.

  Total energy components:
  | Sum of eigenvalues            :        -188.82556079 Ha       -5138.20493809 eV
  | XC energy correction          :         -41.78522661 Ha       -1137.03386772 eV
  | XC potential correction       :          53.71530824 Ha        1461.66790614 eV
  | Free-atom electrostatic energy:        -146.86291607 Ha       -3996.34327811 eV
  | Hartree energy correction     :           0.00000000 Ha           0.00000000 eV
  | vdW energy correction         :           0.00000000 Ha           0.00000000 eV
  | Entropy correction            :           0.00000000 Ha           0.00000000 eV
  | ---------------------------
  | Total energy                  :        -323.75839523 Ha       -8809.91417778 eV
  | Total energy, T -> 0          :        -323.75839523 Ha       -8809.91417778 eV  <-- do not rely on this value for anything but (periodic) metals
  | Electronic free energy        :        -323.75839523 Ha       -8809.91417778 eV

  Derived energy quantities:
  | Kinetic energy                :         320.49051555 Ha        8720.99064721 eV
  | Electrostatic energy          :        -602.46368417 Ha      -16393.87095726 eV
  | Energy correction for multipole
  | error in Hartree potential    :           0.00000000 Ha           0.00000000 eV
  | Sum of eigenvalues per atom                           :        -395.24653370 eV
  | Total energy (T->0) per atom                          :        -677.68570598 eV  <-- do not rely on this value for anything but (periodic) metals
  | Electronic free energy per atom                       :        -677.68570598 eV
  Initialize hartree_potential_storage
  Max. number of atoms included in rho_multipole:           13

  End scf initialization - timings             :  max(cpu_time)    wall_clock(cpu1)
  | Time for scf. initialization               :        1.151 s           1.152 s
  | Boundary condition initialization          :        0.000 s           0.000 s
  | Integration                                :        0.709 s           0.709 s
  | Solution of K.-S. eqns.                    :        0.004 s           0.004 s
  | Grid partitioning                          :        0.111 s           0.111 s
  | Preloading free-atom quantities on grid    :        0.002 s           0.002 s
  | Free-atom superposition energy             :        0.084 s           0.084 s
  | Total energy evaluation                    :        0.000 s           0.000 s

  Partial memory accounting:
  | Current value for overall tracked memory usage on task 0  :           0.165 MB
  | Peak value for overall tracked memory usage on task 0     :           0.673 MB after allocating wave
  | Largest tracked array allocation on task 0 so far         :           0.131 MB  when allocating H_times_psi
  Note:  These values currently only include a subset of arrays which are explicitly tracked.
  The "true" memory usage will be greater.
------------------------------------------------------------

------------------------------------------------------------
          Begin self-consistency iteration #    1

  Date     :  20200710, Time     :  151333.993
------------------------------------------------------------
  Evaluating new KS density.
  Integration grid: deviation in total charge (<rho> - N_e) =  -1.421085E-14
  Pulay mixing of updated and previous charge densities.

  Evaluating partitioned Hartree potential by multipole expansion.
  | Analytical far-field extrapolation by fixed multipoles:
  | Hartree multipole sum: apparent total charge =  -0.207687E-03
  Summing up the Hartree potential.
  Time summed over all CPUs for potential: real work        0.282 s, elapsed        0.282 s
  | RMS charge density error from multipole expansion :   0.591477E-02

  Integrating Hamiltonian matrix: batch-based integration.
  Time summed over all CPUs for integration: real work        0.499 s, elapsed        0.499 s

  Updating Kohn-Sham eigenvalues and eigenvectors using ELSI and the ELPA eigensolver.
  Finished Cholesky decomposition
  | Time :     0.000 s
  Finished transformation to standard eigenproblem
  | Time :     0.000 s
  Starting LAPACK eigensolver
  Finished solving standard eigenproblem
  | Time :     0.002 s
  Finished back-transformation of eigenvectors
  | Time :     0.000 s

  Obtaining occupation numbers and chemical potential using ELSI.
  | Chemical potential (Fermi level):    -7.76492741eV
  Writing Kohn-Sham eigenvalues.

  State    Occupation    Eigenvalue [Ha]    Eigenvalue [eV]
      1       2.00000         -18.898470         -514.25352
      2       2.00000         -18.840446         -512.67462
      3       2.00000         -14.096098         -383.57435
      4       2.00000         -10.118413         -275.33604
      5       2.00000         -10.062588         -273.81695
      6       2.00000         -10.030788         -272.95162
      7       2.00000          -1.135416          -30.89623
      8       2.00000          -1.035014          -28.16416
      9       2.00000          -0.921150          -25.06578
     10       2.00000          -0.794990          -21.63278
     11       2.00000          -0.703184          -19.13462
     12       2.00000          -0.633720          -17.24439
     13       2.00000          -0.579184          -15.76040
     14       2.00000          -0.552544          -15.03550
     15       2.00000          -0.530040          -14.42313
     16       2.00000          -0.507908          -13.82087
     17       2.00000          -0.490350          -13.34310
     18       2.00000          -0.470774          -12.81041
     19       2.00000          -0.447985          -12.19030
     20       2.00000          -0.438905          -11.94322
     21       2.00000          -0.395794          -10.77009
     22       2.00000          -0.373163          -10.15427
     23       2.00000          -0.349880           -9.52071
     24       2.00000          -0.304546           -8.28713
     25       0.00000          -0.129661           -3.52827
     26       0.00000          -0.049536           -1.34794
     27       0.00000          -0.000761           -0.02070
     28       0.00000           0.015644            0.42568
     29       0.00000           0.032527            0.88511
     30       0.00000           0.054111            1.47243
     31       0.00000           0.062246            1.69380
     32       0.00000           0.069647            1.89520
     33       0.00000           0.082902            2.25589
     34       0.00000           0.099519            2.70804
     35       0.00000           0.121369            3.30262
     36       0.00000           0.163524            4.44971
     37       0.00000           0.179920            4.89587
     38       0.00000           0.235687            6.41337
     39       0.00000           0.246225            6.70013
     40       0.00000           0.263170            7.16123
     41       0.00000           0.289499            7.87768
     42       0.00000           0.308531            8.39556
     43       0.00000           0.314934            8.56978
     44       0.00000           0.335795            9.13746
     45       0.00000           0.358805            9.76358
     46       0.00000           0.384255           10.45611
     47       0.00000           0.409959           11.15556
     48       0.00000           0.424732           11.55756
     49       0.00000           0.485535           13.21208
     50       0.00000           0.524305           14.26706
     51       0.00000           0.538599           14.65601
     52       0.00000           0.543151           14.77990
     53       0.00000           0.630043           17.14435

  Highest occupied state (VBM) at     -8.28712923 eV
  | Occupation number:      2.00000000

  Lowest unoccupied state (CBM) at    -3.52826714 eV
  | Occupation number:      0.00000000

  Overall HOMO-LUMO gap:      4.75886209 eV.

  Total energy components:
  | Sum of eigenvalues            :        -185.42269996 Ha       -5045.60838365 eV
  | XC energy correction          :         -42.11657442 Ha       -1146.05030028 eV
  | XC potential correction       :          54.14630404 Ha        1473.39589842 eV
  | Free-atom electrostatic energy:        -146.86291607 Ha       -3996.34327811 eV
  | Hartree energy correction     :          -3.31634838 Ha         -90.24243079 eV
  | vdW energy correction         :           0.00000000 Ha           0.00000000 eV
  | Entropy correction            :           0.00000000 Ha           0.00000000 eV
  | ---------------------------
  | Total energy                  :        -323.57223479 Ha       -8804.84849441 eV
  | Total energy, T -> 0          :        -323.57223479 Ha       -8804.84849441 eV  <-- do not rely on this value for anything but (periodic) metals
  | Electronic free energy        :        -323.57223479 Ha       -8804.84849441 eV

  Derived energy quantities:
  | Kinetic energy                :         322.30058825 Ha        8770.24523132 eV
  | Electrostatic energy          :        -603.75624862 Ha      -16429.04342545 eV
  | Energy correction for multipole
  | error in Hartree potential    :           0.01202803 Ha           0.32729924 eV
  | Sum of eigenvalues per atom                           :        -388.12372182 eV
  | Total energy (T->0) per atom                          :        -677.29603803 eV  <-- do not rely on this value for anything but (periodic) metals
  | Electronic free energy per atom                       :        -677.29603803 eV

  Self-consistency convergence accuracy:
  | Change of charge density      :  0.5896E+00
  | Change of sum of eigenvalues  :  0.9260E+02 eV
  | Change of total energy        :  0.5066E+01 eV

  End self-consistency iteration #     1       :  max(cpu_time)    wall_clock(cpu1)
  | Time for this iteration                    :        1.192 s           1.193 s
  | Charge density update                      :        0.394 s           0.394 s
  | Density mixing                             :        0.005 s           0.006 s
  | Hartree multipole update                   :        0.008 s           0.008 s
  | Hartree multipole summation                :        0.283 s           0.284 s
  | Integration                                :        0.499 s           0.499 s
  | Solution of K.-S. eqns.                    :        0.002 s           0.002 s
  | Total energy evaluation                    :        0.000 s           0.000 s

  Partial memory accounting:
  | Current value for overall tracked memory usage on task 0  :           0.165 MB
  | Peak value for overall tracked memory usage on task 0     :           0.690 MB after allocating gradient_basis_wave
  | Largest tracked array allocation on task 0 so far         :           0.394 MB  when allocating gradient_basis_wave
  Note:  These values currently only include a subset of arrays which are explicitly tracked.
  The "true" memory usage will be greater.
------------------------------------------------------------

------------------------------------------------------------
          Begin self-consistency iteration #    2

  Date     :  20200710, Time     :  151335.191
------------------------------------------------------------
  Evaluating new KS density.
  Integration grid: deviation in total charge (<rho> - N_e) =   2.131628E-14
  Pulay mixing of updated and previous charge densities.

  Evaluating partitioned Hartree potential by multipole expansion.
  | Analytical far-field extrapolation by fixed multipoles:
  | Hartree multipole sum: apparent total charge =  -0.346239E-03
  Summing up the Hartree potential.
  Time summed over all CPUs for potential: real work        0.282 s, elapsed        0.282 s
  | RMS charge density error from multipole expansion :   0.139630E-01

  Integrating Hamiltonian matrix: batch-based integration.
  Time summed over all CPUs for integration: real work        0.498 s, elapsed        0.498 s

  Updating Kohn-Sham eigenvalues and eigenvectors using ELSI and the ELPA eigensolver.
  Finished Cholesky decomposition
  | Time :     0.000 s
  Finished transformation to standard eigenproblem
  | Time :     0.000 s
  Starting LAPACK eigensolver
  Finished solving standard eigenproblem
  | Time :     0.002 s
  Finished back-transformation of eigenvectors
  | Time :     0.000 s

  Obtaining occupation numbers and chemical potential using ELSI.
  | Chemical potential (Fermi level):    -4.32887238eV
  Highest occupied state (VBM) at     -6.29994019 eV
  | Occupation number:      2.00000000

  Lowest unoccupied state (CBM) at    -2.34217368 eV
  | Occupation number:      0.00000000

  Overall HOMO-LUMO gap:      3.95776651 eV.

  Checking to see if s.c.f. parameters should be adjusted.

  Total energy components:
  | Sum of eigenvalues            :        -181.85478415 Ha       -4948.52045460 eV
  | XC energy correction          :         -42.47684218 Ha       -1155.85368487 eV
  | XC potential correction       :          54.61340237 Ha        1486.10629088 eV
  | Free-atom electrostatic energy:        -146.86291607 Ha       -3996.34327811 eV
  | Hartree energy correction     :          -6.91066907 Ha        -188.04887323 eV
  | vdW energy correction         :           0.00000000 Ha           0.00000000 eV
  | Entropy correction            :           0.00000000 Ha           0.00000000 eV
  | ---------------------------
  | Total energy                  :        -323.49180910 Ha       -8802.65999993 eV
  | Total energy, T -> 0          :        -323.49180910 Ha       -8802.65999993 eV  <-- do not rely on this value for anything but (periodic) metals
  | Electronic free energy        :        -323.49180910 Ha       -8802.65999993 eV

  Derived energy quantities:
  | Kinetic energy                :         323.62364768 Ha        8806.24751032 eV
  | Electrostatic energy          :        -604.63861460 Ha      -16453.05382539 eV
  | Energy correction for multipole
  | error in Hartree potential    :           0.02641488 Ha           0.71878559 eV
  | Sum of eigenvalues per atom                           :        -380.65541958 eV
  | Total energy (T->0) per atom                          :        -677.12769230 eV  <-- do not rely on this value for anything but (periodic) metals
  | Electronic free energy per atom                       :        -677.12769230 eV

  Self-consistency convergence accuracy:
  | Change of charge density      :  0.3690E+00
  | Change of sum of eigenvalues  :  0.9709E+02 eV
  | Change of total energy        :  0.2188E+01 eV

  End self-consistency iteration #     2       :  max(cpu_time)    wall_clock(cpu1)
  | Time for this iteration                    :        1.184 s           1.184 s
  | Charge density update                      :        0.385 s           0.385 s
  | Density mixing                             :        0.007 s           0.007 s
  | Hartree multipole update                   :        0.009 s           0.009 s
  | Hartree multipole summation                :        0.282 s           0.282 s
  | Integration                                :        0.498 s           0.499 s
  | Solution of K.-S. eqns.                    :        0.002 s           0.002 s
  | Total energy evaluation                    :        0.000 s           0.000 s

  Partial memory accounting:
  | Current value for overall tracked memory usage on task 0  :           0.166 MB
  | Peak value for overall tracked memory usage on task 0     :           0.690 MB after allocating gradient_basis_wave
  | Largest tracked array allocation on task 0 so far         :           0.394 MB  when allocating gradient_basis_wave
  Note:  These values currently only include a subset of arrays which are explicitly tracked.
  The "true" memory usage will be greater.
------------------------------------------------------------

------------------------------------------------------------
          Begin self-consistency iteration #    3

  Date     :  20200710, Time     :  151336.385
------------------------------------------------------------
  Evaluating new KS density.
  Integration grid: deviation in total charge (<rho> - N_e) =   5.684342E-14
  Pulay mixing of updated and previous charge densities.

  Evaluating partitioned Hartree potential by multipole expansion.
  | Analytical far-field extrapolation by fixed multipoles:
  | Hartree multipole sum: apparent total charge =  -0.444350E-03
  Summing up the Hartree potential.
  Time summed over all CPUs for potential: real work        0.281 s, elapsed        0.281 s
  | RMS charge density error from multipole expansion :   0.218616E-01

  Integrating Hamiltonian matrix: batch-based integration.
  Time summed over all CPUs for integration: real work        0.497 s, elapsed        0.497 s

  Updating Kohn-Sham eigenvalues and eigenvectors using ELSI and the ELPA eigensolver.
  Finished Cholesky decomposition
  | Time :     0.000 s
  Finished transformation to standard eigenproblem
  | Time :     0.000 s
  Starting LAPACK eigensolver
  Finished solving standard eigenproblem
  | Time :     0.001 s
  Finished back-transformation of eigenvectors
  | Time :     0.000 s

  Obtaining occupation numbers and chemical potential using ELSI.
  | Chemical potential (Fermi level):    -3.63035668eV
  Highest occupied state (VBM) at     -5.61053025 eV
  | Occupation number:      2.00000000

  Lowest unoccupied state (CBM) at    -1.64968462 eV
  | Occupation number:      0.00000000

  Overall HOMO-LUMO gap:      3.96084563 eV.

  Total energy components:
  | Sum of eigenvalues            :        -180.51468101 Ha       -4912.05439288 eV
  | XC energy correction          :         -42.63069574 Ha       -1160.04025336 eV
  | XC potential correction       :          54.80985414 Ha        1491.45201526 eV
  | Free-atom electrostatic energy:        -146.86291607 Ha       -3996.34327811 eV
  | Hartree energy correction     :          -8.27997120 Ha        -225.30948000 eV
  | vdW energy correction         :           0.00000000 Ha           0.00000000 eV
  | Entropy correction            :           0.00000000 Ha           0.00000000 eV
  | ---------------------------
  | Total energy                  :        -323.47840989 Ha       -8802.29538907 eV
  | Total energy, T -> 0          :        -323.47840989 Ha       -8802.29538907 eV  <-- do not rely on this value for anything but (periodic) metals
  | Electronic free energy        :        -323.47840989 Ha       -8802.29538907 eV

  Derived energy quantities:
  | Kinetic energy                :         323.23687373 Ha        8795.72285556 eV
  | Electrostatic energy          :        -604.08458788 Ha      -16437.97799128 eV
  | Energy correction for multipole
  | error in Hartree potential    :           0.03735328 Ha           1.01643441 eV
  | Sum of eigenvalues per atom                           :        -377.85033791 eV
  | Total energy (T->0) per atom                          :        -677.09964531 eV  <-- do not rely on this value for anything but (periodic) metals
  | Electronic free energy per atom                       :        -677.09964531 eV

  Self-consistency convergence accuracy:
  | Change of charge density      :  0.2076E+00
  | Change of sum of eigenvalues  :  0.3647E+02 eV
  | Change of total energy        :  0.3646E+00 eV

  End self-consistency iteration #     3       :  max(cpu_time)    wall_clock(cpu1)
  | Time for this iteration                    :        1.184 s           1.185 s
  | Charge density update                      :        0.386 s           0.386 s
  | Density mixing                             :        0.008 s           0.008 s
  | Hartree multipole update                   :        0.009 s           0.008 s
  | Hartree multipole summation                :        0.282 s           0.282 s
  | Integration                                :        0.497 s           0.497 s
  | Solution of K.-S. eqns.                    :        0.002 s           0.003 s
  | Total energy evaluation                    :        0.000 s           0.000 s

  Partial memory accounting:
  | Current value for overall tracked memory usage on task 0  :           0.166 MB
  | Peak value for overall tracked memory usage on task 0     :           0.691 MB after allocating gradient_basis_wave
  | Largest tracked array allocation on task 0 so far         :           0.394 MB  when allocating gradient_basis_wave
  Note:  These values currently only include a subset of arrays which are explicitly tracked.
  The "true" memory usage will be greater.
------------------------------------------------------------

------------------------------------------------------------
          Begin self-consistency iteration #    4

  Date     :  20200710, Time     :  151337.571
------------------------------------------------------------
  Evaluating new KS density.
  Integration grid: deviation in total charge (<rho> - N_e) =   3.552714E-14
  Pulay mixing of updated and previous charge densities.

  Evaluating partitioned Hartree potential by multipole expansion.
  | Analytical far-field extrapolation by fixed multipoles:
  | Hartree multipole sum: apparent total charge =  -0.478139E-03
  Summing up the Hartree potential.
  Time summed over all CPUs for potential: real work        0.282 s, elapsed        0.282 s
  | RMS charge density error from multipole expansion :   0.253588E-01

  Integrating Hamiltonian matrix: batch-based integration.
  Time summed over all CPUs for integration: real work        0.499 s, elapsed        0.499 s

  Updating Kohn-Sham eigenvalues and eigenvectors using ELSI and the ELPA eigensolver.
  Finished Cholesky decomposition
  | Time :     0.000 s
  Finished transformation to standard eigenproblem
  | Time :     0.000 s
  Starting LAPACK eigensolver
  Finished solving standard eigenproblem
  | Time :     0.002 s
  Finished back-transformation of eigenvectors
  | Time :     0.000 s

  Obtaining occupation numbers and chemical potential using ELSI.
  | Chemical potential (Fermi level):    -3.51963104eV
  Highest occupied state (VBM) at     -5.41804787 eV
  | Occupation number:      2.00000000

  Lowest unoccupied state (CBM) at    -1.55309857 eV
  | Occupation number:      0.00000000

  Overall HOMO-LUMO gap:      3.86494929 eV.

  Total energy components:
  | Sum of eigenvalues            :        -180.37195839 Ha       -4908.17071274 eV
  | XC energy correction          :         -42.66866737 Ha       -1161.07351378 eV
  | XC potential correction       :          54.85762566 Ha        1492.75194472 eV
  | Free-atom electrostatic energy:        -146.86291607 Ha       -3996.34327811 eV
  | Hartree energy correction     :          -8.43140592 Ha        -229.43022825 eV
  | vdW energy correction         :           0.00000000 Ha           0.00000000 eV
  | Entropy correction            :           0.00000000 Ha           0.00000000 eV
  | ---------------------------
  | Total energy                  :        -323.47732208 Ha       -8802.26578816 eV
  | Total energy, T -> 0          :        -323.47732208 Ha       -8802.26578816 eV  <-- do not rely on this value for anything but (periodic) metals
  | Electronic free energy        :        -323.47732208 Ha       -8802.26578816 eV

  Derived energy quantities:
  | Kinetic energy                :         322.82888758 Ha        8784.62098774 eV
  | Electrostatic energy          :        -603.63754230 Ha      -16425.81326212 eV
  | Energy correction for multipole
  | error in Hartree potential    :           0.04170033 Ha           1.13472380 eV
  | Sum of eigenvalues per atom                           :        -377.55159329 eV
  | Total energy (T->0) per atom                          :        -677.09736832 eV  <-- do not rely on this value for anything but (periodic) metals
  | Electronic free energy per atom                       :        -677.09736832 eV

  Self-consistency convergence accuracy:
  | Change of charge density      :  0.6882E-01
  | Change of sum of eigenvalues  :  0.3884E+01 eV
  | Change of total energy        :  0.2960E-01 eV

  End self-consistency iteration #     4       :  max(cpu_time)    wall_clock(cpu1)
  | Time for this iteration                    :        1.187 s           1.188 s
  | Charge density update                      :        0.385 s           0.385 s
  | Density mixing                             :        0.010 s           0.010 s
  | Hartree multipole update                   :        0.009 s           0.009 s
  | Hartree multipole summation                :        0.282 s           0.282 s
  | Integration                                :        0.498 s           0.499 s
  | Solution of K.-S. eqns.                    :        0.002 s           0.002 s
  | Total energy evaluation                    :        0.000 s           0.000 s

  Partial memory accounting:
  | Current value for overall tracked memory usage on task 0  :           0.166 MB
  | Peak value for overall tracked memory usage on task 0     :           0.691 MB after allocating gradient_basis_wave
  | Largest tracked array allocation on task 0 so far         :           0.394 MB  when allocating gradient_basis_wave
  Note:  These values currently only include a subset of arrays which are explicitly tracked.
  The "true" memory usage will be greater.
------------------------------------------------------------

------------------------------------------------------------
          Begin self-consistency iteration #    5

  Date     :  20200710, Time     :  151338.759
------------------------------------------------------------
  Evaluating new KS density.
  Integration grid: deviation in total charge (<rho> - N_e) =   4.263256E-14
  Pulay mixing of updated and previous charge densities.

  Evaluating partitioned Hartree potential by multipole expansion.
  | Analytical far-field extrapolation by fixed multipoles:
  | Hartree multipole sum: apparent total charge =  -0.471806E-03
  Summing up the Hartree potential.
  Time summed over all CPUs for potential: real work        0.281 s, elapsed        0.281 s
  | RMS charge density error from multipole expansion :   0.251306E-01

  Integrating Hamiltonian matrix: batch-based integration.
  Time summed over all CPUs for integration: real work        0.498 s, elapsed        0.498 s

  Updating Kohn-Sham eigenvalues and eigenvectors using ELSI and the ELPA eigensolver.
  Finished Cholesky decomposition
  | Time :     0.000 s
  Finished transformation to standard eigenproblem
  | Time :     0.000 s
  Starting LAPACK eigensolver
  Finished solving standard eigenproblem
  | Time :     0.002 s
  Finished back-transformation of eigenvectors
  | Time :     0.000 s

  Obtaining occupation numbers and chemical potential using ELSI.
  | Chemical potential (Fermi level):    -3.59515836eV
  Highest occupied state (VBM) at     -5.52143901 eV
  | Occupation number:      2.00000000

  Lowest unoccupied state (CBM) at    -1.65629877 eV
  | Occupation number:      0.00000000

  Overall HOMO-LUMO gap:      3.86514023 eV.

  Total energy components:
  | Sum of eigenvalues            :        -180.58954746 Ha       -4914.09161256 eV
  | XC energy correction          :         -42.64227271 Ha       -1160.35527864 eV
  | XC potential correction       :          54.82336864 Ha        1491.81976375 eV
  | Free-atom electrostatic energy:        -146.86291607 Ha       -3996.34327811 eV
  | Hartree energy correction     :          -8.20566490 Ha        -223.28750265 eV
  | vdW energy correction         :           0.00000000 Ha           0.00000000 eV
  | Entropy correction            :           0.00000000 Ha           0.00000000 eV
  | ---------------------------
  | Total energy                  :        -323.47703250 Ha       -8802.25790821 eV
  | Total energy, T -> 0          :        -323.47703250 Ha       -8802.25790821 eV  <-- do not rely on this value for anything but (periodic) metals
  | Electronic free energy        :        -323.47703250 Ha       -8802.25790821 eV

  Derived energy quantities:
  | Kinetic energy                :         322.69822519 Ha        8781.06548325 eV
  | Electrostatic energy          :        -603.53298498 Ha      -16422.96811282 eV
  | Energy correction for multipole
  | error in Hartree potential    :           0.04106685 Ha           1.11748590 eV
  | Sum of eigenvalues per atom                           :        -378.00704712 eV
  | Total energy (T->0) per atom                          :        -677.09676217 eV  <-- do not rely on this value for anything but (periodic) metals
  | Electronic free energy per atom                       :        -677.09676217 eV

  Self-consistency convergence accuracy:
  | Change of charge density      :  0.2036E-01
  | Change of sum of eigenvalues  : -0.5921E+01 eV
  | Change of total energy        :  0.7880E-02 eV

  End self-consistency iteration #     5       :  max(cpu_time)    wall_clock(cpu1)
  | Time for this iteration                    :        1.187 s           1.189 s
  | Charge density update                      :        0.386 s           0.386 s
  | Density mixing                             :        0.011 s           0.011 s
  | Hartree multipole update                   :        0.009 s           0.009 s
  | Hartree multipole summation                :        0.282 s           0.282 s
  | Integration                                :        0.498 s           0.498 s
  | Solution of K.-S. eqns.                    :        0.002 s           0.002 s
  | Total energy evaluation                    :        0.000 s           0.000 s

  Partial memory accounting:
  | Current value for overall tracked memory usage on task 0  :           0.166 MB
  | Peak value for overall tracked memory usage on task 0     :           0.691 MB after allocating gradient_basis_wave
  | Largest tracked array allocation on task 0 so far         :           0.394 MB  when allocating gradient_basis_wave
  Note:  These values currently only include a subset of arrays which are explicitly tracked.
  The "true" memory usage will be greater.
------------------------------------------------------------

------------------------------------------------------------
          Begin self-consistency iteration #    6

  Date     :  20200710, Time     :  151339.950
------------------------------------------------------------
  Evaluating new KS density.
  Integration grid: deviation in total charge (<rho> - N_e) =  -7.105427E-15
  Pulay mixing of updated and previous charge densities.

  Evaluating partitioned Hartree potential by multipole expansion.
  | Analytical far-field extrapolation by fixed multipoles:
  | Hartree multipole sum: apparent total charge =  -0.476518E-03
  Summing up the Hartree potential.
  Time summed over all CPUs for potential: real work        0.282 s, elapsed        0.282 s
  | RMS charge density error from multipole expansion :   0.256026E-01

  Integrating Hamiltonian matrix: batch-based integration.
  Time summed over all CPUs for integration: real work        0.497 s, elapsed        0.497 s

  Updating Kohn-Sham eigenvalues and eigenvectors using ELSI and the ELPA eigensolver.
  Finished Cholesky decomposition
  | Time :     0.000 s
  Finished transformation to standard eigenproblem
  | Time :     0.000 s
  Starting LAPACK eigensolver
  Finished solving standard eigenproblem
  | Time :     0.001 s
  Finished back-transformation of eigenvectors
  | Time :     0.000 s

  Obtaining occupation numbers and chemical potential using ELSI.
  | Chemical potential (Fermi level):    -3.58071130eV
  Highest occupied state (VBM) at     -5.47827240 eV
  | Occupation number:      2.00000000

  Lowest unoccupied state (CBM) at    -1.65896781 eV
  | Occupation number:      0.00000000

  Overall HOMO-LUMO gap:      3.81930459 eV.

  Total energy components:
  | Sum of eigenvalues            :        -180.55999544 Ha       -4913.28746126 eV
  | XC energy correction          :         -42.64532250 Ha       -1160.43826775 eV
  | XC potential correction       :          54.82730105 Ha        1491.92676991 eV
  | Free-atom electrostatic energy:        -146.86291607 Ha       -3996.34327811 eV
  | Hartree energy correction     :          -8.23606058 Ha        -224.11461108 eV
  | vdW energy correction         :           0.00000000 Ha           0.00000000 eV
  | Entropy correction            :           0.00000000 Ha           0.00000000 eV
  | ---------------------------
  | Total energy                  :        -323.47699355 Ha       -8802.25684829 eV
  | Total energy, T -> 0          :        -323.47699355 Ha       -8802.25684829 eV  <-- do not rely on this value for anything but (periodic) metals
  | Electronic free energy        :        -323.47699355 Ha       -8802.25684829 eV

  Derived energy quantities:
  | Kinetic energy                :         322.63523647 Ha        8779.35147274 eV
  | Electrostatic energy          :        -603.46690751 Ha      -16421.17005328 eV
  | Energy correction for multipole
  | error in Hartree potential    :           0.04156948 Ha           1.13116309 eV
  | Sum of eigenvalues per atom                           :        -377.94518933 eV
  | Total energy (T->0) per atom                          :        -677.09668064 eV  <-- do not rely on this value for anything but (periodic) metals
  | Electronic free energy per atom                       :        -677.09668064 eV

  Self-consistency convergence accuracy:
  | Change of charge density      :  0.1061E-01
  | Change of sum of eigenvalues  :  0.8042E+00 eV
  | Change of total energy        :  0.1060E-02 eV

  End self-consistency iteration #     6       :  max(cpu_time)    wall_clock(cpu1)
  | Time for this iteration                    :        1.188 s           1.195 s
  | Charge density update                      :        0.386 s           0.392 s
  | Density mixing                             :        0.012 s           0.012 s
  | Hartree multipole update                   :        0.009 s           0.009 s
  | Hartree multipole summation                :        0.282 s           0.282 s
  | Integration                                :        0.497 s           0.498 s
  | Solution of K.-S. eqns.                    :        0.002 s           0.002 s
  | Total energy evaluation                    :        0.000 s           0.000 s

  Partial memory accounting:
  | Current value for overall tracked memory usage on task 0  :           0.166 MB
  | Peak value for overall tracked memory usage on task 0     :           0.691 MB after allocating gradient_basis_wave
  | Largest tracked array allocation on task 0 so far         :           0.394 MB  when allocating gradient_basis_wave
  Note:  These values currently only include a subset of arrays which are explicitly tracked.
  The "true" memory usage will be greater.
------------------------------------------------------------

------------------------------------------------------------
          Begin self-consistency iteration #    7

  Date     :  20200710, Time     :  151341.146
------------------------------------------------------------
  Evaluating new KS density.
  Integration grid: deviation in total charge (<rho> - N_e) =  -4.263256E-14
  Pulay mixing of updated and previous charge densities.

  Evaluating partitioned Hartree potential by multipole expansion.
  | Analytical far-field extrapolation by fixed multipoles:
  | Hartree multipole sum: apparent total charge =  -0.477129E-03
  Summing up the Hartree potential.
  Time summed over all CPUs for potential: real work        0.282 s, elapsed        0.282 s
  | RMS charge density error from multipole expansion :   0.256900E-01

  Integrating Hamiltonian matrix: batch-based integration.
  Time summed over all CPUs for integration: real work        0.499 s, elapsed        0.499 s

  Updating Kohn-Sham eigenvalues and eigenvectors using ELSI and the ELPA eigensolver.
  Finished Cholesky decomposition
  | Time :     0.000 s
  Finished transformation to standard eigenproblem
  | Time :     0.000 s
  Starting LAPACK eigensolver
  Finished solving standard eigenproblem
  | Time :     0.001 s
  Finished back-transformation of eigenvectors
  | Time :     0.000 s

[...]
  |   Hirshfeld dipole moment :      0.05818466
  |   Hirshfeld second moments:      0.01867942      -0.02967065      -0.01786144
  |                                 -0.02967065      -0.02385404       0.00757594
  |                                 -0.01786144       0.00757594      -0.01847891
  ----------------------------------------------------------------------
  | Atom    12: O
  |   Hirshfeld charge        :     -0.16725859
  |   Free atom volume        :     23.61338643
  |   Hirshfeld volume        :     20.87494323
  |   Hirshfeld dipole vector :      0.00301245       0.03683162       0.02201196
  |   Hirshfeld dipole moment :      0.04301360
  |   Hirshfeld second moments:      0.11186205       0.00280517      -0.01275944
  |                                  0.00280517       0.03160898       0.00728291
  |                                 -0.01275944       0.00728291       0.02634315
  ----------------------------------------------------------------------
  | Atom    13: H
  |   Hirshfeld charge        :      0.18719737
  |   Free atom volume        :      9.95071624
  |   Hirshfeld volume        :      6.00195062
  |   Hirshfeld dipole vector :     -0.12201841       0.02762054       0.03618249
  |   Hirshfeld dipole moment :      0.13023271
  |   Hirshfeld second moments:      0.12533210       0.00441382      -0.00209525
  |                                  0.00441382       0.11964053       0.00194316
  |                                 -0.00209525       0.00194316       0.11294250
  ----------------------------------------------------------------------


  Total energy components:
  | Sum of eigenvalues            :        -180.56176019 Ha       -4913.33548247 eV
  | XC energy correction          :         -42.64168689 Ha       -1160.33933770 eV
  | XC potential correction       :          54.82268282 Ha        1491.80110160 eV
  | Free-atom electrostatic energy:        -146.86291607 Ha       -3996.34327811 eV
  | Hartree energy correction     :          -8.23328704 Ha        -224.03913932 eV
  | vdW energy correction         :          -0.00333146 Ha          -0.09065370 eV
  | Entropy correction            :           0.00000000 Ha           0.00000000 eV
  | ---------------------------
  | Total energy                  :        -323.48029883 Ha       -8802.34678970 eV
  | Total energy, T -> 0          :        -323.48029883 Ha       -8802.34678970 eV  <-- do not rely on this value for anything but (periodic) metals
  | Electronic free energy        :        -323.48029883 Ha       -8802.34678970 eV

  Derived energy quantities:
  | Kinetic energy                :         322.59767049 Ha        8778.32925043 eV
  | Electrostatic energy          :        -603.43295097 Ha      -16420.24604872 eV
  | Energy correction for multipole
  | error in Hartree potential    :           0.04160472 Ha           1.13212193 eV
  | Sum of eigenvalues per atom                           :        -377.94888327 eV
  | Total energy (T->0) per atom                          :        -677.10359921 eV  <-- do not rely on this value for anything but (periodic) metals
  | Electronic free energy per atom                       :        -677.10359921 eV

  atomic forces [eV/Ang]:
  -----------------------
  atom #    1
   Hellmann-Feynman              :  0.372634E+00 -0.474276E+00  0.650468E+00
   Ionic forces                  :  0.000000E+00  0.000000E+00  0.000000E+00
   Multipole                     : -0.695347E-02  0.195366E+00 -0.214402E+00
   Pulay + GGA                   : -0.851674E+00  0.263232E+00 -0.124019E+01
   Van der Waals                 :  0.700872E-02  0.585303E-02 -0.256758E-02
   ----------------------------------------------------------------
   Total forces(   1)            : -0.478985E+00 -0.982530E-02 -0.806693E+00
  atom #    2
   Hellmann-Feynman              :  0.260505E+00  0.752119E-01 -0.127944E+00
   Ionic forces                  :  0.000000E+00  0.000000E+00  0.000000E+00
   Multipole                     :  0.187392E+00  0.231956E-01 -0.151960E-02
   Pulay + GGA                   : -0.149438E+00  0.263614E-01  0.315516E-01
   Van der Waals                 :  0.343359E-02 -0.375266E-02 -0.620808E-02
   ----------------------------------------------------------------
   Total forces(   2)            :  0.301892E+00  0.121016E+00 -0.104121E+00
  atom #    3
   Hellmann-Feynman              :  0.183849E+01  0.111098E+02 -0.330361E+01
   Ionic forces                  :  0.000000E+00  0.000000E+00  0.000000E+00
   Multipole                     : -0.205256E+00  0.235059E+00 -0.858288E+00
   Pulay + GGA                   : -0.792272E+00 -0.105938E+02  0.483047E+01
   Van der Waals                 :  0.313443E-02 -0.584074E-02 -0.771782E-02
   ----------------------------------------------------------------
   Total forces(   3)            :  0.844098E+00  0.745245E+00  0.660848E+00
  atom #    4
   Hellmann-Feynman              : -0.248198E+00 -0.280535E+00 -0.700022E-01
   Ionic forces                  :  0.000000E+00  0.000000E+00  0.000000E+00
   Multipole                     :  0.135145E-01 -0.720799E-01 -0.947884E-01
   Pulay + GGA                   : -0.103210E+00  0.197914E+00  0.788248E-01
   Van der Waals                 :  0.309115E-03  0.703356E-02 -0.657315E-02
   ----------------------------------------------------------------
   Total forces(   4)            : -0.337585E+00 -0.147667E+00 -0.925389E-01
  atom #    5
   Hellmann-Feynman              : -0.132296E+00 -0.255696E+00 -0.155149E+00
   Ionic forces                  :  0.000000E+00  0.000000E+00  0.000000E+00
   Multipole                     : -0.800142E-01 -0.540433E-01 -0.537172E-01
   Pulay + GGA                   :  0.228806E+00  0.102951E+00 -0.395743E-01
   Van der Waals                 :  0.165285E-03  0.309337E-02 -0.126664E-01
   ----------------------------------------------------------------
   Total forces(   5)            :  0.166610E-01 -0.203695E+00 -0.261107E+00
  atom #    6
   Hellmann-Feynman              :  0.368312E+00 -0.346042E+00  0.411709E+00
   Ionic forces                  :  0.000000E+00  0.000000E+00  0.000000E+00
   Multipole                     : -0.148236E+00  0.652686E+00  0.241544E+00
   Pulay + GGA                   :  0.124025E-02 -0.676672E+00 -0.543082E+00
   Van der Waals                 : -0.126293E-02  0.569812E-02 -0.807095E-03
   ----------------------------------------------------------------
   Total forces(   6)            :  0.220053E+00 -0.364330E+00  0.109365E+00
  atom #    7
   Hellmann-Feynman              : -0.258898E+00 -0.401446E-01 -0.360236E-01
   Ionic forces                  :  0.000000E+00  0.000000E+00  0.000000E+00
   Multipole                     : -0.116313E+00  0.503073E-01  0.286578E-01
   Pulay + GGA                   :  0.110805E+00  0.444651E-01  0.106103E-01
   Van der Waals                 : -0.254602E-02  0.260377E-02  0.702815E-02
   ----------------------------------------------------------------
   Total forces(   7)            : -0.266952E+00  0.572317E-01  0.102726E-01
  atom #    8
   Hellmann-Feynman              :  0.230354E-01 -0.701762E-01  0.160193E+00
   Ionic forces                  :  0.000000E+00  0.000000E+00  0.000000E+00
   Multipole                     :  0.171214E-01  0.679328E-01  0.124421E+00
   Pulay + GGA                   : -0.369778E-01 -0.372321E-01 -0.914823E-01
   Van der Waals                 : -0.305913E-02  0.111531E-01  0.145013E-02
   ----------------------------------------------------------------
   Total forces(   8)            :  0.119879E-03 -0.283225E-01  0.194582E+00
  atom #    9
   Hellmann-Feynman              :  0.650629E-01  0.100285E-01 -0.187331E+00
   Ionic forces                  :  0.000000E+00  0.000000E+00  0.000000E+00
   Multipole                     :  0.217422E-01  0.133441E+00 -0.927110E-02
   Pulay + GGA                   : -0.501408E-01 -0.117330E+00  0.164654E-01
   Van der Waals                 : -0.293488E-02  0.206604E-02  0.341654E-02
   ----------------------------------------------------------------
   Total forces(   9)            :  0.337294E-01  0.282059E-01 -0.176720E+00
  atom #   10
   Hellmann-Feynman              :  0.367280E+01  0.583597E+01  0.222792E+01
   Ionic forces                  :  0.000000E+00  0.000000E+00  0.000000E+00
   Multipole                     :  0.811517E-01 -0.505335E-01  0.258159E+00
   Pulay + GGA                   : -0.123190E+01 -0.371356E+01 -0.527168E+00
   Van der Waals                 :  0.318853E-02 -0.157939E-01  0.948154E-02
   ----------------------------------------------------------------
   Total forces(  10)            :  0.252524E+01  0.205609E+01  0.196839E+01
  atom #   11
   Hellmann-Feynman              :  0.399291E+01 -0.220492E+01  0.137287E+02
   Ionic forces                  :  0.000000E+00  0.000000E+00  0.000000E+00
   Multipole                     :  0.652814E-01 -0.655212E+00  0.814104E+00
   Pulay + GGA                   : -0.332373E+01  0.351349E+01 -0.133805E+02
   Van der Waals                 : -0.178950E-02 -0.116433E-01  0.221501E-02
   ----------------------------------------------------------------
   Total forces(  11)            :  0.732680E+00  0.641717E+00  0.116449E+01
  atom #   12
   Hellmann-Feynman              :  0.149036E+01 -0.102395E+02 -0.121625E+02
   Ionic forces                  :  0.000000E+00  0.000000E+00  0.000000E+00
   Multipole                     : -0.640589E+00 -0.141316E+01 -0.488548E+00
   Pulay + GGA                   : -0.365495E+01  0.973387E+01  0.102256E+02
   Van der Waals                 : -0.178121E-02  0.110859E-03  0.106188E-01
   ----------------------------------------------------------------
   Total forces(  12)            : -0.280696E+01 -0.191865E+01 -0.241481E+01
  atom #   13
   Hellmann-Feynman              : -0.110509E+01 -0.827646E+00 -0.137292E+00
   Ionic forces                  :  0.000000E+00  0.000000E+00  0.000000E+00
   Multipole                     : -0.552971E-01  0.100419E-01  0.882071E-02
   Pulay + GGA                   :  0.374750E+00 -0.160320E+00 -0.127655E+00
   Van der Waals                 : -0.386601E-02 -0.581208E-03  0.232995E-02
   ----------------------------------------------------------------
   Total forces(  13)            : -0.789505E+00 -0.978506E+00 -0.253797E+00

  Timings for VdW correction (Tkatchenko-Scheffler 2009 or later):
  | CPU time:        0.090 s, Wall clock time:        0.091 s.
  Removing unitary transformations (pure translations, rotations) from forces on atoms.
  Atomic forces before filtering:
  | Net force on center of mass :  -0.550367E-02 -0.149789E-02 -0.183541E-02 eV/A
  | Net torque on center of mass:  -0.626581E-02  0.324761E-02 -0.955142E-02 eV
  Atomic forces after filtering:
  | Net force on center of mass :   0.356812E-15 -0.178406E-15  0.446015E-16 eV/A
  | Net torque on center of mass:   0.160494E-14 -0.991289E-15  0.169935E-14 eV

  Energy and forces in a compact form:
  | Total energy uncorrected      :         -0.880234678969620E+04 eV
  | Total energy corrected        :         -0.880234678969620E+04 eV  <-- do not rely on this value for anything but (periodic) metals
  | Electronic free energy        :         -0.880234678969620E+04 eV
  Total atomic forces (unitary forces cleaned) [eV/Ang]:
  |   1         -0.478592957930296E+00         -0.952815904463098E-02         -0.806482047603324E+00
  |   2          0.302283844146879E+00          0.121653715801993E+00         -0.103808684420669E+00
  |   3          0.844619753098204E+00          0.745617085776500E+00          0.661015489007833E+00
  |   4         -0.336809544921457E+00         -0.147033038351301E+00         -0.924238694299615E-01
  |   5          0.172729748762187E-01         -0.203624647461920E+00         -0.261075620276457E+00
  |   6          0.219984995471559E+00         -0.364303086890397E+00          0.109730576996943E+00
  |   7         -0.267030070523234E+00          0.569162282197557E-01          0.105424250519605E-01
  |   8         -0.472196493525127E-04         -0.283465877546097E-01          0.194983437135774E+00
  |   9          0.334277132079447E-01          0.284257199109968E-01         -0.176178347569032E+00
  |  10          0.252596897428384E+01          0.205614415551775E+01          0.196836293104181E+01
  |  11          0.733385457863831E+00          0.641682807191841E+00          0.116444019304473E+01
  |  12         -0.280590566784006E+01         -0.191871190575099E+01         -0.241503556155550E+01
  |  13         -0.788558252084069E+00         -0.978892287164994E+00         -0.254070921424110E+00

  ------------------------------------ 
  Start decomposition of the XC Energy 
  ------------------------------------ 
  X and C from original XC functional choice 
  Hartree-Fock Energy :          0.000000000 Ha              0.000000000 eV
  X Energy            :        -41.041005896 Ha          -1116.782591698 eV
  C Energy            :         -1.600680995 Ha            -43.556746007 eV
  Total XC Energy     :        -42.641686890 Ha          -1160.339337705 eV
  ------------------------------------ 
  LDA X and C from self-consistent density 
  X Energy LDA        :        -37.259557986 Ha          -1013.884158655 eV
  C Energy LDA        :         -3.138765596 Ha            -85.410157478 eV
  ------------------------------------ 
  End decomposition of the XC Energy 
  ------------------------------------ 

------------------------------------------------------------

------------------------------------------------------------------------------
  Final output of selected total energy values:

  The following output summarizes some interesting total energy values
  at the end of a run (AFTER all relaxation, molecular dynamics, etc.).

  | Total energy of the DFT / Hartree-Fock s.c.f. calculation      :          -8802.346789696 eV
  | Final zero-broadening corrected energy (caution - metals only) :          -8802.346789696 eV
  | For reference only, the value of 1 Hartree used in FHI-aims is :             27.211384500 eV

  Before relying on these values, please be sure to understand exactly which
  total energy value is referred to by a given number. Different objects may
  all carry the same name 'total energy'. Definitions:

  Total energy of the DFT / Hartree-Fock s.c.f. calculation:
  | Note that this energy does not include ANY quantities calculated after the
  | s.c.f. cycle, in particular not ANY RPA, MP2, etc. many-body perturbation terms.

  Final zero-broadening corrected energy:
  | For metallic systems only, a broadening of the occupation numbers at the Fermi
  | level can be extrapolated back to zero broadening by an electron-gas inspired
  | formula. For all systems that are not real metals, this value can be
  | meaningless and should be avoided.

------------------------------------------------------------------------------
  Methods described in the following list of references were used in this FHI-aims run.
  If you publish the results, please make sure to cite these reference if they apply.
  FHI-aims is an academic code, and for our developers (often, Ph.D. students
  and postdocs), scientific credit in the community is essential.
  Thank you for helping us!

  For any use of FHI-aims, please cite:

    Volker Blum, Ralf Gehrke, Felix Hanke, Paula Havu, Ville Havu,
    Xinguo Ren, Karsten Reuter, and Matthias Scheffler
    'Ab initio molecular simulations with numeric atom-centered orbitals'
    Computer Physics Communications 180, 2175-2196 (2009)
    http://dx.doi.org/10.1016/j.cpc.2009.06.022


  The scalable eigensolver library ELPA was used in your run.
  ELPA is essential especially for large systems on hundreds or thousands of CPUs.
  For ELPA, please cite:

    Andreas Marek, Volker Blum, Rainer Johanni, Ville Havu, Bruno Lang,
    Thomas Auckenthaler, Alexander Heinecke, Hans-Joachim Bungartz, and Hermann Lederer,
    'The ELPA Library - Scalable Parallel Eigenvalue Solutions
    for Electronic Structure Theory and Computational Science'
    The Journal of Physics: Condensed Matter 26, 213201 (2014).
    http://dx.doi.org/10.1088/0953-8984/26/21/213201


  The ELSI infrastructure was used in your run to solve the Kohn-Sham electronic structure.
  Please check out http://elsi-interchange.org to learn more.
  If scalability is important for your project, please acknowledge ELSI by citing:

    V. W-z. Yu, F. Corsetti, A. Garcia, W. P. Huhn, M. Jacquelin, W. Jia,
    B. Lange, L. Lin, J. Lu, W. Mi, A. Seifitokaldani, A. Vazquez-Mayagoitia,
    C. Yang, H. Yang, and V. Blum
    'ELSI: A unified software interface for Kohn-Sham electronic structure solvers'
    Computer Physics Communications 222, 267-285 (2018).
    http://dx.doi.org/10.1016/j.cpc.2017.09.007


  For the real-space grid partitioning and parallelization used in this calculation, please cite:

    Ville Havu, Volker Blum, Paula Havu, and Matthias Scheffler,
    'Efficient O(N) integration for all-electron electronic structure calculation'
    'using numerically tabulated basis functions'
    Journal of Computational Physics 228, 8367-8379 (2009).
    http://dx.doi.org/10.1016/j.jcp.2009.08.008

  Of course, there are many other important community references, e.g., those cited in the
  above references. Our list is limited to references that describe implementations in the
  FHI-aims code. The reason is purely practical (length of this list) - please credit others as well.

------------------------------------------------------------
          Leaving FHI-aims.
          Date     :  20200710, Time     :  151355.439

          Computational steps:
          | Number of self-consistency cycles          :           16
          | Number of SCF (re)initializations          :            1

          Detailed time accounting                     :  max(cpu_time)    wall_clock(cpu1)
          | Total time                                 :       22.700 s          22.762 s
          | Preparation time                           :        0.148 s           0.150 s
          | Boundary condition initalization           :        0.000 s           0.000 s
          | Grid partitioning                          :        0.111 s           0.111 s
          | Preloading free-atom quantities on grid    :        0.002 s           0.002 s
          | Free-atom superposition energy             :        0.084 s           0.084 s
          | Total time for integrations                :        8.681 s           8.685 s
          | Total time for solution of K.-S. equations :        0.038 s           0.040 s
          | Total time for density & force components  :        7.127 s           7.139 s
          | Total time for mixing                      :        0.216 s           0.218 s
          | Total time for Hartree multipole update    :        0.140 s           0.141 s
          | Total time for Hartree multipole sum       :        5.751 s           5.760 s
          | Total time for total energy evaluation     :        0.003 s           0.002 s
          | Total time for vdW correction              :        0.090 s           0.091 s

          Partial memory accounting:
          | Residual value for overall tracked memory usage across tasks :           0.000 MB (should be 0.000 MB)
          | Peak values for overall tracked memory usage (after allocating hessian_basis_wave):
          |   Minimum:        1.611 MB (on task 1)
          |   Maximum:        1.611 MB (on task 1)
          |   Average:        1.611 MB
          | Largest tracked array allocation (hessian_basis_wave):
          |   Minimum:        0.787 MB (on task 1)
          |   Maximum:        0.787 MB (on task 1)
          |   Average:        0.787 MB
          Note:  These values currently only include a subset of arrays which are explicitly tracked.
          The "true" memory usage will be greater.

          Have a nice day.
------------------------------------------------------------
