  MPI-parallelism will be employed.
------------------------------------------------------------
          Invoking FHI-aims ...
          Version 171221_1
          Compiled on 2019/09/09 at 14:39:39 on host puhti-login2.bullx.

          When using FHI-aims, please cite the following reference:

          Volker Blum, Ralf Gehrke, Felix Hanke, Paula Havu,
          Ville Havu, Xinguo Ren, Karsten Reuter, and Matthias Scheffler,
          'Ab Initio Molecular Simulations with Numeric Atom-Centered Orbitals',
          Computer Physics Communications 180, 2175-2196 (2009)

          For any questions about FHI-aims, please visit the aimsclub website
          with its forums and wiki. Contributions to both the forums and the
          wiki are warmly encouraged - they are for you, and everyone is welcome there.

------------------------------------------------------------



  Date     :  20200805, Time     :  184301.440
  Time zero on CPU 1             :   0.111400000000000E-01  s.
  Internal wall clock time zero  :           365884981.440  s.

  FHI-aims created a unique identifier for this run for later identification
  aims_uuid : 9EBD66D7-1A2C-4392-AB87-10AD445BE39E

  Using        1 parallel tasks.
  Task        0 on host r18c03.bullx reporting.

  Performing system and environment tests:
  | Environment variable OMP_NUM_THREADS correctly set to 1.
  | Stacksize not measured: no C compiler
  | Checking for scalapack...
  | Testing pdtran()...
  | All pdtran() tests passed.

  Obtaining array dimensions for all initial allocations:
  
  -----------------------------------------------------------------------
  Parsing control.in (first pass over file, find array dimensions only).
  The contents of control.in will be repeated verbatim below
  unless switched off by setting 'verbatim_writeout .false.' .
  in the first line of control.in .
  -----------------------------------------------------------------------
  
  #########################################################################################
  #
  #  Volker Blum, FHI 2009 : Test run input file control.in for simple H2O
  #
  #########################################################################################
  #
  #  Physical model
  #
    xc                 pbe
    vdw_correction_hirshfeld
    spin               none
    relativistic       none
    charge             0.
  #
  #  SCF convergence
  #
    occupation_type    gaussian 0.01
    mixer              pulay
      n_max_pulay        10
      charge_mix_param   0.2
    sc_accuracy_rho    1E-5
    sc_accuracy_eev    1E-3
    sc_accuracy_etot   1E-6
    sc_accuracy_forces 1E-4
    sc_iter_limit      100
  #
  #  Relaxation
  #
  #  relax_geometry   bfgs 1.e-3
  #
  ################################################################################
  #
  #  FHI-aims code project
  #  VB, Fritz-Haber Institut, 2009
  #
  #  Suggested "light" defaults for H atom (to be pasted into control.in file)
  #  Be sure to double-check any results obtained with these settings for post-processing,
  #  e.g., with the "tight" defaults and larger basis sets.
  #
  ################################################################################
    species        H
  #     global species definitions
      nucleus             1
      mass                1.00794
  #
      l_hartree           4
  #
      cut_pot             3.5  1.5  1.0
      basis_dep_cutoff    1e-4
  #
      radial_base         24 5.0
      radial_multiplier   1
      angular_grids       specified
        division   0.2421   50
        division   0.3822  110
        division   0.4799  194
        division   0.5341  302
  #      division   0.5626  434
  #      division   0.5922  590
  #      division   0.6542  770
  #      division   0.6868 1202
  #      outer_grid  770
        outer_grid  302
  ################################################################################
  #
  #  Definition of "minimal" basis
  #
  ################################################################################
  #     valence basis states
      valence      1  s   1.
  #     ion occupancy
      ion_occ      1  s   0.5
  ################################################################################
  #
  #  Suggested additional basis functions. For production calculations,
  #  uncomment them one after another (the most important basis functions are
  #  listed first).
  #
  #  Basis constructed for dimers: 0.5 A, 0.7 A, 1.0 A, 1.5 A, 2.5 A
  #
  ################################################################################
  #  "First tier" - improvements: -1014.90 meV to -62.69 meV
       hydro 2 s 2.1
       hydro 2 p 3.5
  #  "Second tier" - improvements: -12.89 meV to -1.83 meV
  #     hydro 1 s 0.85
  #     hydro 2 p 3.7
  #     hydro 2 s 1.2
  #     hydro 3 d 7
  #  "Third tier" - improvements: -0.25 meV to -0.12 meV
  #     hydro 4 f 11.2
  #     hydro 3 p 4.8
  #     hydro 4 d 9
  #     hydro 3 s 3.2
  ################################################################################
  #
  #  FHI-aims code project
  #  VB, Fritz-Haber Institut, 2009
  #
  #  Suggested "light" defaults for C atom (to be pasted into control.in file)
  #  Be sure to double-check any results obtained with these settings for post-processing,
  #  e.g., with the "tight" defaults and larger basis sets.
  #
  ################################################################################
    species        C
  #     global species definitions
      nucleus             6
      mass                12.0107
  #
      l_hartree           4
  #
      cut_pot             3.5  1.5  1.0
      basis_dep_cutoff    1e-4
  #
      radial_base         34 5.0
      radial_multiplier   1
      angular_grids specified
        division   0.3326   50
        division   0.5710  110
        division   0.7727  194
        division   0.8772  302
  #      division   0.9334  434
  #      division   0.9625  590
  #      division   0.9924  770
  #      division   1.0230  974
  #      division   1.4589 1202
  #     outer_grid  974
       outer_grid 302
  ################################################################################
  #
  #  Definition of "minimal" basis
  #
  ################################################################################
  #     valence basis states
      valence      2  s   2.
      valence      2  p   2.
  #     ion occupancy
      ion_occ      2  s   1.
      ion_occ      2  p   1.
  ################################################################################
  #
  #  Suggested additional basis functions. For production calculations,
  #  uncomment them one after another (the most important basis functions are
  #  listed first).
  #
  #  Constructed for dimers: 1.0 A, 1.25 A, 1.5 A, 2.0 A, 3.0 A
  #
  ################################################################################
  #  "First tier" - improvements: -1214.57 meV to -155.61 meV
       hydro 2 p 1.7
       hydro 3 d 6
       hydro 2 s 4.9
  #  "Second tier" - improvements: -67.75 meV to -5.23 meV
  #     hydro 4 f 9.8
  #     hydro 3 p 5.2
  #     hydro 3 s 4.3
  #     hydro 5 g 14.4
  #     hydro 3 d 6.2
  #  "Third tier" - improvements: -2.43 meV to -0.60 meV
  #     hydro 2 p 5.6
  #     hydro 2 s 1.4
  #     hydro 3 d 4.9
  #     hydro 4 f 11.2
  #  "Fourth tier" - improvements: -0.39 meV to -0.18 meV
  #     hydro 2 p 2.1
  #     hydro 5 g 16.4
  #     hydro 4 d 13.2
  #     hydro 3 s 13.6
  #     hydro 4 f 17.6
  #  Further basis functions - improvements: -0.08 meV and below
  #     hydro 3 s 2
  #     hydro 3 p 6
  #     hydro 4 d 20
  ################################################################################
  #
  #  FHI-aims code project
  #  VB, Fritz-Haber Institut, 2009
  #
  #  Suggested "light" defaults for N atom (to be pasted into control.in file)
  #  Be sure to double-check any results obtained with these settings for post-processing,
  #  e.g., with the "tight" defaults and larger basis sets.
  #
  ################################################################################
    species        N
  #     global species definitions
      nucleus             7
      mass                14.0067
  #
      l_hartree           4
  #
      cut_pot             3.5  1.5  1.0
      basis_dep_cutoff    1e-4
  #
      radial_base         35 5.0
      radial_multiplier   1
      angular_grids       specified
        division   0.2599   50
        division   0.4601  110
        division   0.5885  194
        division   0.6503  302
  #      division   0.6939  434
  #      division   0.7396  590
  #      division   0.7632  770
  #      division   0.8122  974
  #      division   1.1604 1202
  #      outer_grid  974
        outer_grid  302
  ################################################################################
  #
  #  Definition of "minimal" basis
  #
  ################################################################################
  #     valence basis states
      valence      2  s   2.
      valence      2  p   3.
  #     ion occupancy
      ion_occ      2  s   1.
      ion_occ      2  p   2.
  ################################################################################
  #
  #  Suggested additional basis functions. For production calculations,
  #  uncomment them one after another (the most important basis functions are
  #  listed first).
  #
  #  Constructed for dimers: 1.0 A, 1.1 A, 1.5 A, 2.0 A, 3.0 A
  #
  ################################################################################
  #  "First tier" - improvements: -1193.42 meV to -220.60 meV
       hydro 2 p 1.8
       hydro 3 d 6.8
       hydro 3 s 5.8
  #  "Second tier" - improvements: -80.21 meV to -6.86 meV
  #     hydro 4 f 10.8
  #     hydro 3 p 5.8
  #     hydro 1 s 0.8
  #     hydro 5 g 16
  #     hydro 3 d 4.9
  #  "Third tier" - improvements: -4.29 meV to -0.53 meV
  #     hydro 3 s 16
  #     ionic 2 p auto
  #     hydro 3 d 6.6
  #     hydro 4 f 11.6
  #  "Fourth tier" - improvements: -0.75 meV to -0.25 meV
  #     hydro 2 p 4.5
  #     hydro 2 s 2.4
  #     hydro 5 g 14.4
  #     hydro 4 d 14.4
  #     hydro 4 f 16.8
  # Further basis functions - -0.21 meV and below
  #     hydro 3 p 14.8
  #     hydro 3 s 4.4
  #     hydro 3 d 19.6
  #     hydro 5 g 12.8
  ################################################################################
  #
  #  FHI-aims code project
  #  VB, Fritz-Haber Institut, 2009
  #
  #  Suggested "light" defaults for O atom (to be pasted into control.in file)
  #  Be sure to double-check any results obtained with these settings for post-processing,
  #  e.g., with the "tight" defaults and larger basis sets.
  #
  ################################################################################
    species        O
  #     global species definitions
      nucleus             8
      mass                15.9994
  #
      l_hartree           4
  #
      cut_pot             3.5  1.5  1.0
      basis_dep_cutoff    1e-4
  #
      radial_base         36 5.0
      radial_multiplier   1
       angular_grids specified
        division   0.2659   50
        division   0.4451  110
        division   0.6052  194
        division   0.7543  302
  #      division   0.8014  434
  #      division   0.8507  590
  #      division   0.8762  770
  #      division   0.9023  974
  #      division   1.2339 1202
  #      outer_grid 974
        outer_grid 302
  ################################################################################
  #
  #  Definition of "minimal" basis
  #
  ################################################################################
  #     valence basis states
      valence      2  s   2.
      valence      2  p   4.
  #     ion occupancy
      ion_occ      2  s   1.
      ion_occ      2  p   3.
  ################################################################################
  #
  #  Suggested additional basis functions. For production calculations,
  #  uncomment them one after another (the most important basis functions are
  #  listed first).
  #
  #  Constructed for dimers: 1.0 A, 1.208 A, 1.5 A, 2.0 A, 3.0 A
  #
  ################################################################################
  #  "First tier" - improvements: -699.05 meV to -159.38 meV
       hydro 2 p 1.8
       hydro 3 d 7.6
       hydro 3 s 6.4
  #  "Second tier" - improvements: -49.91 meV to -5.39 meV
  #     hydro 4 f 11.6
  #     hydro 3 p 6.2
  #     hydro 3 d 5.6
  #     hydro 5 g 17.6
  #     hydro 1 s 0.75
  #  "Third tier" - improvements: -2.83 meV to -0.50 meV
  #     ionic 2 p auto
  #     hydro 4 f 10.8
  #     hydro 4 d 4.7
  #     hydro 2 s 6.8
  #  "Fourth tier" - improvements: -0.40 meV to -0.12 meV
  #     hydro 3 p 5
  #     hydro 3 s 3.3
  #     hydro 5 g 15.6
  #     hydro 4 f 17.6
  #     hydro 4 d 14
  # Further basis functions - -0.08 meV and below
  #     hydro 3 s 2.1
  #     hydro 4 d 11.6
  #     hydro 3 p 16
  #     hydro 2 s 17.2
  
  -----------------------------------------------------------------------
  Completed first pass over input file control.in .
  -----------------------------------------------------------------------
  
  
  -----------------------------------------------------------------------
  Parsing geometry.in (first pass over file, find array dimensions only).
  The contents of geometry.in will be repeated verbatim below
  unless switched off by setting 'verbatim_writeout .false.' .
  in the first line of geometry.in .
  -----------------------------------------------------------------------
  
  atom  0.00000 0.00000 0.00000 C
  atom  1.09300 0.00000 0.00000 H
  atom  -0.47961 0.00000 -1.41207 N
  atom  -0.18183 0.86818 -1.85865 H
  atom  -0.07582 -0.80026 -1.89442 H
  atom  -0.49584 1.26211 0.72868 C
  atom  -1.58789 1.28919 0.74431 H
  atom  -0.13407 1.27425 1.75947 H
  atom  -0.13407 2.16087 0.22380 H
  atom  -0.39425 -1.28861 0.74398 C
  atom  -0.10189 -1.56493 1.88303 O
  atom  -1.10210 -2.13717 0.06896 O
  atom  -1.20068 -1.62089 -0.74878 H
  
  -----------------------------------------------------------------------
  Completed first pass over input file geometry.in .
  -----------------------------------------------------------------------
  

  Basic array size parameters:
  | Number of species                 :        4
  | Number of atoms                   :       13
  | Max. basis fn. angular momentum   :        2
  | Max. atomic/ionic basis occupied n:        2
  | Max. number of basis fn. types    :        2
  | Max. radial fns per species/type  :        3
  | Max. logarithmic grid size        :     1301
  | Max. radial integration grid size :       36
  | Max. angular integration grid size:      302
  | Max. angular grid division number :        8
  | Radial grid for Hartree potential :     1301
  | Number of spin channels           :        1

------------------------------------------------------------
          Reading file control.in.
------------------------------------------------------------
  XC: Using PBE gradient-corrected functionals.
  Spin treatment: No spin polarisation.
  Non-relativistic treatment of kinetic energy.
  Charge =   0.000000E+00: Neutral system requested explicitly.
  Occupation type: Gaussian broadening, width =   0.100000E-01 eV.
  Using pulay charge density mixing.
  Pulay mixing - number of memorized iterations:   10
  Charge density mixing - mixing parameter:     0.2000
  Convergence accuracy of self-consistent charge density:  0.1000E-04
  Convergence accuracy of sum of eigenvalues:  0.1000E-02
  Convergence accuracy of total energy:  0.1000E-05
  Convergence accuracy of forces:  0.1000E-03
  Maximum number of s.-c. iterations  :   100
 
  Reading configuration options for species H                   .
  | Found nuclear charge :   1.0000
  | Found atomic mass :    1.00794000000000      amu
  | Found l_max for Hartree potential  :   4
  | Found cutoff potl. onset [A], width [A], scale factor :    3.50000    1.50000    1.00000
  | Threshold for basis-dependent cutoff potential is   0.100000E-03
  | Found data for basic radial integration grid :    24 points, outermost radius =    5.000 A
  | Found multiplier for basic radial grid :   1
  | Found angular grid specification: user-specified.
  | Specified grid contains     5 separate shells.
  | Check grid settings after all constraints further below.
  | Found free-atom valence shell :  1 s   1.000
  | No ionic wave fns used. Skipping ion_occ.
  | Found hydrogenic basis function :  2 s   2.100
  | Found hydrogenic basis function :  2 p   3.500
  Species H                   : Missing cutoff potential type.
  Defaulting to exp(1/x)/(1-x)^2 type cutoff potential.
  Species H : No 'logarithmic' tag. Using default grid for free atom:
  | Default logarithmic grid data [bohr] : 0.1000E-03 0.1000E+03 0.1012E+01
  Species H : On-site basis accuracy parameter (for Gram-Schmidt orthonormalisation) not specified.
  Using default value basis_acc =  0.1000000E-03.
  Species H                   : Using default innermost maximum threshold i_radial=  2 for radial functions.
  Species H                   : Default cutoff onset for free atom density etc. : 0.35000000E+01 AA.
  Species H                   : Basic radial grid will be enhanced according to radial_multiplier =   1, to contain    24 grid points.
 
  Reading configuration options for species C                   .
  | Found nuclear charge :   6.0000
  | Found atomic mass :    12.0107000000000      amu
  | Found l_max for Hartree potential  :   4
  | Found cutoff potl. onset [A], width [A], scale factor :    3.50000    1.50000    1.00000
  | Threshold for basis-dependent cutoff potential is   0.100000E-03
  | Found data for basic radial integration grid :    34 points, outermost radius =    5.000 A
  | Found multiplier for basic radial grid :   1
  | Found angular grid specification: user-specified.
  | Specified grid contains     5 separate shells.
  | Check grid settings after all constraints further below.
  | Found free-atom valence shell :  2 s   2.000
  | Found free-atom valence shell :  2 p   2.000
  | No ionic wave fns used. Skipping ion_occ.
  | No ionic wave fns used. Skipping ion_occ.
  | Found hydrogenic basis function :  2 p   1.700
  | Found hydrogenic basis function :  3 d   6.000
  | Found hydrogenic basis function :  2 s   4.900
  Species C                   : Missing cutoff potential type.
  Defaulting to exp(1/x)/(1-x)^2 type cutoff potential.
  Species C : No 'logarithmic' tag. Using default grid for free atom:
  | Default logarithmic grid data [bohr] : 0.1000E-03 0.1000E+03 0.1012E+01
  Species C : On-site basis accuracy parameter (for Gram-Schmidt orthonormalisation) not specified.
  Using default value basis_acc =  0.1000000E-03.
  Species C                   : Using default innermost maximum threshold i_radial=  2 for radial functions.
  Species C                   : Default cutoff onset for free atom density etc. : 0.35000000E+01 AA.
  Species C                   : Basic radial grid will be enhanced according to radial_multiplier =   1, to contain    34 grid points.
 
  Reading configuration options for species N                   .
  | Found nuclear charge :   7.0000
  | Found atomic mass :    14.0067000000000      amu
  | Found l_max for Hartree potential  :   4
  | Found cutoff potl. onset [A], width [A], scale factor :    3.50000    1.50000    1.00000
  | Threshold for basis-dependent cutoff potential is   0.100000E-03
  | Found data for basic radial integration grid :    35 points, outermost radius =    5.000 A
  | Found multiplier for basic radial grid :   1
  | Found angular grid specification: user-specified.
  | Specified grid contains     5 separate shells.
  | Check grid settings after all constraints further below.
  | Found free-atom valence shell :  2 s   2.000
  | Found free-atom valence shell :  2 p   3.000
  | No ionic wave fns used. Skipping ion_occ.
  | No ionic wave fns used. Skipping ion_occ.
  | Found hydrogenic basis function :  2 p   1.800
  | Found hydrogenic basis function :  3 d   6.800
  | Found hydrogenic basis function :  3 s   5.800
  Species N                   : Missing cutoff potential type.
  Defaulting to exp(1/x)/(1-x)^2 type cutoff potential.
  Species N : No 'logarithmic' tag. Using default grid for free atom:
  | Default logarithmic grid data [bohr] : 0.1000E-03 0.1000E+03 0.1012E+01
  Species N : On-site basis accuracy parameter (for Gram-Schmidt orthonormalisation) not specified.
  Using default value basis_acc =  0.1000000E-03.
  Species N                   : Using default innermost maximum threshold i_radial=  2 for radial functions.
  Species N                   : Default cutoff onset for free atom density etc. : 0.35000000E+01 AA.
  Species N                   : Basic radial grid will be enhanced according to radial_multiplier =   1, to contain    35 grid points.
 
  Reading configuration options for species O                   .
  | Found nuclear charge :   8.0000
  | Found atomic mass :    15.9994000000000      amu
  | Found l_max for Hartree potential  :   4
  | Found cutoff potl. onset [A], width [A], scale factor :    3.50000    1.50000    1.00000
  | Threshold for basis-dependent cutoff potential is   0.100000E-03
  | Found data for basic radial integration grid :    36 points, outermost radius =    5.000 A
  | Found multiplier for basic radial grid :   1
  | Found angular grid specification: user-specified.
  | Specified grid contains     5 separate shells.
  | Check grid settings after all constraints further below.
  | Found free-atom valence shell :  2 s   2.000
  | Found free-atom valence shell :  2 p   4.000
  | No ionic wave fns used. Skipping ion_occ.
  | No ionic wave fns used. Skipping ion_occ.
  | Found hydrogenic basis function :  2 p   1.800
  | Found hydrogenic basis function :  3 d   7.600
  | Found hydrogenic basis function :  3 s   6.400
  Species O                   : Missing cutoff potential type.
  Defaulting to exp(1/x)/(1-x)^2 type cutoff potential.
  Species O : No 'logarithmic' tag. Using default grid for free atom:
  | Default logarithmic grid data [bohr] : 0.1000E-03 0.1000E+03 0.1012E+01
  Species O : On-site basis accuracy parameter (for Gram-Schmidt orthonormalisation) not specified.
  Using default value basis_acc =  0.1000000E-03.
  Species O                   : Using default innermost maximum threshold i_radial=  2 for radial functions.
  Species O                   : Default cutoff onset for free atom density etc. : 0.35000000E+01 AA.
  Species O                   : Basic radial grid will be enhanced according to radial_multiplier =   1, to contain    36 grid points.
 
  Finished reading input file 'control.in'. Consistency checks are next.
 
  MPI_IN_PLACE appears to work with this MPI implementation.
  | Keeping use_mpi_in_place .true. (see manual).
  Target number of points in a grid batch is not set. Defaulting to  100
  Method for grid partitioning is not set. Defaulting to parallel hash+maxmin partitioning.
  Batch size limit is not set. Defaulting to    200
  By default, will store active basis functions for each batch.
  If in need of memory, prune_basis_once .false. can be used to disable this option.
  communication_type for Hartree potential was not specified.
  Defaulting to calc_hartree .
  Pulay mixer: Number of initial linear mixing iterations not set.
  Defaulting to    0 iterations.
  Work space size for distributed Hartree potential not set.
  Defaulting to   0.200000E+03 MB.
  Algorithm-dependent basis array size parameters:
  | n_max_pulay                         :       10
  Presetting      1001 iterations before the initial mixing cycle
  is restarted anyway using the sc_init_iter criterion / keyword.
  Presetting a factor      1.000 between actual scf density residual
  and density convergence criterion sc_accuracy_rho below which sc_init_iter
  takes no effect.
  Geometry relaxation not requested: no relaxation will be performed.
  Handling of forces: Unphysical translation and rotation will be removed from forces.
  No accuracy limit for integral partition fn. given. Defaulting to  0.1000E-14.
  No threshold value for u(r) in integrations given. Defaulting to  0.1000E-05.
  No accuracy for occupation numbers given. Defaulting to  0.1000E-12.
  No threshold value for occupation numbers given. Defaulting to  0.0000E+00.
  No accuracy for fermi level given. Defaulting to  0.1000E-19.
  Maximum # of iterations to find E_F not set. Defaulting to  200.
  Preferred method for the eigenvalue solver ('KS_method') not specified in 'control.in'.
  Defaulting to serial version, 'lapack_fast'.
  Will not use alltoall communication since running on < 1024 CPUs.
  Threshold for basis singularities not set.
  Default threshold for basis singularities:  0.1000E-04
  partition_type (choice of integration weights) for integrals was not specified.
  | Using a version of the partition function of Stratmann and coworkers ('stratmann_smoother').
  | At each grid point, the set of atoms used to build the partition table is smoothly restricted to
  | only those atoms whose free-atom density would be non-zero at that grid point.
  Partitioning for Hartree potential was not defined. Using partition_type for integrals.
  | Adjusted default value of keyword multip_moments_threshold to:       0.10000000E-11
  | This value may affect high angular momentum components of the Hartree potential in periodic systems.
  No q(lm)/r^(l+1) cutoff set for long-range Hartree potential.
  | Using default value of  0.100000E-09 .
  | Verify using the multipole_threshold keyword.
  Defaulting to new monopole extrapolation.
  Density update method: automatic selection selected.
------------------------------------------------------------


------------------------------------------------------------
          Reading geometry description geometry.in.
------------------------------------------------------------
  Input structure read successfully.
  The structure contains       13 atoms,  and a total of         48.000 electrons.

  Input geometry:
  | No unit cell requested.
  | Atomic structure:
  |       Atom                x [A]            y [A]            z [A]
  |    1: Species C             0.00000000        0.00000000        0.00000000
  |    2: Species H             1.09300000        0.00000000        0.00000000
  |    3: Species N            -0.47961000        0.00000000       -1.41207000
  |    4: Species H            -0.18183000        0.86818000       -1.85865000
  |    5: Species H            -0.07582000       -0.80026000       -1.89442000
  |    6: Species C            -0.49584000        1.26211000        0.72868000
  |    7: Species H            -1.58789000        1.28919000        0.74431000
  |    8: Species H            -0.13407000        1.27425000        1.75947000
  |    9: Species H            -0.13407000        2.16087000        0.22380000
  |   10: Species C            -0.39425000       -1.28861000        0.74398000
  |   11: Species O            -0.10189000       -1.56493000        1.88303000
  |   12: Species O            -1.10210000       -2.13717000        0.06896000
  |   13: Species H            -1.20068000       -1.62089000       -0.74878000
  |

  | The smallest distance between any two atoms is         0.97209144 AA.
  |
  | The first atom of this pair is atom number                     12 .
  | The second atom of this pair is atom number                    13 .

  Number of empty states per atom not set in control.in - providing a guess from actual geometry.
  | Total number of empty states used during s.c.f. cycle:       29
  If you use a very high smearing, use empty_states (per atom!) in control.in to increase this value.

  Structure-dependent array size parameters: 
  | Maximum number of distinct radial functions  :       21
  | Maximum number of basis functions            :      119
  | Number of Kohn-Sham states (occupied + empty):       53
------------------------------------------------------------

------------------------------------------------------------
          Preparing all fixed parts of the calculation.
------------------------------------------------------------
  Determining machine precision:
    2.225073858507201E-308
  Setting up grids for atomic and cluster calculations.

  Creating wave function, potential, and density for free atoms.

  Species: H

  List of occupied orbitals and eigenvalues:
    n    l              occ      energy [Ha]    energy [eV]
    1    0           1.0000        -0.237589        -6.4651


  Species: C

  List of occupied orbitals and eigenvalues:
    n    l              occ      energy [Ha]    energy [eV]
    1    0           2.0000       -10.038835      -273.1706
    2    0           2.0000        -0.502696       -13.6791
    2    1           2.0000        -0.191971        -5.2238


  Species: N

  List of occupied orbitals and eigenvalues:
    n    l              occ      energy [Ha]    energy [eV]
    1    0           2.0000       -14.128000      -384.4424
    2    0           2.0000        -0.681077       -18.5330
    2    1           3.0000        -0.259788        -7.0692


  Species: O

  List of occupied orbitals and eigenvalues:
    n    l              occ      energy [Ha]    energy [eV]
    1    0           2.0000       -18.898188      -514.2459
    2    0           2.0000        -0.878505       -23.9053
    2    1           4.0000        -0.331779        -9.0282

  Creating fixed part of basis set: Ionic, confined, hydrogenic.
 
  H                    hydrogenic:
 
  List of hydrogenic basis orbitals: 
    n    l      effective z      eigenvalue [eV]  inner max. [A]     outer max. [A]     outer radius [A]   
    2    0         2.100000       -14.9728           0.193243           1.317208           4.583499
    2    1         3.500000       -41.6669           0.602369           0.602369           3.723403
 
 
  C                    hydrogenic:
 
  List of hydrogenic basis orbitals: 
    n    l      effective z      eigenvalue [eV]  inner max. [A]     outer max. [A]     outer radius [A]   
    2    1         1.700000        -9.7616           1.230570           1.230570           4.607917
    3    2         6.000000       -54.4224           0.792453           0.792453           3.883070
    2    0         4.900000       -81.6679           0.082559           0.562749           3.078220
 
 
  N                    hydrogenic:
 
  List of hydrogenic basis orbitals: 
    n    l      effective z      eigenvalue [eV]  inner max. [A]     outer max. [A]     outer radius [A]   
    2    1         1.800000       -10.9749           1.177451           1.177451           4.573712
    3    2         6.800000       -69.9026           0.704619           0.704619           3.538137
    3    0         5.800000       -50.8545           0.067388           1.191934           4.250239
 
 
  O                    hydrogenic:
 
  List of hydrogenic basis orbitals: 
    n    l      effective z      eigenvalue [eV]  inner max. [A]     outer max. [A]     outer radius [A]   
    2    1         1.800000       -10.9749           1.164242           1.164242           4.578029
    3    2         7.600000       -87.3180           0.624125           0.624125           3.251020
    3    0         6.400000       -61.9207           0.061167           1.081902           4.001998
 

  Adding cutoff potential to free-atom effective potential.
  Creating atomic-like basis functions for current effective potential.

  Species H                   :

  List of atomic basis orbitals and eigenvalues:
    n    l      energy [Ha]    energy [eV]    outer radius [A]
    1    0        -0.237589        -6.4651       4.527807


  Species C                   :

  List of atomic basis orbitals and eigenvalues:
    n    l      energy [Ha]    energy [eV]    outer radius [A]
    1    0       -10.038835      -273.1706       1.934409
    2    0        -0.502696       -13.6791       4.496620
    2    1        -0.191971        -5.2238       4.551928


  Species N                   :

  List of atomic basis orbitals and eigenvalues:
    n    l      energy [Ha]    energy [eV]    outer radius [A]
    1    0       -14.128000      -384.4424       1.637919
    2    0        -0.681077       -18.5330       4.463241
    2    1        -0.259788        -7.0692       4.518138


  Species O                   :

  List of atomic basis orbitals and eigenvalues:
    n    l      energy [Ha]    energy [eV]    outer radius [A]
    1    0       -18.898188      -514.2459       1.415765
    2    0        -0.878505       -23.9053       4.413171
    2    1        -0.331779        -9.0282       4.522403

  Assembling full basis from fixed parts.
  | Species H :   atomic orbital   1 s accepted.
  | Species H :    hydro orbital   2 s accepted.
  | Species H :    hydro orbital   2 p accepted.
  | Species C :   atomic orbital   1 s accepted.
  | Species C :    hydro orbital   2 s accepted.
  | Species C :   atomic orbital   2 s accepted.
  | Species C :   atomic orbital   2 p accepted.
  | Species C :    hydro orbital   2 p accepted.
  | Species C :    hydro orbital   3 d accepted.
  | Species N :   atomic orbital   1 s accepted.
  | Species N :    hydro orbital   3 s accepted.
  | Species N :   atomic orbital   2 s accepted.
  | Species N :   atomic orbital   2 p accepted.
  | Species N :    hydro orbital   2 p accepted.
  | Species N :    hydro orbital   3 d accepted.
  | Species O :   atomic orbital   1 s accepted.
  | Species O :    hydro orbital   3 s accepted.
  | Species O :   atomic orbital   2 s accepted.
  | Species O :   atomic orbital   2 p accepted.
  | Species O :    hydro orbital   2 p accepted.
  | Species O :    hydro orbital   3 d accepted.
 
  Basis size parameters after reduction:
  | Total number of radial functions:       21
  | Total number of basis functions :      119
 
  Per-task memory consumption for arrays in subroutine allocate_ext:
  |           5.250512MB.
  Testing on-site integration grid accuracy.
  |  Species  Function  <phi|h_atom|phi> (log., in eV)  <phi|h_atom|phi> (rad., in eV)
           1        1                 -6.4663192853                 -6.4651273558
           1        2                 13.7111246313                 13.7170609718
           1        3                 25.2673269279                 25.2674696378
           2        4               -273.1705927641               -273.1705631568
           2        5                -10.7109323383                -10.7107120029
           2        6                 17.4381822266                 17.4352413244
           2        7                 -5.2255326521                 -5.2270484734
           2        8                  8.6835629259                  8.6603288385
           2        9                 27.4952418996                 27.4953360207
           3       10               -384.4424306495               -384.4423701208
           3       11                 12.5842251816                 12.5842222903
           3       12                -15.7264628251                -15.7264433455
           3       13                 -7.0696854293                 -7.0701769954
           3       14                  8.8090390882                  8.7901077751
           3       15                 35.9586762123                 35.9588528632
           4       16               -514.2458688638               -514.2457643834
           4       17                 15.1795651126                 15.1795290741
           4       18                -21.5359799773                -21.5360846186
           4       19                 -9.0283069236                 -9.0284644067
           4       20                  8.3027758564                  8.2834874195
           4       21                 45.8339351984                 45.8338762259

  Preparing densities etc. for the partition functions (integrals / Hartree potential).

  Preparations completed.
  max(cpu_time)          :      0.146 s.
  Wall clock time (cpu1) :      0.147 s.
------------------------------------------------------------

------------------------------------------------------------
          Begin self-consistency loop: Initialization.

          Date     :  20200805, Time     :  184301.600
------------------------------------------------------------

  Initializing index lists of integration centers etc. from given atomic structure:
  | Number of centers in hartree potential         :        13
  | Number of centers in hartree multipole         :        13
  | Number of centers in electron density summation:        13
  | Number of centers in basis integrals           :        13
  | Number of centers in integrals                 :        13
  | Number of centers in hamiltonian               :        13
  Partitioning the integration grid into batches with parallel hashing+maxmin method.
  | Number of batches:      961
  | Maximal batch size:     139
  | Minimal batch size:      66
  | Average batch size:      72.472
  | Standard deviation of batch sizes:      16.900

  Integration load balanced across     1 MPI tasks.
  Work distribution over tasks is as follows:
  Task     0 has      69646 integration points.
  Initializing partition tables, free-atom densities, potentials, etc. across the integration grid (initialize_grid_storage).
  | initialize_grid_storage: Actual outermost partition radius vs. multipole_radius_free
  | (-- VB: in principle, multipole_radius_free should be larger, hence this output)
  | Species        1: Confinement radius =              4.999999999999999 AA, multipole_radius_free =              5.054417573612229 AA.
  | Species        1: outer_partition_radius set to              5.054417573612229 AA .
  | Species        2: Confinement radius =              4.999999999999999 AA, multipole_radius_free =              5.019602836301480 AA.
  | Species        2: outer_partition_radius set to              5.019602836301480 AA .
  | Species        3: Confinement radius =              4.999999999999999 AA, multipole_radius_free =              5.043624274424571 AA.
  | Species        3: outer_partition_radius set to              5.043624274424571 AA .
  | Species        4: Confinement radius =              4.999999999999999 AA, multipole_radius_free =              5.048384829883283 AA.
  | Species        4: outer_partition_radius set to              5.048384829883283 AA .
  | Original list of interatomic distances with          13 x         13 entries is created.
  | Net number of integration points:    69646
  | of which are non-zero points    :    59393
  Renormalizing the initial density to the exact electron count on the 3D integration grid.
  | Initial density: Formal number of electrons (from input files) :      48.0000000000
  | Integrated number of electrons on 3D grid     :      47.9999788347
  | Charge integration error                      :      -0.0000211653
  | Normalization factor for density and gradient :       1.0000004409
  Obtaining max. number of non-zero basis functions in each batch (get_n_compute_maxes).
  | Maximal number of non-zero basis functions:      119 in task     0
  Selecting the method for density update.
  Loop over occupied states selected for charge density update.
  Allocating        0.050 MB for KS_eigenvector
  Integrating Hamiltonian matrix: batch-based integration.
  Time summed over all CPUs for integration: real work        0.499 s, elapsed        0.499 s
  Integrating overlap matrix.
  Time summed over all CPUs for integration: real work        0.212 s, elapsed        0.212 s

  Updating Kohn-Sham eigenvalues and eigenvectors using ELSI and the ELPA eigensolver.
  Overlap matrix is nonsingular
  | Lowest eigenvalue of overlap  :  0.46E-02
  | Highest eigenvalue of overlap :  0.63E+01
  Finished singularity check of overlap matrix
  | Time :     0.002 s
  Finished Cholesky decomposition
  | Time :     0.000 s
  Finished transformation to standard eigenproblem
  | Time :     0.000 s
  Starting LAPACK eigensolver
  Finished solving standard eigenproblem
  | Time :     0.002 s
  Finished back-transformation of eigenvectors
  | Time :     0.000 s

  Obtaining occupation numbers and chemical potential using ELSI.
  | Chemical potential (Fermi level):    -9.20838106eV
  Writing Kohn-Sham eigenvalues.

  State    Occupation    Eigenvalue [Ha]    Eigenvalue [eV]
      1       2.00000         -19.007636         -517.22409
      2       2.00000         -18.977116         -516.39361
      3       2.00000         -14.247788         -387.70204
      4       2.00000         -10.166699         -276.64997
      5       2.00000         -10.142043         -275.97904
      6       2.00000         -10.131964         -275.70477
      7       2.00000          -1.181823          -32.15904
      8       2.00000          -1.101832          -29.98239
      9       2.00000          -0.993965          -27.04717
     10       2.00000          -0.861547          -23.44388
     11       2.00000          -0.753565          -20.50554
     12       2.00000          -0.681449          -18.54318
     13       2.00000          -0.640798          -17.43700
     14       2.00000          -0.603347          -16.41789
     15       2.00000          -0.592305          -16.11743
     16       2.00000          -0.558256          -15.19092
     17       2.00000          -0.550130          -14.96979
     18       2.00000          -0.529367          -14.40482
     19       2.00000          -0.513771          -13.98042
     20       2.00000          -0.502630          -13.67726
     21       2.00000          -0.479089          -13.03667
     22       2.00000          -0.429838          -11.69649
     23       2.00000          -0.408756          -11.12283
     24       2.00000          -0.387857          -10.55413
     25       0.00000          -0.147978           -4.02668
     26       0.00000          -0.066269           -1.80326
     27       0.00000          -0.029600           -0.80547
     28       0.00000          -0.001806           -0.04915
     29       0.00000          -0.000814           -0.02215
     30       0.00000           0.009316            0.25350
     31       0.00000           0.016834            0.45808
     32       0.00000           0.042056            1.14440
     33       0.00000           0.051066            1.38957
     34       0.00000           0.057377            1.56131
     35       0.00000           0.072902            1.98377
     36       0.00000           0.132008            3.59212
     37       0.00000           0.175600            4.77831
     38       0.00000           0.198063            5.38958
     39       0.00000           0.215341            5.85972
     40       0.00000           0.218702            5.95119
     41       0.00000           0.230838            6.28141
     42       0.00000           0.257584            7.00922
     43       0.00000           0.284981            7.75473
     44       0.00000           0.301348            8.20009
     45       0.00000           0.350386            9.53449
     46       0.00000           0.358315            9.75024
     47       0.00000           0.381204           10.37308
     48       0.00000           0.406601           11.06419
     49       0.00000           0.431880           11.75206
     50       0.00000           0.464308           12.63445
     51       0.00000           0.518540           14.11020
     52       0.00000           0.557383           15.16717
     53       0.00000           0.579757           15.77600

  Highest occupied state (VBM) at    -10.55413428 eV
  | Occupation number:      2.00000000

  Lowest unoccupied state (CBM) at    -4.02668351 eV
  | Occupation number:      0.00000000

  Overall HOMO-LUMO gap:      6.52745076 eV.
  Calculating total energy contributions from superposition of free atom densities.

  Total energy components:
  | Sum of eigenvalues            :        -188.88714456 Ha       -5139.88071760 eV
  | XC energy correction          :         -41.80594412 Ha       -1137.59761971 eV
  | XC potential correction       :          53.74376241 Ha        1462.44218351 eV
  | Free-atom electrostatic energy:        -146.81624004 Ha       -3995.07315867 eV
  | Hartree energy correction     :           0.00000000 Ha           0.00000000 eV
  | vdW energy correction         :           0.00000000 Ha           0.00000000 eV
  | Entropy correction            :           0.00000000 Ha           0.00000000 eV
  | ---------------------------
  | Total energy                  :        -323.76556630 Ha       -8810.10931247 eV
  | Total energy, T -> 0          :        -323.76556630 Ha       -8810.10931247 eV  <-- do not rely on this value for anything but (periodic) metals
  | Electronic free energy        :        -323.76556630 Ha       -8810.10931247 eV

  Derived energy quantities:
  | Kinetic energy                :         320.52668263 Ha        8721.97480348 eV
  | Electrostatic energy          :        -602.48630481 Ha      -16394.48649625 eV
  | Energy correction for multipole
  | error in Hartree potential    :           0.00000000 Ha           0.00000000 eV
  | Sum of eigenvalues per atom                           :        -395.37543982 eV
  | Total energy (T->0) per atom                          :        -677.70071634 eV  <-- do not rely on this value for anything but (periodic) metals
  | Electronic free energy per atom                       :        -677.70071634 eV
  Initialize hartree_potential_storage
  Max. number of atoms included in rho_multipole:           13

  End scf initialization - timings             :  max(cpu_time)    wall_clock(cpu1)
  | Time for scf. initialization               :        1.155 s           1.157 s
  | Boundary condition initialization          :        0.000 s           0.000 s
  | Integration                                :        0.711 s           0.712 s
  | Solution of K.-S. eqns.                    :        0.004 s           0.004 s
  | Grid partitioning                          :        0.111 s           0.112 s
  | Preloading free-atom quantities on grid    :        0.002 s           0.003 s
  | Free-atom superposition energy             :        0.085 s           0.085 s
  | Total energy evaluation                    :        0.000 s           0.000 s

  Partial memory accounting:
  | Current value for overall tracked memory usage on task 0  :           0.165 MB
  | Peak value for overall tracked memory usage on task 0     :           0.678 MB after allocating wave
  | Largest tracked array allocation on task 0 so far         :           0.132 MB  when allocating H_times_psi
  Note:  These values currently only include a subset of arrays which are explicitly tracked.
  The "true" memory usage will be greater.
------------------------------------------------------------

------------------------------------------------------------
          Begin self-consistency iteration #    1

  Date     :  20200805, Time     :  184302.757
------------------------------------------------------------
  Evaluating new KS density.
  Integration grid: deviation in total charge (<rho> - N_e) =  -7.105427E-15
  Pulay mixing of updated and previous charge densities.

  Evaluating partitioned Hartree potential by multipole expansion.
  | Analytical far-field extrapolation by fixed multipoles:
  | Hartree multipole sum: apparent total charge =  -0.123173E-03
  Summing up the Hartree potential.
  Time summed over all CPUs for potential: real work        0.281 s, elapsed        0.281 s
  | RMS charge density error from multipole expansion :   0.590664E-02

  Integrating Hamiltonian matrix: batch-based integration.
  Time summed over all CPUs for integration: real work        0.495 s, elapsed        0.495 s

  Updating Kohn-Sham eigenvalues and eigenvectors using ELSI and the ELPA eigensolver.
  Finished Cholesky decomposition
  | Time :     0.000 s
  Finished transformation to standard eigenproblem
  | Time :     0.000 s
  Starting LAPACK eigensolver
  Finished solving standard eigenproblem
  | Time :     0.001 s
  Finished back-transformation of eigenvectors
  | Time :     0.000 s

  Obtaining occupation numbers and chemical potential using ELSI.
  | Chemical potential (Fermi level):    -8.15245664eV
  Writing Kohn-Sham eigenvalues.

  State    Occupation    Eigenvalue [Ha]    Eigenvalue [eV]
      1       2.00000         -18.906272         -514.46583
      2       2.00000         -18.828277         -512.34348
      3       2.00000         -14.113457         -384.04671
      4       2.00000         -10.112505         -275.17526
      5       2.00000         -10.069012         -273.99174
      6       2.00000         -10.033571         -273.02735
      7       2.00000          -1.131415          -30.78738
      8       2.00000          -1.034341          -28.14586
      9       2.00000          -0.933990          -25.41517
     10       2.00000          -0.799644          -21.75942
     11       2.00000          -0.703119          -19.13284
     12       2.00000          -0.635674          -17.29758
     13       2.00000          -0.589477          -16.04048
     14       2.00000          -0.551978          -15.02009
     15       2.00000          -0.536388          -14.59585
     16       2.00000          -0.499180          -13.58339
     17       2.00000          -0.487479          -13.26498
     18       2.00000          -0.473911          -12.89577
     19       2.00000          -0.451299          -12.28046
     20       2.00000          -0.446499          -12.14986
     21       2.00000          -0.424389          -11.54820
     22       2.00000          -0.364967           -9.93127
     23       2.00000          -0.338352           -9.20702
     24       2.00000          -0.321005           -8.73499
     25       0.00000          -0.108294           -2.94683
     26       0.00000          -0.044973           -1.22378
     27       0.00000           0.009559            0.26013
     28       0.00000           0.027241            0.74127
     29       0.00000           0.029149            0.79317
     30       0.00000           0.039893            1.08553
     31       0.00000           0.053193            1.44747
     32       0.00000           0.073112            1.98948
     33       0.00000           0.085711            2.33233
     34       0.00000           0.094206            2.56347
     35       0.00000           0.112089            3.05010
     36       0.00000           0.161314            4.38959
     37       0.00000           0.203848            5.54700
     38       0.00000           0.228981            6.23090
     39       0.00000           0.243944            6.63806
     40       0.00000           0.249426            6.78722
     41       0.00000           0.262560            7.14461
     42       0.00000           0.289349            7.87359
     43       0.00000           0.319617            8.69721
     44       0.00000           0.341102            9.28186
     45       0.00000           0.390262           10.61958
     46       0.00000           0.399883           10.88137
     47       0.00000           0.419278           11.40913
     48       0.00000           0.440242           11.97961
     49       0.00000           0.464815           12.64826
     50       0.00000           0.498880           13.57522
     51       0.00000           0.552238           15.02716
     52       0.00000           0.589436           16.03937
     53       0.00000           0.615485           16.74820

  Highest occupied state (VBM) at     -8.73499123 eV
  | Occupation number:      2.00000000

  Lowest unoccupied state (CBM) at    -2.94683290 eV
  | Occupation number:      0.00000000

  Overall HOMO-LUMO gap:      5.78815833 eV.

  Total energy components:
  | Sum of eigenvalues            :        -185.57240125 Ha       -5049.68196293 eV
  | XC energy correction          :         -42.12856727 Ha       -1146.37664229 eV
  | XC potential correction       :          54.16325931 Ha        1473.85727483 eV
  | Free-atom electrostatic energy:        -146.81624004 Ha       -3995.07315867 eV
  | Hartree energy correction     :          -3.23690832 Ha         -88.08075695 eV
  | vdW energy correction         :           0.00000000 Ha           0.00000000 eV
  | Entropy correction            :           0.00000000 Ha           0.00000000 eV
  | ---------------------------
  | Total energy                  :        -323.59085757 Ha       -8805.35524602 eV
  | Total energy, T -> 0          :        -323.59085757 Ha       -8805.35524602 eV  <-- do not rely on this value for anything but (periodic) metals
  | Electronic free energy        :        -323.59085757 Ha       -8805.35524602 eV

  Derived energy quantities:
  | Kinetic energy                :         322.28336391 Ha        8769.77653335 eV
  | Electrostatic energy          :        -603.74565422 Ha      -16428.75513708 eV
  | Energy correction for multipole
  | error in Hartree potential    :           0.01153115 Ha           0.31377850 eV
  | Sum of eigenvalues per atom                           :        -388.43707407 eV
  | Total energy (T->0) per atom                          :        -677.33501892 eV  <-- do not rely on this value for anything but (periodic) metals
  | Electronic free energy per atom                       :        -677.33501892 eV

  Self-consistency convergence accuracy:
  | Change of charge density      :  0.5759E+00
  | Change of sum of eigenvalues  :  0.9020E+02 eV
  | Change of total energy        :  0.4754E+01 eV

  End self-consistency iteration #     1       :  max(cpu_time)    wall_clock(cpu1)
  | Time for this iteration                    :        1.189 s           1.190 s
  | Charge density update                      :        0.395 s           0.396 s
  | Density mixing                             :        0.005 s           0.005 s
  | Hartree multipole update                   :        0.009 s           0.009 s
  | Hartree multipole summation                :        0.282 s           0.282 s
  | Integration                                :        0.495 s           0.495 s
  | Solution of K.-S. eqns.                    :        0.002 s           0.003 s
  | Total energy evaluation                    :        0.000 s           0.000 s

  Partial memory accounting:
  | Current value for overall tracked memory usage on task 0  :           0.165 MB
  | Peak value for overall tracked memory usage on task 0     :           0.695 MB after allocating gradient_basis_wave
  | Largest tracked array allocation on task 0 so far         :           0.397 MB  when allocating gradient_basis_wave
  Note:  These values currently only include a subset of arrays which are explicitly tracked.
  The "true" memory usage will be greater.
------------------------------------------------------------

------------------------------------------------------------
          Begin self-consistency iteration #    2

  Date     :  20200805, Time     :  184303.948
------------------------------------------------------------
  Evaluating new KS density.
  Integration grid: deviation in total charge (<rho> - N_e) =   0.000000E+00
  Pulay mixing of updated and previous charge densities.

  Evaluating partitioned Hartree potential by multipole expansion.
  | Analytical far-field extrapolation by fixed multipoles:
  | Hartree multipole sum: apparent total charge =  -0.253456E-03
  Summing up the Hartree potential.
  Time summed over all CPUs for potential: real work        0.281 s, elapsed        0.281 s
  | RMS charge density error from multipole expansion :   0.140664E-01

  Integrating Hamiltonian matrix: batch-based integration.
  Time summed over all CPUs for integration: real work        0.495 s, elapsed        0.495 s

  Updating Kohn-Sham eigenvalues and eigenvectors using ELSI and the ELPA eigensolver.
  Finished Cholesky decomposition
  | Time :     0.000 s
  Finished transformation to standard eigenproblem
  | Time :     0.000 s
  Starting LAPACK eigensolver
  Finished solving standard eigenproblem
  | Time :     0.002 s
  Finished back-transformation of eigenvectors
  | Time :     0.000 s

  Obtaining occupation numbers and chemical potential using ELSI.
  | Chemical potential (Fermi level):    -2.79089489eV
  Highest occupied state (VBM) at     -6.86069726 eV
  | Occupation number:      2.00000000

  Lowest unoccupied state (CBM) at    -1.58258889 eV
  | Occupation number:      0.00000000

  Overall HOMO-LUMO gap:      5.27810837 eV.

  Checking to see if s.c.f. parameters should be adjusted.

  Total energy components:
  | Sum of eigenvalues            :        -182.07903521 Ha       -4954.62263642 eV
  | XC energy correction          :         -42.48167586 Ha       -1155.98521597 eV
  | XC potential correction       :          54.62079097 Ha        1486.30734475 eV
  | Free-atom electrostatic energy:        -146.81624004 Ha       -3995.07315867 eV
  | Hartree energy correction     :          -6.75948128 Ha        -183.93484404 eV
  | vdW energy correction         :           0.00000000 Ha           0.00000000 eV
  | Entropy correction            :           0.00000000 Ha           0.00000000 eV
  | ---------------------------
  | Total energy                  :        -323.51564142 Ha       -8803.30851036 eV
  | Total energy, T -> 0          :        -323.51564142 Ha       -8803.30851036 eV  <-- do not rely on this value for anything but (periodic) metals
  | Electronic free energy        :        -323.51564142 Ha       -8803.30851036 eV

  Derived energy quantities:
  | Kinetic energy                :         323.58152397 Ha        8805.10126585 eV
  | Electrostatic energy          :        -604.61548953 Ha      -16452.42456024 eV
  | Energy correction for multipole
  | error in Hartree potential    :           0.02532891 Ha           0.68923477 eV
  | Sum of eigenvalues per atom                           :        -381.12481819 eV
  | Total energy (T->0) per atom                          :        -677.17757772 eV  <-- do not rely on this value for anything but (periodic) metals
  | Electronic free energy per atom                       :        -677.17757772 eV

  Self-consistency convergence accuracy:
  | Change of charge density      :  0.3596E+00
  | Change of sum of eigenvalues  :  0.9506E+02 eV
  | Change of total energy        :  0.2047E+01 eV

  End self-consistency iteration #     2       :  max(cpu_time)    wall_clock(cpu1)
  | Time for this iteration                    :        1.181 s           1.182 s
  | Charge density update                      :        0.387 s           0.387 s
  | Density mixing                             :        0.007 s           0.007 s
  | Hartree multipole update                   :        0.009 s           0.009 s
  | Hartree multipole summation                :        0.281 s           0.281 s
  | Integration                                :        0.495 s           0.496 s
  | Solution of K.-S. eqns.                    :        0.002 s           0.002 s
  | Total energy evaluation                    :        0.000 s           0.000 s

  Partial memory accounting:
  | Current value for overall tracked memory usage on task 0  :           0.166 MB
  | Peak value for overall tracked memory usage on task 0     :           0.695 MB after allocating gradient_basis_wave
  | Largest tracked array allocation on task 0 so far         :           0.397 MB  when allocating gradient_basis_wave
  Note:  These values currently only include a subset of arrays which are explicitly tracked.
  The "true" memory usage will be greater.
------------------------------------------------------------

------------------------------------------------------------
          Begin self-consistency iteration #    3

  Date     :  20200805, Time     :  184305.131
------------------------------------------------------------
  Evaluating new KS density.
  Integration grid: deviation in total charge (<rho> - N_e) =  -5.684342E-14
  Pulay mixing of updated and previous charge densities.

  Evaluating partitioned Hartree potential by multipole expansion.
  | Analytical far-field extrapolation by fixed multipoles:
  | Hartree multipole sum: apparent total charge =  -0.347357E-03
  Summing up the Hartree potential.
  Time summed over all CPUs for potential: real work        0.281 s, elapsed        0.281 s
  | RMS charge density error from multipole expansion :   0.223357E-01

  Integrating Hamiltonian matrix: batch-based integration.
  Time summed over all CPUs for integration: real work        0.502 s, elapsed        0.502 s

  Updating Kohn-Sham eigenvalues and eigenvectors using ELSI and the ELPA eigensolver.
  Finished Cholesky decomposition
  | Time :     0.000 s
  Finished transformation to standard eigenproblem
  | Time :     0.000 s
  Starting LAPACK eigensolver
  Finished solving standard eigenproblem
  | Time :     0.002 s
  Finished back-transformation of eigenvectors
  | Time :     0.000 s

  Obtaining occupation numbers and chemical potential using ELSI.
  | Chemical potential (Fermi level):    -2.14179412eV
  Highest occupied state (VBM) at     -6.24053060 eV
  | Occupation number:      2.00000000

  Lowest unoccupied state (CBM) at    -0.83504202 eV
  | Occupation number:      0.00000000

  Overall HOMO-LUMO gap:      5.40548858 eV.

  Total energy components:
  | Sum of eigenvalues            :        -180.75256244 Ha       -4918.52747597 eV
  | XC energy correction          :         -42.63531081 Ha       -1160.16583572 eV
  | XC potential correction       :          54.81653808 Ha        1491.63389475 eV
  | Free-atom electrostatic energy:        -146.81624004 Ha       -3995.07315867 eV
  | Hartree energy correction     :          -8.11595956 Ha        -220.84649620 eV
  | vdW energy correction         :           0.00000000 Ha           0.00000000 eV
  | Entropy correction            :           0.00000000 Ha           0.00000000 eV
  | ---------------------------
  | Total energy                  :        -323.50353477 Ha       -8802.97907181 eV
  | Total energy, T -> 0          :        -323.50353477 Ha       -8802.97907181 eV  <-- do not rely on this value for anything but (periodic) metals
  | Electronic free energy        :        -323.50353477 Ha       -8802.97907181 eV

  Derived energy quantities:
  | Kinetic energy                :         323.18927226 Ha        8794.42755373 eV
  | Electrostatic energy          :        -604.05749622 Ha      -16437.24078981 eV
  | Energy correction for multipole
  | error in Hartree potential    :           0.03583103 Ha           0.97501186 eV
  | Sum of eigenvalues per atom                           :        -378.34826738 eV
  | Total energy (T->0) per atom                          :        -677.15223629 eV  <-- do not rely on this value for anything but (periodic) metals
  | Electronic free energy per atom                       :        -677.15223629 eV

  Self-consistency convergence accuracy:
  | Change of charge density      :  0.2008E+00
  | Change of sum of eigenvalues  :  0.3610E+02 eV
  | Change of total energy        :  0.3294E+00 eV

  End self-consistency iteration #     3       :  max(cpu_time)    wall_clock(cpu1)
  | Time for this iteration                    :        1.182 s           1.189 s
  | Charge density update                      :        0.387 s           0.387 s
  | Density mixing                             :        0.008 s           0.008 s
  | Hartree multipole update                   :        0.009 s           0.009 s
  | Hartree multipole summation                :        0.281 s           0.281 s
  | Integration                                :        0.495 s           0.502 s
  | Solution of K.-S. eqns.                    :        0.002 s           0.002 s
  | Total energy evaluation                    :        0.000 s           0.000 s

  Partial memory accounting:
  | Current value for overall tracked memory usage on task 0  :           0.166 MB
  | Peak value for overall tracked memory usage on task 0     :           0.695 MB after allocating gradient_basis_wave
  | Largest tracked array allocation on task 0 so far         :           0.397 MB  when allocating gradient_basis_wave
  Note:  These values currently only include a subset of arrays which are explicitly tracked.
  The "true" memory usage will be greater.
------------------------------------------------------------

------------------------------------------------------------
          Begin self-consistency iteration #    4

  Date     :  20200805, Time     :  184306.321
------------------------------------------------------------
  Evaluating new KS density.
  Integration grid: deviation in total charge (<rho> - N_e) =  -3.552714E-14
  Pulay mixing of updated and previous charge densities.

  Evaluating partitioned Hartree potential by multipole expansion.
  | Analytical far-field extrapolation by fixed multipoles:
  | Hartree multipole sum: apparent total charge =  -0.377303E-03
  Summing up the Hartree potential.
  Time summed over all CPUs for potential: real work        0.281 s, elapsed        0.281 s
  | RMS charge density error from multipole expansion :   0.258266E-01

  Integrating Hamiltonian matrix: batch-based integration.
  Time summed over all CPUs for integration: real work        0.495 s, elapsed        0.495 s

  Updating Kohn-Sham eigenvalues and eigenvectors using ELSI and the ELPA eigensolver.
  Finished Cholesky decomposition
  | Time :     0.000 s
  Finished transformation to standard eigenproblem
  | Time :     0.000 s
  Starting LAPACK eigensolver
  Finished solving standard eigenproblem
  | Time :     0.001 s
  Finished back-transformation of eigenvectors
  | Time :     0.000 s

  Obtaining occupation numbers and chemical potential using ELSI.
  | Chemical potential (Fermi level):    -2.06126098eV
  Highest occupied state (VBM) at     -5.93963782 eV
  | Occupation number:      2.00000000

  Lowest unoccupied state (CBM) at    -0.76409753 eV
  | Occupation number:      0.00000000

  Overall HOMO-LUMO gap:      5.17554029 eV.

  Total energy components:
  | Sum of eigenvalues            :        -180.66401704 Ha       -4916.11803306 eV
  | XC energy correction          :         -42.66984905 Ha       -1161.10566909 eV
  | XC potential correction       :          54.85971607 Ha        1492.80882741 eV
  | Free-atom electrostatic energy:        -146.81624004 Ha       -3995.07315867 eV
  | Hartree energy correction     :          -8.21221247 Ha        -223.46567121 eV
  | vdW energy correction         :           0.00000000 Ha           0.00000000 eV
  | Entropy correction            :           0.00000000 Ha           0.00000000 eV
  | ---------------------------
  | Total energy                  :        -323.50260255 Ha       -8802.95370463 eV
  | Total energy, T -> 0          :        -323.50260255 Ha       -8802.95370463 eV  <-- do not rely on this value for anything but (periodic) metals
  | Electronic free energy        :        -323.50260255 Ha       -8802.95370463 eV

  Derived energy quantities:
  | Kinetic energy                :         322.78900793 Ha        8783.53580713 eV
  | Electrostatic energy          :        -603.62176142 Ha      -16425.38384267 eV
  | Energy correction for multipole
  | error in Hartree potential    :           0.03970841 Ha           1.08052079 eV
  | Sum of eigenvalues per atom                           :        -378.16292562 eV
  | Total energy (T->0) per atom                          :        -677.15028497 eV  <-- do not rely on this value for anything but (periodic) metals
  | Electronic free energy per atom                       :        -677.15028497 eV

  Self-consistency convergence accuracy:
  | Change of charge density      :  0.6487E-01
  | Change of sum of eigenvalues  :  0.2409E+01 eV
  | Change of total energy        :  0.2537E-01 eV

  End self-consistency iteration #     4       :  max(cpu_time)    wall_clock(cpu1)
  | Time for this iteration                    :        1.184 s           1.185 s
  | Charge density update                      :        0.387 s           0.387 s
  | Density mixing                             :        0.009 s           0.010 s
  | Hartree multipole update                   :        0.009 s           0.008 s
  | Hartree multipole summation                :        0.281 s           0.282 s
  | Integration                                :        0.495 s           0.495 s
  | Solution of K.-S. eqns.                    :        0.002 s           0.002 s
  | Total energy evaluation                    :        0.000 s           0.000 s

  Partial memory accounting:
  | Current value for overall tracked memory usage on task 0  :           0.166 MB
  | Peak value for overall tracked memory usage on task 0     :           0.696 MB after allocating gradient_basis_wave
  | Largest tracked array allocation on task 0 so far         :           0.397 MB  when allocating gradient_basis_wave
  Note:  These values currently only include a subset of arrays which are explicitly tracked.
  The "true" memory usage will be greater.
------------------------------------------------------------

------------------------------------------------------------
          Begin self-consistency iteration #    5

  Date     :  20200805, Time     :  184307.507
------------------------------------------------------------
  Evaluating new KS density.
  Integration grid: deviation in total charge (<rho> - N_e) =  -7.105427E-15
  Pulay mixing of updated and previous charge densities.

  Evaluating partitioned Hartree potential by multipole expansion.
  | Analytical far-field extrapolation by fixed multipoles:
  | Hartree multipole sum: apparent total charge =  -0.372656E-03
  Summing up the Hartree potential.
  Time summed over all CPUs for potential: real work        0.280 s, elapsed        0.280 s
  | RMS charge density error from multipole expansion :   0.255716E-01

  Integrating Hamiltonian matrix: batch-based integration.
  Time summed over all CPUs for integration: real work        0.493 s, elapsed        0.493 s

  Updating Kohn-Sham eigenvalues and eigenvectors using ELSI and the ELPA eigensolver.
  Finished Cholesky decomposition
  | Time :     0.000 s
  Finished transformation to standard eigenproblem
  | Time :     0.000 s
  Starting LAPACK eigensolver
  Finished solving standard eigenproblem
  | Time :     0.001 s
  Finished back-transformation of eigenvectors
  | Time :     0.000 s

  Obtaining occupation numbers and chemical potential using ELSI.
  | Chemical potential (Fermi level):    -2.09788350eV
  Highest occupied state (VBM) at     -6.06872965 eV
  | Occupation number:      2.00000000

  Lowest unoccupied state (CBM) at    -0.82685486 eV
  | Occupation number:      0.00000000

  Overall HOMO-LUMO gap:      5.24187478 eV.

  Total energy components:
  | Sum of eigenvalues            :        -180.79756129 Ha       -4919.75195686 eV
  | XC energy correction          :         -42.65213949 Ha       -1160.62376742 eV
  | XC potential correction       :          54.83676890 Ha        1492.18440331 eV
  | Free-atom electrostatic energy:        -146.81624004 Ha       -3995.07315867 eV
  | Hartree energy correction     :          -8.07310832 Ha        -219.68045473 eV
  | vdW energy correction         :           0.00000000 Ha           0.00000000 eV
  | Entropy correction            :           0.00000000 Ha           0.00000000 eV
  | ---------------------------
  | Total energy                  :        -323.50228025 Ha       -8802.94493438 eV
  | Total energy, T -> 0          :        -323.50228025 Ha       -8802.94493438 eV  <-- do not rely on this value for anything but (periodic) metals
  | Electronic free energy        :        -323.50228025 Ha       -8802.94493438 eV

  Derived energy quantities:
  | Kinetic energy                :         322.71853665 Ha        8781.61818603 eV
  | Electrostatic energy          :        -603.56867740 Ha      -16423.93935299 eV
  | Energy correction for multipole
  | error in Hartree potential    :           0.03916140 Ha           1.06563600 eV
  | Sum of eigenvalues per atom                           :        -378.44245822 eV
  | Total energy (T->0) per atom                          :        -677.14961034 eV  <-- do not rely on this value for anything but (periodic) metals
  | Electronic free energy per atom                       :        -677.14961034 eV

  Self-consistency convergence accuracy:
  | Change of charge density      :  0.2359E-01
  | Change of sum of eigenvalues  : -0.3634E+01 eV
  | Change of total energy        :  0.8770E-02 eV

  End self-consistency iteration #     5       :  max(cpu_time)    wall_clock(cpu1)
  | Time for this iteration                    :        1.182 s           1.183 s
  | Charge density update                      :        0.386 s           0.386 s
  | Density mixing                             :        0.011 s           0.011 s
  | Hartree multipole update                   :        0.009 s           0.009 s
  | Hartree multipole summation                :        0.281 s           0.281 s
  | Integration                                :        0.494 s           0.493 s
  | Solution of K.-S. eqns.                    :        0.002 s           0.003 s
  | Total energy evaluation                    :        0.000 s           0.000 s

  Partial memory accounting:
  | Current value for overall tracked memory usage on task 0  :           0.166 MB
  | Peak value for overall tracked memory usage on task 0     :           0.696 MB after allocating gradient_basis_wave
  | Largest tracked array allocation on task 0 so far         :           0.397 MB  when allocating gradient_basis_wave
  Note:  These values currently only include a subset of arrays which are explicitly tracked.
  The "true" memory usage will be greater.
------------------------------------------------------------

------------------------------------------------------------
          Begin self-consistency iteration #    6

  Date     :  20200805, Time     :  184308.691
------------------------------------------------------------
  Evaluating new KS density.
  Integration grid: deviation in total charge (<rho> - N_e) =  -2.842171E-14
  Pulay mixing of updated and previous charge densities.

  Evaluating partitioned Hartree potential by multipole expansion.
  | Analytical far-field extrapolation by fixed multipoles:
  | Hartree multipole sum: apparent total charge =  -0.373520E-03
  Summing up the Hartree potential.
  Time summed over all CPUs for potential: real work        0.281 s, elapsed        0.281 s
  | RMS charge density error from multipole expansion :   0.258443E-01

  Integrating Hamiltonian matrix: batch-based integration.
  Time summed over all CPUs for integration: real work        0.494 s, elapsed        0.494 s

  Updating Kohn-Sham eigenvalues and eigenvectors using ELSI and the ELPA eigensolver.
  Finished Cholesky decomposition
  | Time :     0.000 s
  Finished transformation to standard eigenproblem
  | Time :     0.000 s
  Starting LAPACK eigensolver
  Finished solving standard eigenproblem
  | Time :     0.002 s
  Finished back-transformation of eigenvectors
  | Time :     0.000 s

  Obtaining occupation numbers and chemical potential using ELSI.
  | Chemical potential (Fermi level):    -2.11311575eV
  Highest occupied state (VBM) at     -6.10752170 eV
  | Occupation number:      2.00000000

  Lowest unoccupied state (CBM) at    -0.87034859 eV
  | Occupation number:      0.00000000

  Overall HOMO-LUMO gap:      5.23717311 eV.

  Total energy components:
  | Sum of eigenvalues            :        -180.86311345 Ha       -4921.53572183 eV
  | XC energy correction          :         -42.64341243 Ha       -1160.38629191 eV
  | XC potential correction       :          54.82542893 Ha        1491.87582710 eV
  | Free-atom electrostatic energy:        -146.81624004 Ha       -3995.07315867 eV
  | Hartree energy correction     :          -8.00485876 Ha        -217.82328964 eV
  | vdW energy correction         :           0.00000000 Ha           0.00000000 eV
  | Entropy correction            :           0.00000000 Ha           0.00000000 eV
  | ---------------------------
  | Total energy                  :        -323.50219574 Ha       -8802.94263495 eV
  | Total energy, T -> 0          :        -323.50219574 Ha       -8802.94263495 eV  <-- do not rely on this value for anything but (periodic) metals
  | Electronic free energy        :        -323.50219574 Ha       -8802.94263495 eV

  Derived energy quantities:
  | Kinetic energy                :         322.61825119 Ha        8778.88927998 eV
  | Electrostatic energy          :        -603.47703451 Ha      -16421.44562302 eV
  | Energy correction for multipole
  | error in Hartree potential    :           0.03918478 Ha           1.06627211 eV
  | Sum of eigenvalues per atom                           :        -378.57967091 eV
  | Total energy (T->0) per atom                          :        -677.14943346 eV  <-- do not rely on this value for anything but (periodic) metals
  | Electronic free energy per atom                       :        -677.14943346 eV

  Self-consistency convergence accuracy:
  | Change of charge density      :  0.1118E-01
  | Change of sum of eigenvalues  : -0.1784E+01 eV
  | Change of total energy        :  0.2299E-02 eV

  End self-consistency iteration #     6       :  max(cpu_time)    wall_clock(cpu1)
  | Time for this iteration                    :        1.184 s           1.184 s
  | Charge density update                      :        0.386 s           0.386 s
  | Density mixing                             :        0.012 s           0.012 s
  | Hartree multipole update                   :        0.009 s           0.009 s
  | Hartree multipole summation                :        0.281 s           0.281 s
  | Integration                                :        0.494 s           0.494 s
  | Solution of K.-S. eqns.                    :        0.002 s           0.002 s
  | Total energy evaluation                    :        0.000 s           0.000 s

  Partial memory accounting:
  | Current value for overall tracked memory usage on task 0  :           0.166 MB
  | Peak value for overall tracked memory usage on task 0     :           0.696 MB after allocating gradient_basis_wave
  | Largest tracked array allocation on task 0 so far         :           0.397 MB  when allocating gradient_basis_wave
  Note:  These values currently only include a subset of arrays which are explicitly tracked.
  The "true" memory usage will be greater.
------------------------------------------------------------

------------------------------------------------------------
          Begin self-consistency iteration #    7

  Date     :  20200805, Time     :  184309.876
------------------------------------------------------------
  Evaluating new KS density.
  Integration grid: deviation in total charge (<rho> - N_e) =   3.552714E-14
  Pulay mixing of updated and previous charge densities.

  Evaluating partitioned Hartree potential by multipole expansion.
  | Analytical far-field extrapolation by fixed multipoles:
  | Hartree multipole sum: apparent total charge =  -0.374905E-03
  Summing up the Hartree potential.
  Time summed over all CPUs for potential: real work        0.280 s, elapsed        0.280 s
  | RMS charge density error from multipole expansion :   0.260040E-01

  Integrating Hamiltonian matrix: batch-based integration.
  Time summed over all CPUs for integration: real work        0.493 s, elapsed        0.493 s

  Updating Kohn-Sham eigenvalues and eigenvectors using ELSI and the ELPA eigensolver.
  Finished Cholesky decomposition
  | Time :     0.000 s
  Finished transformation to standard eigenproblem
  | Time :     0.000 s
  Starting LAPACK eigensolver
  Finished solving standard eigenproblem
  | Time :     0.001 s
  Finished back-transformation of eigenvectors
  | Time :     0.000 s

[...]
  |   Hirshfeld dipole moment :      0.06273064
  |   Hirshfeld second moments:     -0.00139333      -0.02459519      -0.01482825
  |                                 -0.02459519      -0.02638576       0.00636656
  |                                 -0.01482825       0.00636656      -0.02223348
  ----------------------------------------------------------------------
  | Atom    12: O
  |   Hirshfeld charge        :     -0.14396330
  |   Free atom volume        :     23.61338643
  |   Hirshfeld volume        :     21.14205605
  |   Hirshfeld dipole vector :      0.01298890       0.03906031      -0.00942429
  |   Hirshfeld dipole moment :      0.04222839
  |   Hirshfeld second moments:      0.05657875      -0.01071248       0.01177567
  |                                 -0.01071248       0.02678603       0.00738985
  |                                  0.01177567       0.00738985       0.07692840
  ----------------------------------------------------------------------
  | Atom    13: H
  |   Hirshfeld charge        :      0.12737685
  |   Free atom volume        :      9.95071624
  |   Hirshfeld volume        :      7.18261427
  |   Hirshfeld dipole vector :     -0.02009401       0.00383408      -0.06906408
  |   Hirshfeld dipole moment :      0.07202996
  |   Hirshfeld second moments:      0.10283002      -0.00367045       0.00054612
  |                                 -0.00367045       0.05865794       0.03447609
  |                                  0.00054612       0.03447609       0.08660406
  ----------------------------------------------------------------------


  Total energy components:
  | Sum of eigenvalues            :        -180.84986490 Ha       -4921.17521050 eV
  | XC energy correction          :         -42.64196512 Ha       -1160.34690860 eV
  | XC potential correction       :          54.82362169 Ha        1491.82664943 eV
  | Free-atom electrostatic energy:        -146.81624004 Ha       -3995.07315867 eV
  | Hartree energy correction     :          -8.01773042 Ha        -218.17354525 eV
  | vdW energy correction         :          -0.00323440 Ha          -0.08801242 eV
  | Entropy correction            :           0.00000000 Ha           0.00000000 eV
  | ---------------------------
  | Total energy                  :        -323.50541319 Ha       -8803.03018601 eV
  | Total energy, T -> 0          :        -323.50541319 Ha       -8803.03018601 eV  <-- do not rely on this value for anything but (periodic) metals
  | Electronic free energy        :        -323.50541319 Ha       -8803.03018601 eV

  Derived energy quantities:
  | Kinetic energy                :         322.58322241 Ha        8777.93609823 eV
  | Electrostatic energy          :        -603.44343608 Ha      -16420.53136322 eV
  | Energy correction for multipole
  | error in Hartree potential    :           0.03925414 Ha           1.06815950 eV
  | Sum of eigenvalues per atom                           :        -378.55193927 eV
  | Total energy (T->0) per atom                          :        -677.15616815 eV  <-- do not rely on this value for anything but (periodic) metals
  | Electronic free energy per atom                       :        -677.15616815 eV

  atomic forces [eV/Ang]:
  -----------------------
  atom #    1
   Hellmann-Feynman              :  0.135833E+01  0.125376E+00  0.161736E+01
   Ionic forces                  :  0.000000E+00  0.000000E+00  0.000000E+00
   Multipole                     :  0.146042E+00  0.253959E+00 -0.298536E+00
   Pulay + GGA                   : -0.131823E+01  0.133160E+00 -0.148284E+01
   Van der Waals                 :  0.186996E-02  0.932493E-03 -0.105901E-02
   ----------------------------------------------------------------
   Total forces(   1)            :  0.188008E+00  0.513428E+00 -0.165069E+00
  atom #    2
   Hellmann-Feynman              :  0.411495E+00 -0.136272E-01  0.321414E+00
   Ionic forces                  :  0.000000E+00  0.000000E+00  0.000000E+00
   Multipole                     :  0.153151E+00  0.316568E-01 -0.342090E-01
   Pulay + GGA                   : -0.127547E+00  0.100808E-01  0.155773E-01
   Van der Waals                 :  0.869931E-02 -0.478767E-02 -0.113961E-02
   ----------------------------------------------------------------
   Total forces(   2)            :  0.445798E+00  0.233227E-01  0.301643E+00
  atom #    3
   Hellmann-Feynman              : -0.111561E+02 -0.185576E+01  0.164485E+01
   Ionic forces                  :  0.000000E+00  0.000000E+00  0.000000E+00
   Multipole                     : -0.136604E+00  0.126035E+00 -0.725731E+00
   Pulay + GGA                   :  0.108808E+02  0.134840E+01 -0.208815E-01
   Van der Waals                 :  0.359320E-02 -0.527672E-02 -0.870478E-02
   ----------------------------------------------------------------
   Total forces(   3)            : -0.408337E+00 -0.386598E+00  0.889533E+00
  atom #    4
   Hellmann-Feynman              :  0.240031E-01  0.946244E-02 -0.240182E+00
   Ionic forces                  :  0.000000E+00  0.000000E+00  0.000000E+00
   Multipole                     :  0.397389E-01  0.871303E-02 -0.755311E-01
   Pulay + GGA                   : -0.144572E+00 -0.158465E+00  0.930745E-01
   Van der Waals                 : -0.478572E-02 -0.739821E-02 -0.485207E-02
   ----------------------------------------------------------------
   Total forces(   4)            : -0.856152E-01 -0.147688E+00 -0.227490E+00
  atom #    5
   Hellmann-Feynman              :  0.557755E+00  0.960018E-01 -0.454297E+00
   Ionic forces                  :  0.000000E+00  0.000000E+00  0.000000E+00
   Multipole                     :  0.459651E-01 -0.518615E-01 -0.976561E-01
   Pulay + GGA                   : -0.862305E-01  0.188116E+00  0.603629E-01
   Van der Waals                 :  0.178773E-03  0.640526E-02 -0.733189E-02
   ----------------------------------------------------------------
   Total forces(   5)            :  0.517669E+00  0.238662E+00 -0.498922E+00
  atom #    6
   Hellmann-Feynman              : -0.337626E+00 -0.565890E+00  0.271472E+00
   Ionic forces                  :  0.000000E+00  0.000000E+00  0.000000E+00
   Multipole                     : -0.964337E-01  0.681310E+00  0.235091E+00
   Pulay + GGA                   :  0.483737E+00 -0.574036E+00 -0.587852E+00
   Van der Waals                 : -0.382226E-02  0.272079E-02 -0.201018E-02
   ----------------------------------------------------------------
   Total forces(   6)            :  0.458548E-01 -0.455895E+00 -0.832983E-01
  atom #    7
   Hellmann-Feynman              : -0.206150E+00 -0.329255E-01 -0.460917E-01
   Ionic forces                  :  0.000000E+00  0.000000E+00  0.000000E+00
   Multipole                     : -0.121822E+00  0.474452E-01  0.315923E-01
   Pulay + GGA                   :  0.115760E+00 -0.887216E-02 -0.105424E-01
   Van der Waals                 : -0.415977E-03  0.400848E-03  0.122618E-02
   ----------------------------------------------------------------
   Total forces(   7)            : -0.212628E+00  0.604838E-02 -0.238156E-01
  atom #    8
   Hellmann-Feynman              :  0.109376E+00 -0.802072E-01  0.843628E-01
   Ionic forces                  :  0.000000E+00  0.000000E+00  0.000000E+00
   Multipole                     :  0.136149E-01  0.691303E-01  0.131143E+00
   Pulay + GGA                   : -0.493918E-01 -0.468511E-01 -0.103514E+00
   Van der Waals                 : -0.265814E-02  0.113533E-01  0.973397E-03
   ----------------------------------------------------------------
   Total forces(   8)            :  0.709409E-01 -0.465747E-01  0.112965E+00
  atom #    9
   Hellmann-Feynman              :  0.118876E+00  0.828778E-01 -0.189894E+00
   Ionic forces                  :  0.000000E+00  0.000000E+00  0.000000E+00
   Multipole                     :  0.202574E-01  0.129784E+00 -0.203311E-02
   Pulay + GGA                   : -0.439946E-01 -0.560766E-01  0.839705E-01
   Van der Waals                 : -0.192911E-02  0.681716E-02  0.916304E-02
   ----------------------------------------------------------------
   Total forces(   9)            :  0.932094E-01  0.163402E+00 -0.987938E-01
  atom #   10
   Hellmann-Feynman              :  0.211085E+01  0.349095E+01  0.184976E+01
   Ionic forces                  :  0.000000E+00  0.000000E+00  0.000000E+00
   Multipole                     :  0.643160E-01 -0.132478E+00  0.213011E+00
   Pulay + GGA                   : -0.129706E+01 -0.248716E+01 -0.228260E+00
   Van der Waals                 :  0.217659E-02 -0.106395E-01  0.152201E-02
   ----------------------------------------------------------------
   Total forces(  10)            :  0.880285E+00  0.860668E+00  0.183603E+01
  atom #   11
   Hellmann-Feynman              :  0.413546E+01 -0.236419E+01  0.141537E+02
   Ionic forces                  :  0.000000E+00  0.000000E+00  0.000000E+00
   Multipole                     :  0.142696E+00 -0.581752E+00  0.980545E+00
   Pulay + GGA                   : -0.346645E+01  0.361163E+01 -0.141222E+02
   Van der Waals                 : -0.875451E-03 -0.122395E-01  0.713707E-02
   ----------------------------------------------------------------
   Total forces(  11)            :  0.810837E+00  0.653444E+00  0.101916E+01
  atom #   12
   Hellmann-Feynman              : -0.576921E+01 -0.127662E+02  0.106185E+01
   Ionic forces                  :  0.000000E+00  0.000000E+00  0.000000E+00
   Multipole                     : -0.916560E+00 -0.151756E+01  0.432894E-01
   Pulay + GGA                   :  0.547874E+01  0.131234E+02 -0.300993E+01
   Van der Waals                 : -0.165655E-02  0.388998E-02  0.790860E-02
   ----------------------------------------------------------------
   Total forces(  12)            : -0.120868E+01 -0.115649E+01 -0.189688E+01
  atom #   13
   Hellmann-Feynman              : -0.112513E+01 -0.213404E+00 -0.147163E+01
   Ionic forces                  :  0.000000E+00  0.000000E+00  0.000000E+00
   Multipole                     : -0.932985E-02  0.941770E-01 -0.868295E-01
   Pulay + GGA                   : -0.280074E-02 -0.152808E+00  0.388835E+00
   Van der Waals                 : -0.374626E-03  0.782181E-02 -0.283277E-02
   ----------------------------------------------------------------
   Total forces(  13)            : -0.113764E+01 -0.264213E+00 -0.117246E+01

  Timings for VdW correction (Tkatchenko-Scheffler 2009 or later):
  | CPU time:        0.092 s, Wall clock time:        0.093 s.
  Removing unitary transformations (pure translations, rotations) from forces on atoms.
  Atomic forces before filtering:
  | Net force on center of mass :  -0.299679E-03  0.151858E-02 -0.738809E-02 eV/A
  | Net torque on center of mass:   0.557134E-02 -0.123153E-02 -0.394173E-02 eV
  Atomic forces after filtering:
  | Net force on center of mass :   0.178406E-15 -0.312211E-15  0.356812E-15 eV/A
  | Net torque on center of mass:   0.896880E-15  0.151054E-14  0.000000E+00 eV

  Energy and forces in a compact form:
  | Total energy uncorrected      :         -0.880303018601172E+04 eV
  | Total energy corrected        :         -0.880303018601172E+04 eV  <-- do not rely on this value for anything but (periodic) metals
  | Electronic free energy        :         -0.880303018601172E+04 eV
  Total atomic forces (unitary forces cleaned) [eV/Ang]:
  |   1          0.188024035847266E+00          0.513362723482016E+00         -0.164526386905139E+00
  |   2          0.445813969164202E+00          0.234190534626043E-01          0.302125598409758E+00
  |   3         -0.408398470612722E+00         -0.386927970592293E+00          0.890101099505374E+00
  |   4         -0.858290067049099E-01         -0.148035532698709E+00         -0.227057438098387E+00
  |   5          0.517699236172339E+00          0.238325268207392E+00         -0.498265403243397E+00
  |   6          0.457240883480311E-01         -0.455932840168640E+00         -0.829024546972050E-01
  |   7         -0.212761984877390E+00          0.585150832258632E-02         -0.233639243867375E-01
  |   8          0.708645746196177E-01         -0.464174805298418E-01          0.113338994732874E+00
  |   9          0.929184590993879E-01          0.163348275110574E+00         -0.985413141126863E-01
  |  10          0.880531878662882E+00          0.860647693846530E+00          0.183677485526298E+01
  |  11          0.811186648934212E+00          0.653623283935782E+00          0.101992571673305E+01
  |  12         -0.120834842628623E+01         -0.115670641937324E+01         -0.189598349217715E+01
  |  13         -0.113742500236668E+01         -0.264557563004757E+00         -0.117162585102334E+01

  ------------------------------------ 
  Start decomposition of the XC Energy 
  ------------------------------------ 
  X and C from original XC functional choice 
  Hartree-Fock Energy :          0.000000000 Ha              0.000000000 eV
  X Energy            :        -41.039562855 Ha          -1116.743324552 eV
  C Energy            :         -1.602402261 Ha            -43.603584044 eV
  Total XC Energy     :        -42.641965116 Ha          -1160.346908595 eV
  ------------------------------------ 
  LDA X and C from self-consistent density 
  X Energy LDA        :        -37.260987492 Ha          -1013.923057482 eV
  C Energy LDA        :         -3.139092673 Ha            -85.419057696 eV
  ------------------------------------ 
  End decomposition of the XC Energy 
  ------------------------------------ 

------------------------------------------------------------

------------------------------------------------------------------------------
  Final output of selected total energy values:

  The following output summarizes some interesting total energy values
  at the end of a run (AFTER all relaxation, molecular dynamics, etc.).

  | Total energy of the DFT / Hartree-Fock s.c.f. calculation      :          -8803.030186012 eV
  | Final zero-broadening corrected energy (caution - metals only) :          -8803.030186012 eV
  | For reference only, the value of 1 Hartree used in FHI-aims is :             27.211384500 eV

  Before relying on these values, please be sure to understand exactly which
  total energy value is referred to by a given number. Different objects may
  all carry the same name 'total energy'. Definitions:

  Total energy of the DFT / Hartree-Fock s.c.f. calculation:
  | Note that this energy does not include ANY quantities calculated after the
  | s.c.f. cycle, in particular not ANY RPA, MP2, etc. many-body perturbation terms.

  Final zero-broadening corrected energy:
  | For metallic systems only, a broadening of the occupation numbers at the Fermi
  | level can be extrapolated back to zero broadening by an electron-gas inspired
  | formula. For all systems that are not real metals, this value can be
  | meaningless and should be avoided.

------------------------------------------------------------------------------
  Methods described in the following list of references were used in this FHI-aims run.
  If you publish the results, please make sure to cite these reference if they apply.
  FHI-aims is an academic code, and for our developers (often, Ph.D. students
  and postdocs), scientific credit in the community is essential.
  Thank you for helping us!

  For any use of FHI-aims, please cite:

    Volker Blum, Ralf Gehrke, Felix Hanke, Paula Havu, Ville Havu,
    Xinguo Ren, Karsten Reuter, and Matthias Scheffler
    'Ab initio molecular simulations with numeric atom-centered orbitals'
    Computer Physics Communications 180, 2175-2196 (2009)
    http://dx.doi.org/10.1016/j.cpc.2009.06.022


  The scalable eigensolver library ELPA was used in your run.
  ELPA is essential especially for large systems on hundreds or thousands of CPUs.
  For ELPA, please cite:

    Andreas Marek, Volker Blum, Rainer Johanni, Ville Havu, Bruno Lang,
    Thomas Auckenthaler, Alexander Heinecke, Hans-Joachim Bungartz, and Hermann Lederer,
    'The ELPA Library - Scalable Parallel Eigenvalue Solutions
    for Electronic Structure Theory and Computational Science'
    The Journal of Physics: Condensed Matter 26, 213201 (2014).
    http://dx.doi.org/10.1088/0953-8984/26/21/213201


  The ELSI infrastructure was used in your run to solve the Kohn-Sham electronic structure.
  Please check out http://elsi-interchange.org to learn more.
  If scalability is important for your project, please acknowledge ELSI by citing:

    V. W-z. Yu, F. Corsetti, A. Garcia, W. P. Huhn, M. Jacquelin, W. Jia,
    B. Lange, L. Lin, J. Lu, W. Mi, A. Seifitokaldani, A. Vazquez-Mayagoitia,
    C. Yang, H. Yang, and V. Blum
    'ELSI: A unified software interface for Kohn-Sham electronic structure solvers'
    Computer Physics Communications 222, 267-285 (2018).
    http://dx.doi.org/10.1016/j.cpc.2017.09.007


  For the real-space grid partitioning and parallelization used in this calculation, please cite:

    Ville Havu, Volker Blum, Paula Havu, and Matthias Scheffler,
    'Efficient O(N) integration for all-electron electronic structure calculation'
    'using numerically tabulated basis functions'
    Journal of Computational Physics 228, 8367-8379 (2009).
    http://dx.doi.org/10.1016/j.jcp.2009.08.008

  Of course, there are many other important community references, e.g., those cited in the
  above references. Our list is limited to references that describe implementations in the
  FHI-aims code. The reason is purely practical (length of this list) - please credit others as well.

------------------------------------------------------------
          Leaving FHI-aims.
          Date     :  20200805, Time     :  184324.123

          Computational steps:
          | Number of self-consistency cycles          :           16
          | Number of SCF (re)initializations          :            1

          Detailed time accounting                     :  max(cpu_time)    wall_clock(cpu1)
          | Total time                                 :       22.642 s          22.683 s
          | Preparation time                           :        0.146 s           0.147 s
          | Boundary condition initalization           :        0.000 s           0.000 s
          | Grid partitioning                          :        0.111 s           0.112 s
          | Preloading free-atom quantities on grid    :        0.002 s           0.003 s
          | Free-atom superposition energy             :        0.085 s           0.085 s
          | Total time for integrations                :        8.633 s           8.642 s
          | Total time for solution of K.-S. equations :        0.036 s           0.039 s
          | Total time for density & force components  :        7.141 s           7.153 s
          | Total time for mixing                      :        0.214 s           0.215 s
          | Total time for Hartree multipole update    :        0.141 s           0.142 s
          | Total time for Hartree multipole sum       :        5.731 s           5.735 s
          | Total time for total energy evaluation     :        0.003 s           0.002 s
          | Total time for vdW correction              :        0.092 s           0.093 s

          Partial memory accounting:
          | Residual value for overall tracked memory usage across tasks :           0.000 MB (should be 0.000 MB)
          | Peak values for overall tracked memory usage (after allocating hessian_basis_wave):
          |   Minimum:        1.622 MB (on task 1)
          |   Maximum:        1.622 MB (on task 1)
          |   Average:        1.622 MB
          | Largest tracked array allocation (hessian_basis_wave):
          |   Minimum:        0.794 MB (on task 1)
          |   Maximum:        0.794 MB (on task 1)
          |   Average:        0.794 MB
          Note:  These values currently only include a subset of arrays which are explicitly tracked.
          The "true" memory usage will be greater.

          Have a nice day.
------------------------------------------------------------
