  MPI-parallelism will be employed.
------------------------------------------------------------
          Invoking FHI-aims ...
          Version 171221_1
          Compiled on 2019/09/09 at 14:39:39 on host puhti-login2.bullx.

          When using FHI-aims, please cite the following reference:

          Volker Blum, Ralf Gehrke, Felix Hanke, Paula Havu,
          Ville Havu, Xinguo Ren, Karsten Reuter, and Matthias Scheffler,
          'Ab Initio Molecular Simulations with Numeric Atom-Centered Orbitals',
          Computer Physics Communications 180, 2175-2196 (2009)

          For any questions about FHI-aims, please visit the aimsclub website
          with its forums and wiki. Contributions to both the forums and the
          wiki are warmly encouraged - they are for you, and everyone is welcome there.

------------------------------------------------------------



  Date     :  20200902, Time     :  133932.133
  Time zero on CPU 1             :   0.165090000000000E-01  s.
  Internal wall clock time zero  :           368285972.133  s.

  FHI-aims created a unique identifier for this run for later identification
  aims_uuid : 23E7FF76-BA16-40C0-A01B-C9D83E1202E7

  Using        1 parallel tasks.
  Task        0 on host r18c48.bullx reporting.

  Performing system and environment tests:
  | Environment variable OMP_NUM_THREADS correctly set to 1.
  | Stacksize not measured: no C compiler
  | Checking for scalapack...
  | Testing pdtran()...
  | All pdtran() tests passed.

  Obtaining array dimensions for all initial allocations:
  
  -----------------------------------------------------------------------
  Parsing control.in (first pass over file, find array dimensions only).
  The contents of control.in will be repeated verbatim below
  unless switched off by setting 'verbatim_writeout .false.' .
  in the first line of control.in .
  -----------------------------------------------------------------------
  
  #########################################################################################
  #
  #  Volker Blum, FHI 2009 : Test run input file control.in for simple H2O
  #
  #########################################################################################
  #
  #  Physical model
  #
    xc                 pbe0
    many_body_dispersion
    spin               none
    relativistic       none
    charge             0.
  #
  #  SCF convergence
  #
    occupation_type    gaussian 0.01
    mixer              pulay
      n_max_pulay        10
      charge_mix_param   0.2
    sc_accuracy_rho    1E-5
    sc_accuracy_eev    1E-3
    sc_accuracy_etot   1E-6
    sc_accuracy_forces 1E-4
    sc_iter_limit      100
  #
  #  Relaxation
  #
  #  relax_geometry   bfgs 1.e-3
  #
  ################################################################################
  #
  #  FHI-aims code project
  #  VB, Fritz-Haber Institut, 2009
  #
  #  Suggested "light" defaults for H atom (to be pasted into control.in file)
  #  Be sure to double-check any results obtained with these settings for post-processing,
  #  e.g., with the "tight" defaults and larger basis sets.
  #
  ################################################################################
    species        H
  #     global species definitions
      nucleus             1
      mass                1.00794
  #
      l_hartree           4
  #
      cut_pot             3.5  1.5  1.0
      basis_dep_cutoff    1e-4
  #
      radial_base         24 5.0
      radial_multiplier   1
      angular_grids       specified
        division   0.2421   50
        division   0.3822  110
        division   0.4799  194
        division   0.5341  302
  #      division   0.5626  434
  #      division   0.5922  590
  #      division   0.6542  770
  #      division   0.6868 1202
  #      outer_grid  770
        outer_grid  302
  ################################################################################
  #
  #  Definition of "minimal" basis
  #
  ################################################################################
  #     valence basis states
      valence      1  s   1.
  #     ion occupancy
      ion_occ      1  s   0.5
  ################################################################################
  #
  #  Suggested additional basis functions. For production calculations,
  #  uncomment them one after another (the most important basis functions are
  #  listed first).
  #
  #  Basis constructed for dimers: 0.5 A, 0.7 A, 1.0 A, 1.5 A, 2.5 A
  #
  ################################################################################
  #  "First tier" - improvements: -1014.90 meV to -62.69 meV
       hydro 2 s 2.1
       hydro 2 p 3.5
  #  "Second tier" - improvements: -12.89 meV to -1.83 meV
  #     hydro 1 s 0.85
  #     hydro 2 p 3.7
  #     hydro 2 s 1.2
  #     hydro 3 d 7
  #  "Third tier" - improvements: -0.25 meV to -0.12 meV
  #     hydro 4 f 11.2
  #     hydro 3 p 4.8
  #     hydro 4 d 9
  #     hydro 3 s 3.2
  ################################################################################
  #
  #  FHI-aims code project
  #  VB, Fritz-Haber Institut, 2009
  #
  #  Suggested "light" defaults for C atom (to be pasted into control.in file)
  #  Be sure to double-check any results obtained with these settings for post-processing,
  #  e.g., with the "tight" defaults and larger basis sets.
  #
  ################################################################################
    species        C
  #     global species definitions
      nucleus             6
      mass                12.0107
  #
      l_hartree           4
  #
      cut_pot             3.5  1.5  1.0
      basis_dep_cutoff    1e-4
  #
      radial_base         34 5.0
      radial_multiplier   1
      angular_grids specified
        division   0.3326   50
        division   0.5710  110
        division   0.7727  194
        division   0.8772  302
  #      division   0.9334  434
  #      division   0.9625  590
  #      division   0.9924  770
  #      division   1.0230  974
  #      division   1.4589 1202
  #     outer_grid  974
       outer_grid 302
  ################################################################################
  #
  #  Definition of "minimal" basis
  #
  ################################################################################
  #     valence basis states
      valence      2  s   2.
      valence      2  p   2.
  #     ion occupancy
      ion_occ      2  s   1.
      ion_occ      2  p   1.
  ################################################################################
  #
  #  Suggested additional basis functions. For production calculations,
  #  uncomment them one after another (the most important basis functions are
  #  listed first).
  #
  #  Constructed for dimers: 1.0 A, 1.25 A, 1.5 A, 2.0 A, 3.0 A
  #
  ################################################################################
  #  "First tier" - improvements: -1214.57 meV to -155.61 meV
       hydro 2 p 1.7
       hydro 3 d 6
       hydro 2 s 4.9
  #  "Second tier" - improvements: -67.75 meV to -5.23 meV
  #     hydro 4 f 9.8
  #     hydro 3 p 5.2
  #     hydro 3 s 4.3
  #     hydro 5 g 14.4
  #     hydro 3 d 6.2
  #  "Third tier" - improvements: -2.43 meV to -0.60 meV
  #     hydro 2 p 5.6
  #     hydro 2 s 1.4
  #     hydro 3 d 4.9
  #     hydro 4 f 11.2
  #  "Fourth tier" - improvements: -0.39 meV to -0.18 meV
  #     hydro 2 p 2.1
  #     hydro 5 g 16.4
  #     hydro 4 d 13.2
  #     hydro 3 s 13.6
  #     hydro 4 f 17.6
  #  Further basis functions - improvements: -0.08 meV and below
  #     hydro 3 s 2
  #     hydro 3 p 6
  #     hydro 4 d 20
  ################################################################################
  #
  #  FHI-aims code project
  #  VB, Fritz-Haber Institut, 2009
  #
  #  Suggested "light" defaults for N atom (to be pasted into control.in file)
  #  Be sure to double-check any results obtained with these settings for post-processing,
  #  e.g., with the "tight" defaults and larger basis sets.
  #
  ################################################################################
    species        N
  #     global species definitions
      nucleus             7
      mass                14.0067
  #
      l_hartree           4
  #
      cut_pot             3.5  1.5  1.0
      basis_dep_cutoff    1e-4
  #
      radial_base         35 5.0
      radial_multiplier   1
      angular_grids       specified
        division   0.2599   50
        division   0.4601  110
        division   0.5885  194
        division   0.6503  302
  #      division   0.6939  434
  #      division   0.7396  590
  #      division   0.7632  770
  #      division   0.8122  974
  #      division   1.1604 1202
  #      outer_grid  974
        outer_grid  302
  ################################################################################
  #
  #  Definition of "minimal" basis
  #
  ################################################################################
  #     valence basis states
      valence      2  s   2.
      valence      2  p   3.
  #     ion occupancy
      ion_occ      2  s   1.
      ion_occ      2  p   2.
  ################################################################################
  #
  #  Suggested additional basis functions. For production calculations,
  #  uncomment them one after another (the most important basis functions are
  #  listed first).
  #
  #  Constructed for dimers: 1.0 A, 1.1 A, 1.5 A, 2.0 A, 3.0 A
  #
  ################################################################################
  #  "First tier" - improvements: -1193.42 meV to -220.60 meV
       hydro 2 p 1.8
       hydro 3 d 6.8
       hydro 3 s 5.8
  #  "Second tier" - improvements: -80.21 meV to -6.86 meV
  #     hydro 4 f 10.8
  #     hydro 3 p 5.8
  #     hydro 1 s 0.8
  #     hydro 5 g 16
  #     hydro 3 d 4.9
  #  "Third tier" - improvements: -4.29 meV to -0.53 meV
  #     hydro 3 s 16
  #     ionic 2 p auto
  #     hydro 3 d 6.6
  #     hydro 4 f 11.6
  #  "Fourth tier" - improvements: -0.75 meV to -0.25 meV
  #     hydro 2 p 4.5
  #     hydro 2 s 2.4
  #     hydro 5 g 14.4
  #     hydro 4 d 14.4
  #     hydro 4 f 16.8
  # Further basis functions - -0.21 meV and below
  #     hydro 3 p 14.8
  #     hydro 3 s 4.4
  #     hydro 3 d 19.6
  #     hydro 5 g 12.8
  ################################################################################
  #
  #  FHI-aims code project
  #  VB, Fritz-Haber Institut, 2009
  #
  #  Suggested "light" defaults for O atom (to be pasted into control.in file)
  #  Be sure to double-check any results obtained with these settings for post-processing,
  #  e.g., with the "tight" defaults and larger basis sets.
  #
  ################################################################################
    species        O
  #     global species definitions
      nucleus             8
      mass                15.9994
  #
      l_hartree           4
  #
      cut_pot             3.5  1.5  1.0
      basis_dep_cutoff    1e-4
  #
      radial_base         36 5.0
      radial_multiplier   1
       angular_grids specified
        division   0.2659   50
        division   0.4451  110
        division   0.6052  194
        division   0.7543  302
  #      division   0.8014  434
  #      division   0.8507  590
  #      division   0.8762  770
  #      division   0.9023  974
  #      division   1.2339 1202
  #      outer_grid 974
        outer_grid 302
  ################################################################################
  #
  #  Definition of "minimal" basis
  #
  ################################################################################
  #     valence basis states
      valence      2  s   2.
      valence      2  p   4.
  #     ion occupancy
      ion_occ      2  s   1.
      ion_occ      2  p   3.
  ################################################################################
  #
  #  Suggested additional basis functions. For production calculations,
  #  uncomment them one after another (the most important basis functions are
  #  listed first).
  #
  #  Constructed for dimers: 1.0 A, 1.208 A, 1.5 A, 2.0 A, 3.0 A
  #
  ################################################################################
  #  "First tier" - improvements: -699.05 meV to -159.38 meV
       hydro 2 p 1.8
       hydro 3 d 7.6
       hydro 3 s 6.4
  #  "Second tier" - improvements: -49.91 meV to -5.39 meV
  #     hydro 4 f 11.6
  #     hydro 3 p 6.2
  #     hydro 3 d 5.6
  #     hydro 5 g 17.6
  #     hydro 1 s 0.75
  #  "Third tier" - improvements: -2.83 meV to -0.50 meV
  #     ionic 2 p auto
  #     hydro 4 f 10.8
  #     hydro 4 d 4.7
  #     hydro 2 s 6.8
  #  "Fourth tier" - improvements: -0.40 meV to -0.12 meV
  #     hydro 3 p 5
  #     hydro 3 s 3.3
  #     hydro 5 g 15.6
  #     hydro 4 f 17.6
  #     hydro 4 d 14
  # Further basis functions - -0.08 meV and below
  #     hydro 3 s 2.1
  #     hydro 4 d 11.6
  #     hydro 3 p 16
  #     hydro 2 s 17.2
  
  -----------------------------------------------------------------------
  Completed first pass over input file control.in .
  -----------------------------------------------------------------------
  
  
  -----------------------------------------------------------------------
  Parsing geometry.in (first pass over file, find array dimensions only).
  The contents of geometry.in will be repeated verbatim below
  unless switched off by setting 'verbatim_writeout .false.' .
  in the first line of geometry.in .
  -----------------------------------------------------------------------
  
  atom  0.00000 0.00000 0.00000 C
  atom  1.09300 0.00000 0.00000 H
  atom  -0.47961 0.00000 -1.41207 N
  atom  -1.49964 -0.03691 -1.41105 H
  atom  -0.15884 0.85263 -1.86622 H
  atom  -0.49584 1.26211 0.72868 C
  atom  0.31887 1.98081 0.84389 H
  atom  -1.30027 1.73787 0.16290 H
  atom  -0.87463 1.00563 1.72080 H
  atom  -0.39425 -1.28861 0.74398 C
  atom  -0.51854 -2.38235 0.24643 O
  atom  -0.60658 -1.16502 2.01536 O
  atom  0.18494 -0.64809 2.24176 H
  
  -----------------------------------------------------------------------
  Completed first pass over input file geometry.in .
  -----------------------------------------------------------------------
  

  Basic array size parameters:
  | Number of species                 :        4
  | Number of atoms                   :       13
  | Max. basis fn. angular momentum   :        2
  | Max. atomic/ionic basis occupied n:        2
  | Max. number of basis fn. types    :        2
  | Max. radial fns per species/type  :        3
  | Max. logarithmic grid size        :     1301
  | Max. radial integration grid size :       36
  | Max. angular integration grid size:      302
  | Max. angular grid division number :        8
  | Radial grid for Hartree potential :     1301
  | Number of spin channels           :        1

------------------------------------------------------------
          Reading file control.in.
------------------------------------------------------------
  XC: Using hybrid-PBE0 functionals.
  Using the default MBD implementation with analytical forces
  Spin treatment: No spin polarisation.
  Non-relativistic treatment of kinetic energy.
  Charge =   0.000000E+00: Neutral system requested explicitly.
  Occupation type: Gaussian broadening, width =   0.100000E-01 eV.
  Using pulay charge density mixing.
  Pulay mixing - number of memorized iterations:   10
  Charge density mixing - mixing parameter:     0.2000
  Convergence accuracy of self-consistent charge density:  0.1000E-04
  Convergence accuracy of sum of eigenvalues:  0.1000E-02
  Convergence accuracy of total energy:  0.1000E-05
  Convergence accuracy of forces:  0.1000E-03
  Maximum number of s.-c. iterations  :   100
 
  Reading configuration options for species H                   .
  | Found nuclear charge :   1.0000
  | Found atomic mass :    1.00794000000000      amu
  | Found l_max for Hartree potential  :   4
  | Found cutoff potl. onset [A], width [A], scale factor :    3.50000    1.50000    1.00000
  | Threshold for basis-dependent cutoff potential is   0.100000E-03
  | Found data for basic radial integration grid :    24 points, outermost radius =    5.000 A
  | Found multiplier for basic radial grid :   1
  | Found angular grid specification: user-specified.
  | Specified grid contains     5 separate shells.
  | Check grid settings after all constraints further below.
  | Found free-atom valence shell :  1 s   1.000
  | No ionic wave fns used. Skipping ion_occ.
  | Found hydrogenic basis function :  2 s   2.100
  | Found hydrogenic basis function :  2 p   3.500
  Species H                   : Missing cutoff potential type.
  Defaulting to exp(1/x)/(1-x)^2 type cutoff potential.
  Species H : No 'logarithmic' tag. Using default grid for free atom:
  | Default logarithmic grid data [bohr] : 0.1000E-03 0.1000E+03 0.1012E+01
  Species H : On-site basis accuracy parameter (for Gram-Schmidt orthonormalisation) not specified.
  Using default value basis_acc =  0.1000000E-03.
  Species H                   : Using default innermost maximum threshold i_radial=  2 for radial functions.
  Species H                   : Default cutoff onset for free atom density etc. : 0.35000000E+01 AA.
  Species H                   : Basic radial grid will be enhanced according to radial_multiplier =   1, to contain    24 grid points.
 
  Reading configuration options for species C                   .
  | Found nuclear charge :   6.0000
  | Found atomic mass :    12.0107000000000      amu
  | Found l_max for Hartree potential  :   4
  | Found cutoff potl. onset [A], width [A], scale factor :    3.50000    1.50000    1.00000
  | Threshold for basis-dependent cutoff potential is   0.100000E-03
  | Found data for basic radial integration grid :    34 points, outermost radius =    5.000 A
  | Found multiplier for basic radial grid :   1
  | Found angular grid specification: user-specified.
  | Specified grid contains     5 separate shells.
  | Check grid settings after all constraints further below.
  | Found free-atom valence shell :  2 s   2.000
  | Found free-atom valence shell :  2 p   2.000
  | No ionic wave fns used. Skipping ion_occ.
  | No ionic wave fns used. Skipping ion_occ.
  | Found hydrogenic basis function :  2 p   1.700
  | Found hydrogenic basis function :  3 d   6.000
  | Found hydrogenic basis function :  2 s   4.900
  Species C                   : Missing cutoff potential type.
  Defaulting to exp(1/x)/(1-x)^2 type cutoff potential.
  Species C : No 'logarithmic' tag. Using default grid for free atom:
  | Default logarithmic grid data [bohr] : 0.1000E-03 0.1000E+03 0.1012E+01
  Species C : On-site basis accuracy parameter (for Gram-Schmidt orthonormalisation) not specified.
  Using default value basis_acc =  0.1000000E-03.
  Species C                   : Using default innermost maximum threshold i_radial=  2 for radial functions.
  Species C                   : Default cutoff onset for free atom density etc. : 0.35000000E+01 AA.
  Species C                   : Basic radial grid will be enhanced according to radial_multiplier =   1, to contain    34 grid points.
 
  Reading configuration options for species N                   .
  | Found nuclear charge :   7.0000
  | Found atomic mass :    14.0067000000000      amu
  | Found l_max for Hartree potential  :   4
  | Found cutoff potl. onset [A], width [A], scale factor :    3.50000    1.50000    1.00000
  | Threshold for basis-dependent cutoff potential is   0.100000E-03
  | Found data for basic radial integration grid :    35 points, outermost radius =    5.000 A
  | Found multiplier for basic radial grid :   1
  | Found angular grid specification: user-specified.
  | Specified grid contains     5 separate shells.
  | Check grid settings after all constraints further below.
  | Found free-atom valence shell :  2 s   2.000
  | Found free-atom valence shell :  2 p   3.000
  | No ionic wave fns used. Skipping ion_occ.
  | No ionic wave fns used. Skipping ion_occ.
  | Found hydrogenic basis function :  2 p   1.800
  | Found hydrogenic basis function :  3 d   6.800
  | Found hydrogenic basis function :  3 s   5.800
  Species N                   : Missing cutoff potential type.
  Defaulting to exp(1/x)/(1-x)^2 type cutoff potential.
  Species N : No 'logarithmic' tag. Using default grid for free atom:
  | Default logarithmic grid data [bohr] : 0.1000E-03 0.1000E+03 0.1012E+01
  Species N : On-site basis accuracy parameter (for Gram-Schmidt orthonormalisation) not specified.
  Using default value basis_acc =  0.1000000E-03.
  Species N                   : Using default innermost maximum threshold i_radial=  2 for radial functions.
  Species N                   : Default cutoff onset for free atom density etc. : 0.35000000E+01 AA.
  Species N                   : Basic radial grid will be enhanced according to radial_multiplier =   1, to contain    35 grid points.
 
  Reading configuration options for species O                   .
  | Found nuclear charge :   8.0000
  | Found atomic mass :    15.9994000000000      amu
  | Found l_max for Hartree potential  :   4
  | Found cutoff potl. onset [A], width [A], scale factor :    3.50000    1.50000    1.00000
  | Threshold for basis-dependent cutoff potential is   0.100000E-03
  | Found data for basic radial integration grid :    36 points, outermost radius =    5.000 A
  | Found multiplier for basic radial grid :   1
  | Found angular grid specification: user-specified.
  | Specified grid contains     5 separate shells.
  | Check grid settings after all constraints further below.
  | Found free-atom valence shell :  2 s   2.000
  | Found free-atom valence shell :  2 p   4.000
  | No ionic wave fns used. Skipping ion_occ.
  | No ionic wave fns used. Skipping ion_occ.
  | Found hydrogenic basis function :  2 p   1.800
  | Found hydrogenic basis function :  3 d   7.600
  | Found hydrogenic basis function :  3 s   6.400
  Species O                   : Missing cutoff potential type.
  Defaulting to exp(1/x)/(1-x)^2 type cutoff potential.
  Species O : No 'logarithmic' tag. Using default grid for free atom:
  | Default logarithmic grid data [bohr] : 0.1000E-03 0.1000E+03 0.1012E+01
  Species O : On-site basis accuracy parameter (for Gram-Schmidt orthonormalisation) not specified.
  Using default value basis_acc =  0.1000000E-03.
  Species O                   : Using default innermost maximum threshold i_radial=  2 for radial functions.
  Species O                   : Default cutoff onset for free atom density etc. : 0.35000000E+01 AA.
  Species O                   : Basic radial grid will be enhanced according to radial_multiplier =   1, to contain    36 grid points.
 
  Finished reading input file 'control.in'. Consistency checks are next.
 
  MPI_IN_PLACE appears to work with this MPI implementation.
  | Keeping use_mpi_in_place .true. (see manual).
  Explicit treatment of the Coulomb operator is needed, but the RI method is not specified.
  Coulomb operator: Defaulting to 'LVL fast' resolution of identity - RI_type = LVL_fast 
  Species H: Using default value for prodbas_acc =   1.000000E-04.
  Species H: Using default value max_l_prodbas =    20.
  Explicit treatment of the Coulomb operator is needed, but the RI method is not specified.
  Coulomb operator: Defaulting to 'LVL fast' resolution of identity - RI_type = LVL_fast 
  Species C: Using default value for prodbas_acc =   1.000000E-04.
  Species C: Using default value max_l_prodbas =    20.
  Explicit treatment of the Coulomb operator is needed, but the RI method is not specified.
  Coulomb operator: Defaulting to 'LVL fast' resolution of identity - RI_type = LVL_fast 
  Species N: Using default value for prodbas_acc =   1.000000E-04.
  Species N: Using default value max_l_prodbas =    20.
  Explicit treatment of the Coulomb operator is needed, but the RI method is not specified.
  Coulomb operator: Defaulting to 'LVL fast' resolution of identity - RI_type = LVL_fast 
  Species O: Using default value for prodbas_acc =   1.000000E-04.
  Species O: Using default value max_l_prodbas =    20.
  Target number of points in a grid batch is not set. Defaulting to  100
  Method for grid partitioning is not set. Defaulting to parallel hash+maxmin partitioning.
  Batch size limit is not set. Defaulting to    200
  By default, will store active basis functions for each batch.
  If in need of memory, prune_basis_once .false. can be used to disable this option.
  communication_type for Hartree potential was not specified.
  Defaulting to calc_hartree .
  Pulay mixer: Number of initial linear mixing iterations not set.
  Defaulting to    0 iterations.
  Work space size for distributed Hartree potential not set.
  Defaulting to   0.200000E+03 MB.
  Algorithm-dependent basis array size parameters:
  | n_max_pulay                         :       10
  Presetting      1001 iterations before the initial mixing cycle
  is restarted anyway using the sc_init_iter criterion / keyword.
  Presetting a factor      1.000 between actual scf density residual
  and density convergence criterion sc_accuracy_rho below which sc_init_iter
  takes no effect.
  Geometry relaxation not requested: no relaxation will be performed.
  Handling of forces: Unphysical translation and rotation will be removed from forces.
  No accuracy limit for integral partition fn. given. Defaulting to  0.1000E-14.
  No threshold value for u(r) in integrations given. Defaulting to  0.1000E-05.
  No accuracy for occupation numbers given. Defaulting to  0.1000E-12.
  No threshold value for occupation numbers given. Defaulting to  0.0000E+00.
  No accuracy for fermi level given. Defaulting to  0.1000E-19.
  Maximum # of iterations to find E_F not set. Defaulting to  200.
  Preferred method for the eigenvalue solver ('KS_method') not specified in 'control.in'.
  Defaulting to serial version, 'lapack_fast'.
  Will not use alltoall communication since running on < 1024 CPUs.
  Threshold for basis singularities not set.
  Default threshold for basis singularities:  0.1000E-04
  partition_type (choice of integration weights) for integrals was not specified.
  | Using a version of the partition function of Stratmann and coworkers ('stratmann_smoother').
  | At each grid point, the set of atoms used to build the partition table is smoothly restricted to
  | only those atoms whose free-atom density would be non-zero at that grid point.
  Partitioning for Hartree potential was not defined. Using partition_type for integrals.
  | Adjusted default value of keyword multip_moments_threshold to:       0.10000000E-11
  | This value may affect high angular momentum components of the Hartree potential in periodic systems.
  Threshold for auxiliary basis singularities not set.
  Default threshold for auxiliary basis singularities:  0.1000E-04
  No q(lm)/r^(l+1) cutoff set for long-range Hartree potential.
  | Using default value of  0.100000E-09 .
  | Verify using the multipole_threshold keyword.
  Defaulting to new monopole extrapolation.
  Density update method: automatic selection selected.
  Coulomb operator: Defaulting to screening threshold for four-center integrals:   0.100000E-06
  Coulomb operator: Defaulting to screening threshold for Coulomb matrix:   0.100000E-09
  Coulomb operator: Defaulting to 'LVL_fast' resolution of identity - RI_type = LVL_fast 
  No other resolution of identity version is supported for periodic boundary conditions at present.
  Coulomb operator: Defaulting to logarithmic spherical Bessel transform integrals (use_logsbt .true.).
  LVL not implemented with density matrix yet
  -> switching to transformed overlap
  LVL probably works better with logsbt
  Default to 1D ("use_logsbt") integrations for auxiliary 2-center integrals.
  Default onset of logarithmic r-grid for SBT is-38.000000000000
  Default onset of logarithmic k-grid for SBT is-25.000000000000
  Default range of logarithmic r- and k-grid for SBT is 45.000000000000
  Default number of logarithmic r- and k-grid for SBT is  4096
------------------------------------------------------------


------------------------------------------------------------
          Reading geometry description geometry.in.
------------------------------------------------------------
  Input structure read successfully.
  The structure contains       13 atoms,  and a total of         48.000 electrons.

  Input geometry:
  | No unit cell requested.
  | Atomic structure:
  |       Atom                x [A]            y [A]            z [A]
  |    1: Species C             0.00000000        0.00000000        0.00000000
  |    2: Species H             1.09300000        0.00000000        0.00000000
  |    3: Species N            -0.47961000        0.00000000       -1.41207000
  |    4: Species H            -1.49964000       -0.03691000       -1.41105000
  |    5: Species H            -0.15884000        0.85263000       -1.86622000
  |    6: Species C            -0.49584000        1.26211000        0.72868000
  |    7: Species H             0.31887000        1.98081000        0.84389000
  |    8: Species H            -1.30027000        1.73787000        0.16290000
  |    9: Species H            -0.87463000        1.00563000        1.72080000
  |   10: Species C            -0.39425000       -1.28861000        0.74398000
  |   11: Species O            -0.51854000       -2.38235000        0.24643000
  |   12: Species O            -0.60658000       -1.16502000        2.01536000
  |   13: Species H             0.18494000       -0.64809000        2.24176000
  |

  | The smallest distance between any two atoms is         0.97209953 AA.
  |
  | The first atom of this pair is atom number                     12 .
  | The second atom of this pair is atom number                    13 .

  Number of empty states per atom not set in control.in - providing a guess from actual geometry.
  | Total number of empty states used during s.c.f. cycle:       29
  If you use a very high smearing, use empty_states (per atom!) in control.in to increase this value.

  Structure-dependent array size parameters: 
  | Maximum number of distinct radial functions  :       21
  | Maximum number of basis functions            :      119
  | Number of Kohn-Sham states (occupied + empty):       53
------------------------------------------------------------
  Setting Coulomb cut-width to  1.091868692359 * rcut.
  Setting Coulomb cutting radius rcut to  8.000000000000 A.

------------------------------------------------------------
          Preparing all fixed parts of the calculation.
------------------------------------------------------------
  Determining machine precision:
    2.225073858507201E-308
  Setting up grids for atomic and cluster calculations.

  Creating wave function, potential, and density for free atoms.

  Species: H

  List of occupied orbitals and eigenvalues:
    n    l              occ      energy [Ha]    energy [eV]
    1    0           1.0000        -0.237589        -6.4651


  Species: C

  List of occupied orbitals and eigenvalues:
    n    l              occ      energy [Ha]    energy [eV]
    1    0           2.0000       -10.038835      -273.1706
    2    0           2.0000        -0.502696       -13.6791
    2    1           2.0000        -0.191971        -5.2238


  Species: N

  List of occupied orbitals and eigenvalues:
    n    l              occ      energy [Ha]    energy [eV]
    1    0           2.0000       -14.128000      -384.4424
    2    0           2.0000        -0.681077       -18.5330
    2    1           3.0000        -0.259788        -7.0692


  Species: O

  List of occupied orbitals and eigenvalues:
    n    l              occ      energy [Ha]    energy [eV]
    1    0           2.0000       -18.898188      -514.2459
    2    0           2.0000        -0.878505       -23.9053
    2    1           4.0000        -0.331779        -9.0282

  Creating fixed part of basis set: Ionic, confined, hydrogenic.
 
  H                    hydrogenic:
 
  List of hydrogenic basis orbitals: 
    n    l      effective z      eigenvalue [eV]  inner max. [A]     outer max. [A]     outer radius [A]   
    2    0         2.100000       -14.9728           0.193243           1.317208           4.583499
    2    1         3.500000       -41.6669           0.602369           0.602369           3.723403
 
 
  C                    hydrogenic:
 
  List of hydrogenic basis orbitals: 
    n    l      effective z      eigenvalue [eV]  inner max. [A]     outer max. [A]     outer radius [A]   
    2    1         1.700000        -9.7616           1.230570           1.230570           4.607917
    3    2         6.000000       -54.4224           0.792453           0.792453           3.883070
    2    0         4.900000       -81.6679           0.082559           0.562749           3.078220
 
 
  N                    hydrogenic:
 
  List of hydrogenic basis orbitals: 
    n    l      effective z      eigenvalue [eV]  inner max. [A]     outer max. [A]     outer radius [A]   
    2    1         1.800000       -10.9749           1.177451           1.177451           4.573712
    3    2         6.800000       -69.9026           0.704619           0.704619           3.538137
    3    0         5.800000       -50.8545           0.067388           1.191934           4.250239
 
 
  O                    hydrogenic:
 
  List of hydrogenic basis orbitals: 
    n    l      effective z      eigenvalue [eV]  inner max. [A]     outer max. [A]     outer radius [A]   
    2    1         1.800000       -10.9749           1.164242           1.164242           4.578029
    3    2         7.600000       -87.3180           0.624125           0.624125           3.251020
    3    0         6.400000       -61.9207           0.061167           1.081902           4.001998
 

  Adding cutoff potential to free-atom effective potential.
  Creating atomic-like basis functions for current effective potential.

  Species H                   :

  List of atomic basis orbitals and eigenvalues:
    n    l      energy [Ha]    energy [eV]    outer radius [A]
    1    0        -0.237589        -6.4651       4.527807


  Species C                   :

  List of atomic basis orbitals and eigenvalues:
    n    l      energy [Ha]    energy [eV]    outer radius [A]
    1    0       -10.038835      -273.1706       1.934409
    2    0        -0.502696       -13.6791       4.496620
    2    1        -0.191971        -5.2238       4.551928


  Species N                   :

  List of atomic basis orbitals and eigenvalues:
    n    l      energy [Ha]    energy [eV]    outer radius [A]
    1    0       -14.128000      -384.4424       1.637919
    2    0        -0.681077       -18.5330       4.463241
    2    1        -0.259788        -7.0692       4.518138


  Species O                   :

  List of atomic basis orbitals and eigenvalues:
    n    l      energy [Ha]    energy [eV]    outer radius [A]
    1    0       -18.898188      -514.2459       1.415765
    2    0        -0.878505       -23.9053       4.413171
    2    1        -0.331779        -9.0282       4.522403

  Assembling full basis from fixed parts.
  | Species H :   atomic orbital   1 s accepted.
  | Species H :    hydro orbital   2 s accepted.
  | Species H :    hydro orbital   2 p accepted.
  | Species C :   atomic orbital   1 s accepted.
  | Species C :    hydro orbital   2 s accepted.
  | Species C :   atomic orbital   2 s accepted.
  | Species C :   atomic orbital   2 p accepted.
  | Species C :    hydro orbital   2 p accepted.
  | Species C :    hydro orbital   3 d accepted.
  | Species N :   atomic orbital   1 s accepted.
  | Species N :    hydro orbital   3 s accepted.
  | Species N :   atomic orbital   2 s accepted.
  | Species N :   atomic orbital   2 p accepted.
  | Species N :    hydro orbital   2 p accepted.
  | Species N :    hydro orbital   3 d accepted.
  | Species O :   atomic orbital   1 s accepted.
  | Species O :    hydro orbital   3 s accepted.
  | Species O :   atomic orbital   2 s accepted.
  | Species O :   atomic orbital   2 p accepted.
  | Species O :    hydro orbital   2 p accepted.
  | Species O :    hydro orbital   3 d accepted.
 
  Basis size parameters after reduction:
  | Total number of radial functions:       21
  | Total number of basis functions :      119
 
  Per-task memory consumption for arrays in subroutine allocate_ext:
  |           5.250512MB.
  Testing on-site integration grid accuracy.
  |  Species  Function  <phi|h_atom|phi> (log., in eV)  <phi|h_atom|phi> (rad., in eV)
           1        1                 -6.4663192853                 -6.4651273558
           1        2                 13.7111246313                 13.7170609718
           1        3                 25.2673269279                 25.2674696378
           2        4               -273.1705927641               -273.1705631568
           2        5                -10.7109323383                -10.7107120029
           2        6                 17.4381822266                 17.4352413244
           2        7                 -5.2255326521                 -5.2270484734
           2        8                  8.6835629259                  8.6603288385
           2        9                 27.4952418996                 27.4953360207
           3       10               -384.4424306495               -384.4423701208
           3       11                 12.5842251816                 12.5842222903
           3       12                -15.7264628251                -15.7264433455
           3       13                 -7.0696854293                 -7.0701769954
           3       14                  8.8090390882                  8.7901077751
           3       15                 35.9586762123                 35.9588528632
           4       16               -514.2458688638               -514.2457643834
           4       17                 15.1795651126                 15.1795290741
           4       18                -21.5359799773                -21.5360846186
           4       19                 -9.0283069236                 -9.0284644067
           4       20                  8.3027758564                  8.2834874195
           4       21                 45.8339351984                 45.8338762259

  Preparing densities etc. for the partition functions (integrals / Hartree potential).

  Preparations completed.
  max(cpu_time)          :      0.144 s.
  Wall clock time (cpu1) :      0.145 s.
------------------------------------------------------------

------------------------------------------------------------
          Begin self-consistency loop: Initialization.

          Date     :  20200902, Time     :  133932.295
------------------------------------------------------------

  Initializing index lists of integration centers etc. from given atomic structure:
  | Number of centers in hartree potential         :        13
  | Number of centers in hartree multipole         :        13
  | Number of centers in electron density summation:        13
  | Number of centers in basis integrals           :        13
  | Number of centers in integrals                 :        13
  | Number of centers in hamiltonian               :        13
  Partitioning the integration grid into batches with parallel hashing+maxmin method.
  | Number of batches:      952
  | Maximal batch size:     138
  | Minimal batch size:      66
  | Average batch size:      73.158
  | Standard deviation of batch sizes:      18.048

  Integration load balanced across     1 MPI tasks.
  Work distribution over tasks is as follows:
  Task     0 has      69646 integration points.
  Initializing partition tables, free-atom densities, potentials, etc. across the integration grid (initialize_grid_storage).
  | initialize_grid_storage: Actual outermost partition radius vs. multipole_radius_free
  | (-- VB: in principle, multipole_radius_free should be larger, hence this output)
  | Species        1: Confinement radius =              4.999999999999999 AA, multipole_radius_free =              5.054417573612229 AA.
  | Species        1: outer_partition_radius set to              5.054417573612229 AA .
  | Species        2: Confinement radius =              4.999999999999999 AA, multipole_radius_free =              5.019602836301480 AA.
  | Species        2: outer_partition_radius set to              5.019602836301480 AA .
  | Species        3: Confinement radius =              4.999999999999999 AA, multipole_radius_free =              5.043624274424571 AA.
  | Species        3: outer_partition_radius set to              5.043624274424571 AA .
  | Species        4: Confinement radius =              4.999999999999999 AA, multipole_radius_free =              5.048384829883283 AA.
  | Species        4: outer_partition_radius set to              5.048384829883283 AA .
  | Original list of interatomic distances with          13 x         13 entries is created.
  | Net number of integration points:    69646
  | of which are non-zero points    :    59346
  Renormalizing the initial density to the exact electron count on the 3D integration grid.
  | Initial density: Formal number of electrons (from input files) :      48.0000000000
  | Integrated number of electrons on 3D grid     :      48.0000578492
  | Charge integration error                      :       0.0000578492
  | Normalization factor for density and gradient :       0.9999987948
  Obtaining max. number of non-zero basis functions in each batch (get_n_compute_maxes).
  | Maximal number of non-zero basis functions:      119 in task     0
  Selecting the method for density update.
  Loop over occupied states selected for charge density update.
  Allocating        0.050 MB for KS_eigenvector
  Integrating Hamiltonian matrix: batch-based integration.
  Time summed over all CPUs for integration: real work        0.508 s, elapsed        0.508 s
  Integrating overlap matrix.
  Time summed over all CPUs for integration: real work        0.211 s, elapsed        0.211 s

  Updating Kohn-Sham eigenvalues and eigenvectors using ELSI and the ELPA eigensolver.
  Overlap matrix is nonsingular
  | Lowest eigenvalue of overlap  :  0.46E-02
  | Highest eigenvalue of overlap :  0.64E+01
  Finished singularity check of overlap matrix
  | Time :     0.002 s
  Finished Cholesky decomposition
  | Time :     0.000 s
  Finished transformation to standard eigenproblem
  | Time :     0.000 s
  Starting LAPACK eigensolver
  Finished solving standard eigenproblem
  | Time :     0.002 s
  Finished back-transformation of eigenvectors
  | Time :     0.000 s

  Obtaining occupation numbers and chemical potential using ELSI.
  | Chemical potential (Fermi level):    -9.78906643eV
  Writing Kohn-Sham eigenvalues.

  State    Occupation    Eigenvalue [Ha]    Eigenvalue [eV]
      1       2.00000         -19.008242         -517.24058
      2       2.00000         -18.977069         -516.39231
      3       2.00000         -14.245822         -387.64854
      4       2.00000         -10.167032         -276.65902
      5       2.00000         -10.141635         -275.96792
      6       2.00000         -10.132025         -275.70642
      7       2.00000          -1.182556          -32.17898
      8       2.00000          -1.100421          -29.94399
      9       2.00000          -0.991976          -26.99304
     10       2.00000          -0.859167          -23.37912
     11       2.00000          -0.756332          -20.58085
     12       2.00000          -0.682423          -18.56969
     13       2.00000          -0.637340          -17.34290
     14       2.00000          -0.603234          -16.41483
     15       2.00000          -0.580124          -15.78599
     16       2.00000          -0.562368          -15.30282
     17       2.00000          -0.551683          -15.01205
     18       2.00000          -0.544992          -14.82998
     19       2.00000          -0.516120          -14.04434
     20       2.00000          -0.502618          -13.67692
     21       2.00000          -0.461340          -12.55369
     22       2.00000          -0.429879          -11.69760
     23       2.00000          -0.397793          -10.82449
     24       2.00000          -0.392559          -10.68208
     25       0.00000          -0.157399           -4.28305
     26       0.00000          -0.060156           -1.63692
     27       0.00000          -0.049743           -1.35359
     28       0.00000          -0.016979           -0.46202
     29       0.00000          -0.013014           -0.35412
     30       0.00000           0.008720            0.23728
     31       0.00000           0.019616            0.53379
     32       0.00000           0.036650            0.99729
     33       0.00000           0.045417            1.23587
     34       0.00000           0.084059            2.28735
     35       0.00000           0.106004            2.88451
     36       0.00000           0.125400            3.41230
     37       0.00000           0.157315            4.28075
     38       0.00000           0.208299            5.66809
     39       0.00000           0.226958            6.17584
     40       0.00000           0.236312            6.43037
     41       0.00000           0.249004            6.77573
     42       0.00000           0.277522            7.55175
     43       0.00000           0.282606            7.69009
     44       0.00000           0.297373            8.09194
     45       0.00000           0.321208            8.74051
     46       0.00000           0.346067            9.41696
     47       0.00000           0.372409           10.13377
     48       0.00000           0.387396           10.54159
     49       0.00000           0.422025           11.48389
     50       0.00000           0.460652           12.53497
     51       0.00000           0.511125           13.90842
     52       0.00000           0.553697           15.06686
     53       0.00000           0.557398           15.16757

  Highest occupied state (VBM) at    -10.68207866 eV
  | Occupation number:      2.00000000

  Lowest unoccupied state (CBM) at    -4.28305033 eV
  | Occupation number:      0.00000000

  Overall HOMO-LUMO gap:      6.39902834 eV.
  Calculating total energy contributions from superposition of free atom densities.

  Total energy components:
  | Sum of eigenvalues            :        -188.84949664 Ha       -5138.85626562 eV
  | XC energy correction          :         -41.79794857 Ha       -1137.38004986 eV
  | XC potential correction       :          53.73290558 Ha        1462.14675395 eV
  | Free-atom electrostatic energy:        -146.84041480 Ha       -3995.73098724 eV
  | Hartree energy correction     :           0.00000000 Ha           0.00000000 eV
  | Entropy correction            :           0.00000000 Ha           0.00000000 eV
  | ---------------------------
  | Total energy                  :        -323.75495443 Ha       -8809.82054878 eV
  | Total energy, T -> 0          :        -323.75495443 Ha       -8809.82054878 eV  <-- do not rely on this value for anything but (periodic) metals
  | Electronic free energy        :        -323.75495443 Ha       -8809.82054878 eV

  Derived energy quantities:
  | Kinetic energy                :         320.51939244 Ha        8721.77642730 eV
  | Electrostatic energy          :        -602.47639830 Ha      -16394.21692622 eV
  | Energy correction for multipole
  | error in Hartree potential    :           0.00000000 Ha           0.00000000 eV
  | Sum of eigenvalues per atom                           :        -395.29663582 eV
  | Total energy (T->0) per atom                          :        -677.67850375 eV  <-- do not rely on this value for anything but (periodic) metals
  | Electronic free energy per atom                       :        -677.67850375 eV
  
  --------------------------------------------
  Constructing auxiliary basis (full product) ...
  
  Product basis:
  | charge radius: extent of product basis function
  | field radius: extent of its Coulomb potential
  | Species   l  charge radius    field radius  multipol momen
  |    H      1     3.910002 A      3.910002 A       -8.637898E-17 a.u.
  |    H      1     3.958095 A      3.958095 A        5.444185E-18 a.u.
  |    H      0     4.527807 A      4.527807 A        1.857189E-16 a.u.
  |    H      0     4.527807 A      4.583499 A       -4.742363E-16 a.u.
  |    H      0     4.527807 A      4.583499 A        1.511233E-16 a.u.
  |    H      2     3.678162 A  1.011968E+04 A            0.556529 a.u.
  |    H      1     3.958095 A  1.722617E+06 A            0.843268 a.u.
  |    H      0     4.527807 A  3.861131E+12 A            0.580635 a.u.
  |    C      0     2.562483 A      2.562483 A       -2.138868E-17 a.u.
  |    C      0     3.003870 A      3.003870 A       -2.366590E-16 a.u.
  |    C      0     3.003870 A      3.003870 A       -1.564494E-16 a.u.
  |    C      1     3.272245 A      3.272245 A        4.012921E-17 a.u.
  |    C      0     3.312494 A      3.312494 A        3.019301E-17 a.u.
  |    C      3     4.077671 A      4.077671 A        2.357139E-15 a.u.
  |    C      3     4.077671 A      4.077671 A       -2.191957E-15 a.u.
  |    C      1     4.496620 A      4.496620 A        1.978738E-16 a.u.
  |    C      0     4.496620 A      4.551928 A        6.453419E-16 a.u.
  |    C      2     4.551928 A      4.551928 A       -2.693861E-18 a.u.
  |    C      2     4.551928 A      4.551928 A       -9.212639E-16 a.u.
  |    C      2     4.551928 A      4.551928 A       -2.154936E-16 a.u.
  |    C      2     4.551928 A      4.551928 A       -7.280175E-16 a.u.
  |    C      0     4.551928 A      4.607917 A       -1.995377E-17 a.u.
  |    C      1     4.551928 A      4.607917 A       -1.059660E-16 a.u.
  |    C      1     4.551928 A      4.607917 A        2.862884E-16 a.u.
  |    C      1     4.607917 A      4.607917 A       -2.311442E-16 a.u.
  |    C      2     4.607917 A      4.607917 A        1.710533E-15 a.u.
  |    C      0     4.607917 A      4.664595 A        1.616681E-16 a.u.
  |    C      4     3.835889 A  2.962973E+02 A            4.379483 a.u.
  |    C      3     4.127827 A  1.728652E+03 A            9.061838 a.u.
  |    C      2     4.607917 A  2.473919E+04 A            8.130983 a.u.
  |    C      1     4.607917 A  2.511222E+06 A            1.792083 a.u.
  |    C      0     4.607917 A  4.248934E+12 A            0.638953 a.u.
  |    N      0     2.334858 A      2.334858 A       -1.253478E-16 a.u.
  |    N      3     3.761152 A      3.761152 A        9.033571E-16 a.u.
  |    N      3     3.761152 A      3.761152 A        1.070001E-15 a.u.
  |    N      0     4.198596 A      4.198596 A        2.842254E-16 a.u.
  |    N      0     4.198596 A      4.198596 A       -8.391597E-17 a.u.
  |    N      0     4.302517 A      4.302517 A       -6.361074E-17 a.u.
  |    N      1     4.302517 A      4.302517 A        6.508147E-17 a.u.
  |    N      0     4.409010 A      4.409010 A        3.012764E-16 a.u.
  |    N      1     4.463241 A      4.463241 A        1.251412E-16 a.u.
  |    N      2     4.518138 A      4.518138 A        6.542091E-16 a.u.
  |    N      1     4.518138 A      4.573712 A        6.274397E-17 a.u.
  |    N      1     4.573712 A      4.573712 A       -2.855156E-17 a.u.
  |    N      2     4.573712 A      4.573712 A       -1.160557E-15 a.u.
  |    N      2     4.573712 A      4.573712 A        5.995218E-16 a.u.
  |    N      2     4.573712 A      4.573712 A       -1.004528E-16 a.u.
  |    N      0     4.573712 A      4.629968 A        2.338215E-16 a.u.
  |    N      0     4.573712 A      4.629968 A        1.736370E-16 a.u.
  |    N      1     4.573712 A      4.629968 A        7.247547E-16 a.u.
  |    N      1     4.573712 A      4.629968 A        7.544402E-17 a.u.
  |    N      2     4.573712 A      4.629968 A       -2.369227E-15 a.u.
  |    N      4     3.495147 A  2.647627E+02 A            2.494988 a.u.
  |    N      3     3.807414 A  1.563407E+03 A            6.062801 a.u.
  |    N      2     4.573712 A  2.408066E+04 A            7.498801 a.u.
  |    N      1     4.573712 A  2.550503E+06 A            1.848585 a.u.
  |    N      0     4.573712 A  4.174725E+12 A            0.627794 a.u.
  |    O      0     2.043000 A      2.043000 A       -6.504041E-17 a.u.
  |    O      3     3.498446 A      3.498446 A        5.299668E-17 a.u.
  |    O      3     3.498446 A      3.498446 A       -6.746408E-17 a.u.
  |    O      0     3.905335 A      3.905335 A       -8.038405E-17 a.u.
  |    O      0     3.905335 A      3.905335 A        1.060111E-16 a.u.
  |    O      0     4.101052 A      4.101052 A        2.388574E-16 a.u.
  |    O      1     4.101052 A      4.101052 A       -6.369117E-17 a.u.
  |    O      0     4.359549 A      4.359549 A        3.605031E-18 a.u.
  |    O      1     4.413171 A      4.413171 A       -4.013949E-17 a.u.
  |    O      1     4.522403 A      4.522403 A       -3.476450E-16 a.u.
  |    O      1     4.522403 A      4.522403 A        4.075594E-16 a.u.
  |    O      2     4.522403 A      4.522403 A       -3.352378E-16 a.u.
  |    O      0     4.578029 A      4.578029 A       -3.822280E-16 a.u.
  |    O      1     4.578029 A      4.578029 A        1.755984E-16 a.u.
  |    O      2     4.578029 A      4.578029 A        6.729708E-16 a.u.
  |    O      2     4.522403 A      4.578029 A       -8.807366E-16 a.u.
  |    O      2     4.578029 A      4.578029 A       -1.384576E-15 a.u.
  |    O      2     4.578029 A      4.578029 A        9.488087E-16 a.u.
  |    O      0     4.578029 A      4.634338 A       -3.034683E-16 a.u.
  |    O      1     4.578029 A      4.634338 A        5.717587E-16 a.u.
  |    O      4     3.251020 A  2.395699E+02 A            1.513372 a.u.
  |    O      3     3.541477 A  1.435492E+03 A            4.309127 a.u.
  |    O      2     4.578029 A  2.336164E+04 A            6.846944 a.u.
  |    O      1     4.578029 A  2.655459E+06 A            2.003859 a.u.
  |    O      0     4.578029 A  4.136183E+12 A            0.621998 a.u.

  | Shrink_full_auxil_basis : there are       82  radial auxiliary wave functions
                            accepted and      31 rejected.
  | Shrink_full_auxil_basis : there are totally                 651 partial auxiliary wave functions.
  prodbas_tasks_distribution_pbc not up to date - distributing tasks.
 
  | Number of product basis functions per thread :   651
  Parallel distribution of product basis not up to date - distributing tasks.
 
  | Number of product basis functions per thread :   651
  | Minimal requirement for computer memory :           0.038 Gbs
  -----------------------------------------
  --- Initializing Fock matrix calculations
  -----------------------------------------
  screening_threshold (crit_val) =  0.000000100000
  coul_mat_threshold =  0.000000000100
  Number of super-cells in X Y Z:       0       0       0
  Number of atoms pairs total:          169
  Atom pair distribution:
  Cell:        0       0       0 atom pairs:      169
  Number of atoms pairs in BvK cells:          169
  Initializing work distribution for fock matrix calculation
  -----------------------------------------------------
  Dividing atoms among tasks for exact exchange energy:
  Atom:     1 Weight:   86.000
  Atom:     2 Weight:   18.000
  Atom:     3 Weight:   89.000
  Atom:     4 Weight:   18.000
  Atom:     5 Weight:   18.000
  Atom:     6 Weight:   86.000
  Atom:     7 Weight:   18.000
  Atom:     8 Weight:   18.000
  Atom:     9 Weight:   18.000
  Atom:    10 Weight:   86.000
  Atom:    11 Weight:   89.000
  Atom:    12 Weight:   89.000
  Atom:    13 Weight:   18.000

  Average weight per task:   651.00

  Number of "big" (above average) atoms  :     0
  Number of "small" (below average) atoms:    13

  All atoms have below average work per task
  No atom will be divided among tasks, atoms will be sorted to get best load distribution

  Atom division among tasks:
  Atom     1: (initial) task:     0, # of tasks:     1
  Atom     2: (initial) task:     0, # of tasks:     1
  Atom     3: (initial) task:     0, # of tasks:     1
  Atom     4: (initial) task:     0, # of tasks:     1
  Atom     5: (initial) task:     0, # of tasks:     1
  Atom     6: (initial) task:     0, # of tasks:     1
  Atom     7: (initial) task:     0, # of tasks:     1
  Atom     8: (initial) task:     0, # of tasks:     1
  Atom     9: (initial) task:     0, # of tasks:     1
  Atom    10: (initial) task:     0, # of tasks:     1
  Atom    11: (initial) task:     0, # of tasks:     1
  Atom    12: (initial) task:     0, # of tasks:     1
  Atom    13: (initial) task:     0, # of tasks:     1

  -----------------------------------------------------
  Task     0 : Coulomb matrix distribution changed.
  Overall Coulomb matrix distribution changed.
  Coulomb matrix subdivision:
  Task     0 works on full atoms (no Coulomb matrix division)
  Task      0: my_n_atoms:     13 my_atom_list:      1     2     3     4     5     6     7     8     9    10    11    12    13
  Task      0: my_n_atom_pairs:    169
  Memory needs for ovlp3fn and Coulomb matrix:
  For Coulomb matrix, this is the upper limit if no compression occurs
  ovlp3fn:       30.388 MB, Coulomb:       13.562 MB
  --- Initializing LVL triples
  | Storage requirements for basis-basbas products (processor-local):
  |   Species H: n_prodsfn:    28; storage:        0.88 MiB.
  |   Species C: n_prodsfn:   202; storage:        6.31 MiB.
  |   Species N: n_prodsfn:   211; storage:        6.59 MiB.
  |   Species O: n_prodsfn:   211; storage:        6.59 MiB.

  --- Initializing Coulomb matrix calculations
  Preparing TB like auxiliary 2-center Coulomb matrix
  SBT integration errors (all should be 'small'):
  large logFT aliasing -> increase N/lnrange
  large SBT aliasing -> decrease lnk0 & increase lnk0+lnrange
  large SBT ringing -> decrease lnr0 & increase lnr0+lnrange
  |            El't  L: logFT-al.   small-k   large-k   small-r   large-r
  | Need to store  5468 splines of   208 points taking       8976 KiB.
  | Spline reduction from  4096 to   208 points by (cutting and)     1 x coarsening gives error:  0.00E+00
  Finished with initialize_tb_auxmat/lvl_triples, time:        1.249
  --- Calculating OVLP3FN
  Allocating        0.279 MB for coeff_3fn
  Allocating        0.837 MB for d_coeff_3fn
  --- Done calculating OVLP3FN, time:       13.908
  Atomic logSBT for LVL-triples                :  max(cpu_time)    wall_clock(cpu1)
  | Multiplication with kernel                 :        0.090 s           0.093 s
  | Main matrix multiplication                 :        2.507 s           2.493 s
  | Analytic angular integration               :        0.066 s           0.070 s
  | Kernel construction                        :        0.199 s           0.203 s
  | Overall 2-center overlap time              :        3.036 s           3.041 s
  | 3-center preparation multiplications       :        0.140 s           0.152 s
  | 3-center preparation SBTs                  :        9.190 s           9.207 s
  | 3-center combinations                      :        3.221 s           3.209 s
  | Overal 3-center time                       :       12.568 s          12.587 s
  | LVL initialization                         :        0.069 s           0.070 s
  | Whole LVL-triples                          :        0.069 s           0.070 s

  --- Done getting norm of OVLP3FN, time:        0.005
  --- Calculating Coulomb matrices
  Allocating        0.063 MB for aux_mat
  Allocating        0.190 MB for d_aux_mat
  Time to calculate Coulomb Matrices   :        0.041
  Number of Coulomb matrix elements:
  | Task     0 total:        1695204, > threshold:        1459849, stored:        1550547
  --- Done init_fock_matrix_calculations
  Atomic logSBT for 2-center Coulomb matrix    :  max(cpu_time)    wall_clock(cpu1)
  | TB initialization                          :        1.179 s           1.179 s
  | TB usage                                   :        0.085 s           0.077 s

  Calculating non-local Hartree-Fock exchange by two-center RI (RI-LVL).
  screening_threshold (crit_val) =  0.000000100000
  Allocating        0.113 MB for dm_cols
  Allocating        0.169 MB for ovlp3fn_rcv
  Allocating        0.113 MB for fock_matrix
  Allocating        0.001 MB for fock_matrix_row
  Exact exchange progress report - outermost basis function loop i_basis_r1: 1 .. 119
  |        1         2         3         4         5         6         7         8         9        10
  |       11        12        13        14        15        16        17        18        19        20
  |       21        22        23        24        25        26        27        28        29        30
  |       31        32        33        34        35        36        37        38        39        40
  |       41        42        43        44        45        46        47        48        49        50
  |       51        52        53        54        55        56        57        58        59        60
  |       61        62        63        64        65        66        67        68        69        70
  |       71        72        73        74        75        76        77        78        79        80
  |       81        82        83        84        85        86        87        88        89        90
  |       91        92        93        94        95        96        97        98        99       100
  |      101       102       103       104       105       106       107       108       109       110
  |      111       112       113       114       115       116       117       118       119  
  Full exact exchange energy:    1143.038586616171 eV.
  Times            DM_x_o3fn   CM_x_o3fn    Products        Sync   Imbalance    Pre/Post       Other  Total calc
  | Times    0:        0.091       0.129       0.130       0.004       0.000       0.001       0.024       0.379
  | Times  sum:        0.091       0.129       0.130       0.004       0.000       0.001       0.024       0.379

  Decomposition of Other based on code block (only on MPI task 0):
  Times             Block #1    Block #2    Block #3    Block #4    Block #5    Block #6    Block #7    Block #8
  | Times    0:        0.000       0.000       0.003       0.000       0.001       0.001       0.006       0.000

  Times             Block #9   Block #10   Block #11   Block #12   Block #13   Block #14   Block #15   Block #16
  | Times    0:        0.002       0.002       0.001       0.004       0.004       0.000       0.000       0.000

  Times            Block Sum    Expected
  | Times    0:        0.023       0.024
  Initialize hartree_potential_storage
  Max. number of atoms included in rho_multipole:           13

  End scf initialization - timings             :  max(cpu_time)    wall_clock(cpu1)
  | Time for scf. initialization               :       16.798 s          16.827 s
  | Boundary condition initialization          :        0.000 s           0.000 s
  | Integration                                :        0.719 s           0.720 s
  | Solution of K.-S. eqns.                    :        0.004 s           0.004 s
  | Grid partitioning                          :        0.110 s           0.110 s
  | Preloading free-atom quantities on grid    :        0.002 s           0.002 s
  | Free-atom superposition energy             :        0.084 s           0.084 s
  | Total energy evaluation                    :        0.000 s           0.000 s
  | Product basis setup: Total time            :       15.639 s          15.666 s

  Partial memory accounting:
  | Current value for overall tracked memory usage on task 0  :          43.666 MB
  | Peak value for overall tracked memory usage on task 0     :          44.196 MB after allocating dm_tmp
  | Largest tracked array allocation on task 0 so far         :           1.186 MB  when allocating ovlp3fn for atom
  Note:  These values currently only include a subset of arrays which are explicitly tracked.
  The "true" memory usage will be greater.
------------------------------------------------------------

------------------------------------------------------------
          Begin self-consistency iteration #    1

  Date     :  20200902, Time     :  133949.123
------------------------------------------------------------
  Evaluating new KS density.
  Integration grid: deviation in total charge (<rho> - N_e) =   4.263256E-14
  Pulay mixing of updated and previous charge densities.

  Evaluating partitioned Hartree potential by multipole expansion.
  | Analytical far-field extrapolation by fixed multipoles:
  | Hartree multipole sum: apparent total charge =  -0.409528E-04
  Summing up the Hartree potential.
  Time summed over all CPUs for potential: real work        0.283 s, elapsed        0.283 s
  | RMS charge density error from multipole expansion :   0.593787E-02

  Integrating Hamiltonian matrix: batch-based integration.
  Time summed over all CPUs for integration: real work        0.495 s, elapsed        0.495 s
  Calculating non-local Hartree-Fock exchange by two-center RI (RI-LVL).
  screening_threshold (crit_val) =  0.000000100000
  Allocating        0.113 MB for dm_cols
  Allocating        0.169 MB for ovlp3fn_rcv
  Allocating        0.113 MB for fock_matrix
  Allocating        0.001 MB for fock_matrix_row
  Exact exchange progress report - outermost basis function loop i_basis_r1: 1 .. 119
  |        1         2         3         4         5         6         7         8         9        10
  |       11        12        13        14        15        16        17        18        19        20
  |       21        22        23        24        25        26        27        28        29        30
  |       31        32        33        34        35        36        37        38        39        40
  |       41        42        43        44        45        46        47        48        49        50
  |       51        52        53        54        55        56        57        58        59        60
  |       61        62        63        64        65        66        67        68        69        70
  |       71        72        73        74        75        76        77        78        79        80
  |       81        82        83        84        85        86        87        88        89        90
  |       91        92        93        94        95        96        97        98        99       100
  |      101       102       103       104       105       106       107       108       109       110
  |      111       112       113       114       115       116       117       118       119  
  Full exact exchange energy:    1143.038586616171 eV.
  Times            DM_x_o3fn   CM_x_o3fn    Products        Sync   Imbalance    Pre/Post       Other  Total calc
  | Times    0:        0.093       0.132       0.131       0.004       0.000       0.000       0.023       0.383
  | Times  sum:        0.093       0.132       0.131       0.004       0.000       0.000       0.023       0.383

  Decomposition of Other based on code block (only on MPI task 0):
  Times             Block #1    Block #2    Block #3    Block #4    Block #5    Block #6    Block #7    Block #8
  | Times    0:        0.000       0.000       0.003       0.000       0.001       0.001       0.006       0.000

  Times             Block #9   Block #10   Block #11   Block #12   Block #13   Block #14   Block #15   Block #16
  | Times    0:        0.002       0.002       0.001       0.004       0.004       0.000       0.000       0.000

  Times            Block Sum    Expected
  | Times    0:        0.023       0.023

  Updating Kohn-Sham eigenvalues and eigenvectors using ELSI and the ELPA eigensolver.
  Finished Cholesky decomposition
  | Time :     0.000 s
  Finished transformation to standard eigenproblem
  | Time :     0.000 s
  Starting LAPACK eigensolver
  Finished solving standard eigenproblem
  | Time :     0.001 s
  Finished back-transformation of eigenvectors
  | Time :     0.000 s

  Obtaining occupation numbers and chemical potential using ELSI.
  | Chemical potential (Fermi level):    -7.86731663eV
  Writing Kohn-Sham eigenvalues.

  State    Occupation    Eigenvalue [Ha]    Eigenvalue [eV]
      1       2.00000         -19.365881         -526.97243
      2       2.00000         -19.292141         -524.96585
      3       2.00000         -14.493189         -394.37975
      4       2.00000         -10.447692         -284.29617
      5       2.00000         -10.400261         -283.00551
      6       2.00000         -10.372608         -282.25304
      7       2.00000          -1.262098          -34.34344
      8       2.00000          -1.161521          -31.60661
      9       2.00000          -1.032733          -28.10209
     10       2.00000          -0.897798          -24.43034
     11       2.00000          -0.795488          -21.64632
     12       2.00000          -0.721434          -19.63122
     13       2.00000          -0.660156          -17.96376
     14       2.00000          -0.620094          -16.87362
     15       2.00000          -0.594075          -16.16562
     16       2.00000          -0.578551          -15.74317
     17       2.00000          -0.570103          -15.51328
     18       2.00000          -0.547122          -14.88794
     19       2.00000          -0.527687          -14.35908
     20       2.00000          -0.514983          -14.01340
     21       2.00000          -0.473385          -12.88147
     22       2.00000          -0.442840          -12.05028
     23       2.00000          -0.400824          -10.90698
     24       2.00000          -0.385894          -10.50070
     25       0.00000          -0.073088           -1.98882
     26       0.00000          -0.000540           -0.01469
     27       0.00000           0.023021            0.62644
     28       0.00000           0.054554            1.48449
     29       0.00000           0.061497            1.67341
     30       0.00000           0.080397            2.18770
     31       0.00000           0.095997            2.61221
     32       0.00000           0.128256            3.49003
     33       0.00000           0.134498            3.65988
     34       0.00000           0.167688            4.56303
     35       0.00000           0.187523            5.10275
     36       0.00000           0.203861            5.54735
     37       0.00000           0.228678            6.22264
     38       0.00000           0.282479            7.68666
     39       0.00000           0.305488            8.31276
     40       0.00000           0.315977            8.59817
     41       0.00000           0.337311            9.17869
     42       0.00000           0.361401            9.83422
     43       0.00000           0.368262           10.02092
     44       0.00000           0.377723           10.27837
     45       0.00000           0.414111           11.26852
     46       0.00000           0.441274           12.00768
     47       0.00000           0.461076           12.54651
     48       0.00000           0.503057           13.68888
     49       0.00000           0.516215           14.04693
     50       0.00000           0.555924           15.12747
     51       0.00000           0.608379           16.55482
     52       0.00000           0.645230           17.55760
     53       0.00000           0.649083           17.66244

  Highest occupied state (VBM) at    -10.50069695 eV
  | Occupation number:      2.00000000

  Lowest unoccupied state (CBM) at    -1.98881614 eV
  | Occupation number:      0.00000000

  Overall HOMO-LUMO gap:      8.51188081 eV.

  Total energy components:
  | Sum of eigenvalues            :        -193.11711696 Ha       -5254.98412317 eV
  | XC energy correction          :         -21.52800053 Ha        -585.80669989 eV
  | XC potential correction       :          41.15529889 Ha        1119.89266219 eV
  | Free-atom electrostatic energy:        -146.84041480 Ha       -3995.73098724 eV
  | Hartree energy correction     :          -3.29887611 Ha         -89.76698633 eV
  | Entropy correction            :           0.00000000 Ha           0.00000000 eV
  | ---------------------------
  | Total energy                  :        -323.62910952 Ha       -8806.39613444 eV
  | Total energy, T -> 0          :        -323.62910952 Ha       -8806.39613444 eV  <-- do not rely on this value for anything but (periodic) metals
  | Electronic free energy        :        -323.62910952 Ha       -8806.39613444 eV

  Derived energy quantities:
  | Kinetic energy                :         385.37651999 Ha       10486.62866273 eV
  | Electrostatic energy          :        -603.75488744 Ha      -16429.00638587 eV
  | Energy correction for multipole
  | error in Hartree potential    :           0.01199468 Ha           0.32639175 eV
  | Sum of eigenvalues per atom                           :        -404.22954794 eV
  | Total energy (T->0) per atom                          :        -677.41508726 eV  <-- do not rely on this value for anything but (periodic) metals
  | Electronic free energy per atom                       :        -677.41508726 eV

  Self-consistency convergence accuracy:
  | Change of charge density      :  0.5853E+00
  | Change of sum of eigenvalues  : -0.1161E+03 eV
  | Change of total energy        :  0.3424E+01 eV

  End self-consistency iteration #     1       :  max(cpu_time)    wall_clock(cpu1)
  | Time for this iteration                    :        1.565 s           1.570 s
  | Charge density update                      :        0.390 s           0.390 s
  | Density mixing                             :        0.006 s           0.006 s
  | Hartree multipole update                   :        0.009 s           0.009 s
  | Hartree multipole summation                :        0.284 s           0.284 s
  | Integration                                :        0.494 s           0.495 s
  | Fock matrix evaluation                     :        0.380 s           0.383 s
  | Solution of K.-S. eqns.                    :        0.002 s           0.002 s
  | Total energy evaluation                    :        0.000 s           0.000 s

  Partial memory accounting:
  | Current value for overall tracked memory usage on task 0  :          43.666 MB
  | Peak value for overall tracked memory usage on task 0     :          44.196 MB after allocating dm_tmp
  | Largest tracked array allocation on task 0 so far         :           1.186 MB  when allocating ovlp3fn for atom
  Note:  These values currently only include a subset of arrays which are explicitly tracked.
  The "true" memory usage will be greater.
------------------------------------------------------------

------------------------------------------------------------
          Begin self-consistency iteration #    2

  Date     :  20200902, Time     :  133950.694
------------------------------------------------------------
  Evaluating new KS density.
  Integration grid: deviation in total charge (<rho> - N_e) =   2.131628E-14
  Pulay mixing of updated and previous charge densities.

  Evaluating partitioned Hartree potential by multipole expansion.
  | Analytical far-field extrapolation by fixed multipoles:
  | Hartree multipole sum: apparent total charge =  -0.213712E-03
  Summing up the Hartree potential.
  Time summed over all CPUs for potential: real work        0.283 s, elapsed        0.283 s
  | RMS charge density error from multipole expansion :   0.174361E-01

  Integrating Hamiltonian matrix: batch-based integration.
  Time summed over all CPUs for integration: real work        0.502 s, elapsed        0.502 s
  Calculating non-local Hartree-Fock exchange by two-center RI (RI-LVL).
  screening_threshold (crit_val) =  0.000000100000
  Allocating        0.113 MB for dm_cols
  Allocating        0.169 MB for ovlp3fn_rcv
  Allocating        0.113 MB for fock_matrix
  Allocating        0.001 MB for fock_matrix_row
  Exact exchange progress report - outermost basis function loop i_basis_r1: 1 .. 119
  |        1         2         3         4         5         6         7         8         9        10
  |       11        12        13        14        15        16        17        18        19        20
  |       21        22        23        24        25        26        27        28        29        30
  |       31        32        33        34        35        36        37        38        39        40
  |       41        42        43        44        45        46        47        48        49        50
  |       51        52        53        54        55        56        57        58        59        60
  |       61        62        63        64        65        66        67        68        69        70
  |       71        72        73        74        75        76        77        78        79        80
  |       81        82        83        84        85        86        87        88        89        90
  |       91        92        93        94        95        96        97        98        99       100
  |      101       102       103       104       105       106       107       108       109       110
  |      111       112       113       114       115       116       117       118       119  
  Full exact exchange energy:    1135.624830060660 eV.
  Times            DM_x_o3fn   CM_x_o3fn    Products        Sync   Imbalance    Pre/Post       Other  Total calc
  | Times    0:        0.093       0.135       0.132       0.004       0.000       0.000       0.027       0.391
  | Times  sum:        0.093       0.135       0.132       0.004       0.000       0.000       0.027       0.391

  Decomposition of Other based on code block (only on MPI task 0):
  Times             Block #1    Block #2    Block #3    Block #4    Block #5    Block #6    Block #7    Block #8
  | Times    0:        0.000       0.000       0.005       0.000       0.001       0.001       0.006       0.000

  Times             Block #9   Block #10   Block #11   Block #12   Block #13   Block #14   Block #15   Block #16
  | Times    0:        0.002       0.002       0.001       0.004       0.004       0.000       0.000       0.000

  Times            Block Sum    Expected
  | Times    0:        0.026       0.027

  Updating Kohn-Sham eigenvalues and eigenvectors using ELSI and the ELPA eigensolver.
  Finished Cholesky decomposition
  | Time :     0.000 s
  Finished transformation to standard eigenproblem
  | Time :     0.000 s
  Starting LAPACK eigensolver
  Finished solving standard eigenproblem
  | Time :     0.002 s
  Finished back-transformation of eigenvectors
  | Time :     0.000 s

  Obtaining occupation numbers and chemical potential using ELSI.
  | Chemical potential (Fermi level):    -6.32785266eV
  Highest occupied state (VBM) at     -7.23894941 eV
  | Occupation number:      2.00000000

  Lowest unoccupied state (CBM) at    -0.44563997 eV
  | Occupation number:      0.00000000

  Overall HOMO-LUMO gap:      6.79330943 eV.

  Checking to see if s.c.f. parameters should be adjusted.

  Total energy components:
  | Sum of eigenvalues            :        -187.86843257 Ha       -5112.16015408 eV
  | XC energy correction          :         -22.04833484 Ha        -599.96571692 eV
  | XC potential correction       :          41.68760759 Ha        1134.37751892 eV
  | Free-atom electrostatic energy:        -146.84041480 Ha       -3995.73098724 eV
  | Hartree energy correction     :          -8.51616009 Ha        -231.73650671 eV
  | Entropy correction            :           0.00000000 Ha           0.00000000 eV
  | ---------------------------
  | Total energy                  :        -323.58573471 Ha       -8805.21584603 eV
  | Total energy, T -> 0          :        -323.58573471 Ha       -8805.21584603 eV  <-- do not rely on this value for anything but (periodic) metals
  | Electronic free energy        :        -323.58573471 Ha       -8805.21584603 eV

  Derived energy quantities:
[...]
  | Electronic free energy        :        -323.48460405 Ha       -8802.46394076 eV

  Derived energy quantities:
  | Kinetic energy                :         384.22776650 Ha       10455.36948988 eV
  | Electrostatic energy          :        -603.42402889 Ha      -16420.00326660 eV
  | Energy correction for multipole
  | error in Hartree potential    :           0.04043272 Ha           1.10023035 eV
  | Sum of eigenvalues per atom                           :        -393.71175347 eV
  | Total energy (T->0) per atom                          :        -677.11261083 eV  <-- do not rely on this value for anything but (periodic) metals
  | Electronic free energy per atom                       :        -677.11261083 eV

  atomic forces [eV/Ang]:
  -----------------------
  atom #    1
   Hellmann-Feynman              : -0.260780E+00  0.894816E+00  0.135530E+01
   Ionic forces                  :  0.000000E+00  0.000000E+00  0.000000E+00
   Multipole                     :  0.913490E-01  0.318595E+00 -0.222267E+00
   Hartree-Fock exchange         :  0.106290E+01 -0.364698E+00 -0.696466E+00
   Pulay + GGA                   : -0.184868E+01 -0.270988E+00 -0.141955E+01
   Van der Waals                 :  0.520724E-02 -0.162687E-02 -0.203168E-02
   ----------------------------------------------------------------
   Total forces(   1)            : -0.950001E+00  0.576098E+00 -0.985014E+00
  atom #    2
   Hellmann-Feynman              :  0.683855E-01 -0.658371E-01 -0.128377E+00
   Ionic forces                  :  0.000000E+00  0.000000E+00  0.000000E+00
   Multipole                     :  0.172186E+00 -0.362616E-02 -0.273464E-01
   Hartree-Fock exchange         : -0.404898E+01 -0.814810E-01  0.513984E-02
   Pulay + GGA                   :  0.390708E+01  0.818085E-01 -0.667551E-01
   Van der Waals                 : -0.758954E-02  0.133660E-03  0.434546E-02
   ----------------------------------------------------------------
   Total forces(   2)            :  0.910865E-01 -0.690021E-01 -0.212993E+00
  atom #    3
   Hellmann-Feynman              :  0.466488E+01 -0.100823E+02 -0.524912E+01
   Ionic forces                  :  0.000000E+00  0.000000E+00  0.000000E+00
   Multipole                     : -0.140528E+00 -0.513133E-01 -0.865514E+00
   Hartree-Fock exchange         : -0.218330E+01  0.387223E+01  0.953673E+00
   Pulay + GGA                   : -0.170312E+01  0.559985E+01  0.599998E+01
   Van der Waals                 : -0.365198E-02  0.244197E-02  0.450689E-02
   ----------------------------------------------------------------
   Total forces(   3)            :  0.634285E+00 -0.659066E+00  0.843530E+00
  atom #    4
   Hellmann-Feynman              :  0.263732E+00  0.241582E+00  0.358237E-02
   Ionic forces                  :  0.000000E+00  0.000000E+00  0.000000E+00
   Multipole                     : -0.944870E-01  0.254353E-01 -0.456440E-01
   Hartree-Fock exchange         :  0.525130E+01  0.224855E+00 -0.703054E-01
   Pulay + GGA                   : -0.500037E+01 -0.345957E+00 -0.114166E-02
   Van der Waals                 :  0.423929E-02 -0.142192E-02  0.719915E-02
   ----------------------------------------------------------------
   Total forces(   4)            :  0.424420E+00  0.144493E+00 -0.106310E+00
  atom #    5
   Hellmann-Feynman              : -0.238774E+00 -0.467445E-01  0.216835E+00
   Ionic forces                  :  0.000000E+00  0.000000E+00  0.000000E+00
   Multipole                     : -0.182405E-01  0.706271E-01 -0.755799E-01
   Hartree-Fock exchange         : -0.170619E+01 -0.436999E+01  0.233960E+01
   Pulay + GGA                   :  0.168492E+01  0.411248E+01 -0.231592E+01
   Van der Waals                 :  0.627519E-03 -0.247948E-02  0.825376E-02
   ----------------------------------------------------------------
   Total forces(   5)            : -0.277655E+00 -0.236108E+00  0.173197E+00
  atom #    6
   Hellmann-Feynman              :  0.363845E+00 -0.124847E+01  0.212688E+00
   Ionic forces                  :  0.000000E+00  0.000000E+00  0.000000E+00
   Multipole                     : -0.116675E+00  0.760054E+00  0.341362E+00
   Hartree-Fock exchange         : -0.596745E+00  0.152795E+01  0.942855E+00
   Pulay + GGA                   :  0.627725E+00 -0.106553E+01 -0.105029E+01
   Van der Waals                 : -0.693305E-02  0.300353E-02  0.697897E-02
   ----------------------------------------------------------------
   Total forces(   6)            :  0.271217E+00 -0.229911E-01  0.453596E+00
  atom #    7
   Hellmann-Feynman              : -0.112002E+00  0.292754E-01 -0.427476E-01
   Ionic forces                  :  0.000000E+00  0.000000E+00  0.000000E+00
   Multipole                     :  0.501933E-01  0.114154E+00  0.462280E-01
   Hartree-Fock exchange         : -0.300426E+01 -0.249585E+01 -0.436214E+00
   Pulay + GGA                   :  0.291227E+01  0.243160E+01  0.421562E+00
   Van der Waals                 :  0.131281E-03 -0.885617E-02 -0.340804E-02
   ----------------------------------------------------------------
   Total forces(   7)            : -0.153669E+00  0.703170E-01 -0.145788E-01
  atom #    8
   Hellmann-Feynman              :  0.952890E-01 -0.150991E+00  0.725842E-01
   Ionic forces                  :  0.000000E+00  0.000000E+00  0.000000E+00
   Multipole                     : -0.105505E+00  0.126431E+00 -0.492308E-02
   Hartree-Fock exchange         :  0.301397E+01 -0.184734E+01  0.217674E+01
   Pulay + GGA                   : -0.291990E+01  0.179294E+01 -0.211003E+01
   Van der Waals                 :  0.402373E-02 -0.863312E-02 -0.252826E-02
   ----------------------------------------------------------------
   Total forces(   8)            :  0.878771E-01 -0.875962E-01  0.131848E+00
  atom #    9
   Hellmann-Feynman              :  0.622152E-01  0.323031E+00 -0.121175E+00
   Ionic forces                  :  0.000000E+00  0.000000E+00  0.000000E+00
   Multipole                     : -0.716316E-01  0.437304E-01  0.127593E+00
   Hartree-Fock exchange         :  0.138470E+01  0.105206E+01 -0.359764E+01
   Pulay + GGA                   : -0.142681E+01 -0.101403E+01  0.350076E+01
   Van der Waals                 :  0.402980E-02 -0.372786E-02 -0.942850E-02
   ----------------------------------------------------------------
   Total forces(   9)            : -0.474989E-01  0.401060E+00 -0.998838E-01
  atom #   10
   Hellmann-Feynman              :  0.396645E+00 -0.129148E+01 -0.662904E+01
   Ionic forces                  :  0.000000E+00  0.000000E+00  0.000000E+00
   Multipole                     : -0.496602E-02 -0.201270E+00 -0.125882E+00
   Hartree-Fock exchange         : -0.151974E+01 -0.731591E+01 -0.125143E+00
   Pulay + GGA                   :  0.658937E+00  0.660177E+01  0.327616E+01
   Van der Waals                 : -0.402519E-02 -0.526641E-02  0.194458E-02
   ----------------------------------------------------------------
   Total forces(  10)            : -0.473150E+00 -0.221215E+01 -0.360196E+01
  atom #   11
   Hellmann-Feynman              : -0.106343E+01 -0.124952E+02 -0.660950E+01
   Ionic forces                  :  0.000000E+00  0.000000E+00  0.000000E+00
   Multipole                     : -0.120552E+00 -0.934075E+00 -0.350322E-01
   Hartree-Fock exchange         :  0.113979E+01  0.100627E+02  0.414911E+01
   Pulay + GGA                   : -0.118081E-01  0.435896E+01  0.197740E+01
   Van der Waals                 :  0.175611E-02  0.177621E-01 -0.166233E-03
   ----------------------------------------------------------------
   Total forces(  11)            : -0.542484E-01  0.101007E+01 -0.518189E+00
  atom #   12
   Hellmann-Feynman              : -0.959705E+01 -0.482032E+01  0.104732E+02
   Ionic forces                  :  0.000000E+00  0.000000E+00  0.000000E+00
   Multipole                     : -0.501032E+00 -0.671548E+00  0.157222E+01
   Hartree-Fock exchange         :  0.628291E+01  0.293461E+01 -0.439717E+01
   Pulay + GGA                   :  0.491216E+01  0.335148E+01 -0.490007E+01
   Van der Waals                 :  0.509061E-02  0.790111E-02 -0.100392E-01
   ----------------------------------------------------------------
   Total forces(  12)            :  0.110207E+01  0.802122E+00  0.273814E+01
  atom #   13
   Hellmann-Feynman              : -0.409759E+00  0.520969E+00  0.121677E+01
   Ionic forces                  :  0.000000E+00  0.000000E+00  0.000000E+00
   Multipole                     :  0.914172E-01  0.375280E-01  0.228128E-01
   Hartree-Fock exchange         : -0.507636E+01 -0.319910E+01 -0.124419E+01
   Pulay + GGA                   :  0.474800E+01  0.292391E+01  0.120617E+01
   Van der Waals                 : -0.290581E-02  0.769461E-03 -0.562689E-02
   ----------------------------------------------------------------
   Total forces(  13)            : -0.649606E+00  0.284082E+00  0.119593E+01

  Timings for VdW correction (Tkatchenko-Scheffler 2009 or later):
  | CPU time:        0.441 s, Wall clock time:        0.443 s.
  Removing unitary transformations (pure translations, rotations) from forces on atoms.
  Atomic forces before filtering:
  | Net force on center of mass :   0.513092E-02  0.132964E-02 -0.268329E-02 eV/A
  | Net torque on center of mass:  -0.682871E-02 -0.697155E-02  0.732558E-02 eV
  Atomic forces after filtering:
  | Net force on center of mass :   0.892031E-16 -0.892031E-16  0.178406E-15 eV/A
  | Net torque on center of mass:  -0.169935E-14  0.472042E-15  0.377634E-15 eV

  Energy and forces in a compact form:
  | Total energy uncorrected      :         -0.880246394076069E+04 eV
  | Total energy corrected        :         -0.880246394076069E+04 eV  <-- do not rely on this value for anything but (periodic) metals
  | Electronic free energy        :         -0.880246394076069E+04 eV
  Total atomic forces (unitary forces cleaned) [eV/Ang]:
  |   1         -0.950521077502436E+00          0.575928737101693E+00         -0.984933438064877E+00
  |   2          0.905665978765520E-01         -0.695183206317447E-01         -0.213241807559552E+00
  |   3          0.633339920035042E+00         -0.658859460270262E+00          0.843755531164231E+00
  |   4          0.423463558619927E+00          0.145023447955943E+00         -0.105782933179079E+00
  |   5         -0.278466610720494E+00         -0.235931846033852E+00          0.173460602356297E+00
  |   6          0.271317591105494E+00         -0.231178502829459E-01          0.454025113320076E+00
  |   7         -0.153305922118681E+00          0.699133738844882E-01         -0.142811614754738E-01
  |   8          0.879581919759388E-01         -0.873780844429796E-01          0.132594974068595E+00
  |   9         -0.471811120660013E-01          0.400896792225241E+00         -0.993807403938830E-01
  |  10         -0.473854939821243E+00         -0.221231244396054E+01         -0.360196383781235E+01
  |  11         -0.554507145276259E-01          0.101002889663158E+01         -0.518328835330583E+00
  |  12          0.110179098901279E+01          0.801826849162780E+00          0.273822370258745E+01
  |  13         -0.649656471869265E+00          0.283499908660597E+00          0.119585283031915E+01

  ------------------------------------ 
  Start decomposition of the XC Energy 
  ------------------------------------ 
  X and C from original XC functional choice 
  Hartree-Fock Energy :        -10.270328415 Ha           -279.469855438 eV
  X Energy            :        -41.056038734 Ha          -1117.191656049 eV
  C Energy            :         -1.603219515 Ha            -43.625822669 eV
  Total XC Energy     :        -42.659258250 Ha          -1160.817478718 eV
  ------------------------------------ 
  LDA X and C from self-consistent density 
  X Energy LDA        :        -37.266305592 Ha          -1014.067770359 eV
  C Energy LDA        :         -3.139393978 Ha            -85.427256641 eV
  ------------------------------------ 
  End decomposition of the XC Energy 
  ------------------------------------ 

------------------------------------------------------------

------------------------------------------------------------------------------
  Final output of selected total energy values:

  The following output summarizes some interesting total energy values
  at the end of a run (AFTER all relaxation, molecular dynamics, etc.).

  | Total energy of the DFT / Hartree-Fock s.c.f. calculation      :          -8802.463940761 eV
  | Final zero-broadening corrected energy (caution - metals only) :          -8802.463940761 eV
  | For reference only, the value of 1 Hartree used in FHI-aims is :             27.211384500 eV

  Before relying on these values, please be sure to understand exactly which
  total energy value is referred to by a given number. Different objects may
  all carry the same name 'total energy'. Definitions:

  Total energy of the DFT / Hartree-Fock s.c.f. calculation:
  | Note that this energy does not include ANY quantities calculated after the
  | s.c.f. cycle, in particular not ANY RPA, MP2, etc. many-body perturbation terms.

  Final zero-broadening corrected energy:
  | For metallic systems only, a broadening of the occupation numbers at the Fermi
  | level can be extrapolated back to zero broadening by an electron-gas inspired
  | formula. For all systems that are not real metals, this value can be
  | meaningless and should be avoided.

------------------------------------------------------------------------------
  Methods described in the following list of references were used in this FHI-aims run.
  If you publish the results, please make sure to cite these reference if they apply.
  FHI-aims is an academic code, and for our developers (often, Ph.D. students
  and postdocs), scientific credit in the community is essential.
  Thank you for helping us!

  For any use of FHI-aims, please cite:

    Volker Blum, Ralf Gehrke, Felix Hanke, Paula Havu, Ville Havu,
    Xinguo Ren, Karsten Reuter, and Matthias Scheffler
    'Ab initio molecular simulations with numeric atom-centered orbitals'
    Computer Physics Communications 180, 2175-2196 (2009)
    http://dx.doi.org/10.1016/j.cpc.2009.06.022


  For Hartree-Fock, hybrid functionals, or many-body perturbation theory used in your run, please cite:

    Xinguo Ren, Patrick Rinke, Volker Blum, Juergen Wieferink, Alex Tkatchenko,
    Andrea Sanfilippo, Karsten Reuter, and Matthias Scheffler,
    'Resolution-of-identity approach to Hartree-Fock, hybrid density functionals,
    RPA, MP2, and GW with numeric atom-centered orbital basis functions'
    New Journal of Physics 14, 053020 (2012).
    http://dx.doi.org/10.1088/1367-2630/14/5/053020


  The scalable eigensolver library ELPA was used in your run.
  ELPA is essential especially for large systems on hundreds or thousands of CPUs.
  For ELPA, please cite:

    Andreas Marek, Volker Blum, Rainer Johanni, Ville Havu, Bruno Lang,
    Thomas Auckenthaler, Alexander Heinecke, Hans-Joachim Bungartz, and Hermann Lederer,
    'The ELPA Library - Scalable Parallel Eigenvalue Solutions
    for Electronic Structure Theory and Computational Science'
    The Journal of Physics: Condensed Matter 26, 213201 (2014).
    http://dx.doi.org/10.1088/0953-8984/26/21/213201


  The ELSI infrastructure was used in your run to solve the Kohn-Sham electronic structure.
  Please check out http://elsi-interchange.org to learn more.
  If scalability is important for your project, please acknowledge ELSI by citing:

    V. W-z. Yu, F. Corsetti, A. Garcia, W. P. Huhn, M. Jacquelin, W. Jia,
    B. Lange, L. Lin, J. Lu, W. Mi, A. Seifitokaldani, A. Vazquez-Mayagoitia,
    C. Yang, H. Yang, and V. Blum
    'ELSI: A unified software interface for Kohn-Sham electronic structure solvers'
    Computer Physics Communications 222, 267-285 (2018).
    http://dx.doi.org/10.1016/j.cpc.2017.09.007


  For the real-space grid partitioning and parallelization used in this calculation, please cite:

    Ville Havu, Volker Blum, Paula Havu, and Matthias Scheffler,
    'Efficient O(N) integration for all-electron electronic structure calculation'
    'using numerically tabulated basis functions'
    Journal of Computational Physics 228, 8367-8379 (2009).
    http://dx.doi.org/10.1016/j.jcp.2009.08.008


  The high-level electronic structure method used in your calculation
  employed our efficient localized resolution of identity for the Coulomb operator.
  Some calculations, especially large-scale hybrid density functional theory,
  are only possible thanks to this development. For this feature, please cite:

    Arvid Ihrig, Juergen Wieferink, Igor Ying Zhang, Matti Ropo, Xinguo Ren,
    Patrick Rinke, Matthias Scheffler, and Volker Blum,
    'Accurate localized resolution of identity approach for linear-scaling
    hybrid density functionals and for many-body perturbation theory'
    New Journal of Physics 117, 093020 (2015).
    http://dx.doi.org/10.1088/1367-2630/17/9/093020

  Of course, there are many other important community references, e.g., those cited in the
  above references. Our list is limited to references that describe implementations in the
  FHI-aims code. The reason is purely practical (length of this list) - please credit others as well.

------------------------------------------------------------
          Leaving FHI-aims.
          Date     :  20200902, Time     :  134024.865

          Computational steps:
          | Number of self-consistency cycles          :           20
          | Number of SCF (re)initializations          :            1

          Detailed time accounting                     :  max(cpu_time)    wall_clock(cpu1)
          | Total time                                 :       52.517 s          52.732 s
          | Preparation time                           :        0.144 s           0.145 s
          | Boundary condition initalization           :        0.000 s           0.000 s
          | Grid partitioning                          :        0.110 s           0.110 s
          | Preloading free-atom quantities on grid    :        0.002 s           0.002 s
          | Free-atom superposition energy             :        0.084 s           0.084 s
          | Total time for integrations                :       10.629 s          10.651 s
          | Product basis setup: Total time            :       15.639 s          15.666 s
          | Total time evaluating exchange matrix      :        8.976 s           9.059 s
          | Total time for solution of K.-S. equations :        0.048 s           0.056 s
          | Total time for density & force components  :        8.721 s           8.741 s
          | Total time for mixing                      :        0.281 s           0.285 s
          | Total time for Hartree multipole update    :        0.176 s           0.179 s
          | Total time for Hartree multipole sum       :        6.951 s           6.965 s
          | Total time for total energy evaluation     :        0.003 s           0.002 s
          | Total time for vdW correction              :        0.441 s           0.443 s

          Partial memory accounting:
          | Residual value for overall tracked memory usage across tasks :           0.000 MB (should be 0.000 MB)
          | Peak values for overall tracked memory usage (after allocating hessian_basis_wave):
          |   Minimum:       45.112 MB (on task 1)
          |   Maximum:       45.112 MB (on task 1)
          |   Average:       45.112 MB
          | Largest tracked array allocation (ovlp3fn for atom):
          |   Minimum:        1.186 MB (on task 1)
          |   Maximum:        1.186 MB (on task 1)
          |   Average:        1.186 MB
          Note:  These values currently only include a subset of arrays which are explicitly tracked.
          The "true" memory usage will be greater.

          Have a nice day.
------------------------------------------------------------
