  MPI-parallelism will be employed.
------------------------------------------------------------
          Invoking FHI-aims ...
          Version 171221_1
          Compiled on 2019/09/09 at 14:39:39 on host puhti-login2.bullx.

          When using FHI-aims, please cite the following reference:

          Volker Blum, Ralf Gehrke, Felix Hanke, Paula Havu,
          Ville Havu, Xinguo Ren, Karsten Reuter, and Matthias Scheffler,
          'Ab Initio Molecular Simulations with Numeric Atom-Centered Orbitals',
          Computer Physics Communications 180, 2175-2196 (2009)

          For any questions about FHI-aims, please visit the aimsclub website
          with its forums and wiki. Contributions to both the forums and the
          wiki are warmly encouraged - they are for you, and everyone is welcome there.

------------------------------------------------------------



  Date     :  20200815, Time     :  004211.625
  Time zero on CPU 1             :   0.115380000000000E-01  s.
  Internal wall clock time zero  :           366684131.625  s.

  FHI-aims created a unique identifier for this run for later identification
  aims_uuid : 10101BBE-1460-4447-AFA9-CE89777CBA81

  Using        1 parallel tasks.
  Task        0 on host r16c11.bullx reporting.

  Performing system and environment tests:
  | Environment variable OMP_NUM_THREADS correctly set to 1.
  | Stacksize not measured: no C compiler
  | Checking for scalapack...
  | Testing pdtran()...
  | All pdtran() tests passed.

  Obtaining array dimensions for all initial allocations:
  
  -----------------------------------------------------------------------
  Parsing control.in (first pass over file, find array dimensions only).
  The contents of control.in will be repeated verbatim below
  unless switched off by setting 'verbatim_writeout .false.' .
  in the first line of control.in .
  -----------------------------------------------------------------------
  
  #########################################################################################
  #
  #  Volker Blum, FHI 2009 : Test run input file control.in for simple H2O
  #
  #########################################################################################
  #
  #  Physical model
  #
    xc                 pbe
    vdw_correction_hirshfeld
    spin               none
    relativistic       none
    charge             0.
  #
  #  SCF convergence
  #
    occupation_type    gaussian 0.01
    mixer              pulay
      n_max_pulay        10
      charge_mix_param   0.2
    sc_accuracy_rho    1E-5
    sc_accuracy_eev    1E-3
    sc_accuracy_etot   1E-6
    sc_accuracy_forces 1E-4
    sc_iter_limit      100
  #
  #  Relaxation
  #
  #  relax_geometry   bfgs 1.e-3
  #
  ################################################################################
  #
  #  FHI-aims code project
  #  VB, Fritz-Haber Institut, 2009
  #
  #  Suggested "light" defaults for H atom (to be pasted into control.in file)
  #  Be sure to double-check any results obtained with these settings for post-processing,
  #  e.g., with the "tight" defaults and larger basis sets.
  #
  ################################################################################
    species        H
  #     global species definitions
      nucleus             1
      mass                1.00794
  #
      l_hartree           4
  #
      cut_pot             3.5  1.5  1.0
      basis_dep_cutoff    1e-4
  #
      radial_base         24 5.0
      radial_multiplier   1
      angular_grids       specified
        division   0.2421   50
        division   0.3822  110
        division   0.4799  194
        division   0.5341  302
  #      division   0.5626  434
  #      division   0.5922  590
  #      division   0.6542  770
  #      division   0.6868 1202
  #      outer_grid  770
        outer_grid  302
  ################################################################################
  #
  #  Definition of "minimal" basis
  #
  ################################################################################
  #     valence basis states
      valence      1  s   1.
  #     ion occupancy
      ion_occ      1  s   0.5
  ################################################################################
  #
  #  Suggested additional basis functions. For production calculations,
  #  uncomment them one after another (the most important basis functions are
  #  listed first).
  #
  #  Basis constructed for dimers: 0.5 A, 0.7 A, 1.0 A, 1.5 A, 2.5 A
  #
  ################################################################################
  #  "First tier" - improvements: -1014.90 meV to -62.69 meV
       hydro 2 s 2.1
       hydro 2 p 3.5
  #  "Second tier" - improvements: -12.89 meV to -1.83 meV
  #     hydro 1 s 0.85
  #     hydro 2 p 3.7
  #     hydro 2 s 1.2
  #     hydro 3 d 7
  #  "Third tier" - improvements: -0.25 meV to -0.12 meV
  #     hydro 4 f 11.2
  #     hydro 3 p 4.8
  #     hydro 4 d 9
  #     hydro 3 s 3.2
  ################################################################################
  #
  #  FHI-aims code project
  #  VB, Fritz-Haber Institut, 2009
  #
  #  Suggested "light" defaults for C atom (to be pasted into control.in file)
  #  Be sure to double-check any results obtained with these settings for post-processing,
  #  e.g., with the "tight" defaults and larger basis sets.
  #
  ################################################################################
    species        C
  #     global species definitions
      nucleus             6
      mass                12.0107
  #
      l_hartree           4
  #
      cut_pot             3.5  1.5  1.0
      basis_dep_cutoff    1e-4
  #
      radial_base         34 5.0
      radial_multiplier   1
      angular_grids specified
        division   0.3326   50
        division   0.5710  110
        division   0.7727  194
        division   0.8772  302
  #      division   0.9334  434
  #      division   0.9625  590
  #      division   0.9924  770
  #      division   1.0230  974
  #      division   1.4589 1202
  #     outer_grid  974
       outer_grid 302
  ################################################################################
  #
  #  Definition of "minimal" basis
  #
  ################################################################################
  #     valence basis states
      valence      2  s   2.
      valence      2  p   2.
  #     ion occupancy
      ion_occ      2  s   1.
      ion_occ      2  p   1.
  ################################################################################
  #
  #  Suggested additional basis functions. For production calculations,
  #  uncomment them one after another (the most important basis functions are
  #  listed first).
  #
  #  Constructed for dimers: 1.0 A, 1.25 A, 1.5 A, 2.0 A, 3.0 A
  #
  ################################################################################
  #  "First tier" - improvements: -1214.57 meV to -155.61 meV
       hydro 2 p 1.7
       hydro 3 d 6
       hydro 2 s 4.9
  #  "Second tier" - improvements: -67.75 meV to -5.23 meV
  #     hydro 4 f 9.8
  #     hydro 3 p 5.2
  #     hydro 3 s 4.3
  #     hydro 5 g 14.4
  #     hydro 3 d 6.2
  #  "Third tier" - improvements: -2.43 meV to -0.60 meV
  #     hydro 2 p 5.6
  #     hydro 2 s 1.4
  #     hydro 3 d 4.9
  #     hydro 4 f 11.2
  #  "Fourth tier" - improvements: -0.39 meV to -0.18 meV
  #     hydro 2 p 2.1
  #     hydro 5 g 16.4
  #     hydro 4 d 13.2
  #     hydro 3 s 13.6
  #     hydro 4 f 17.6
  #  Further basis functions - improvements: -0.08 meV and below
  #     hydro 3 s 2
  #     hydro 3 p 6
  #     hydro 4 d 20
  ################################################################################
  #
  #  FHI-aims code project
  #  VB, Fritz-Haber Institut, 2009
  #
  #  Suggested "light" defaults for N atom (to be pasted into control.in file)
  #  Be sure to double-check any results obtained with these settings for post-processing,
  #  e.g., with the "tight" defaults and larger basis sets.
  #
  ################################################################################
    species        N
  #     global species definitions
      nucleus             7
      mass                14.0067
  #
      l_hartree           4
  #
      cut_pot             3.5  1.5  1.0
      basis_dep_cutoff    1e-4
  #
      radial_base         35 5.0
      radial_multiplier   1
      angular_grids       specified
        division   0.2599   50
        division   0.4601  110
        division   0.5885  194
        division   0.6503  302
  #      division   0.6939  434
  #      division   0.7396  590
  #      division   0.7632  770
  #      division   0.8122  974
  #      division   1.1604 1202
  #      outer_grid  974
        outer_grid  302
  ################################################################################
  #
  #  Definition of "minimal" basis
  #
  ################################################################################
  #     valence basis states
      valence      2  s   2.
      valence      2  p   3.
  #     ion occupancy
      ion_occ      2  s   1.
      ion_occ      2  p   2.
  ################################################################################
  #
  #  Suggested additional basis functions. For production calculations,
  #  uncomment them one after another (the most important basis functions are
  #  listed first).
  #
  #  Constructed for dimers: 1.0 A, 1.1 A, 1.5 A, 2.0 A, 3.0 A
  #
  ################################################################################
  #  "First tier" - improvements: -1193.42 meV to -220.60 meV
       hydro 2 p 1.8
       hydro 3 d 6.8
       hydro 3 s 5.8
  #  "Second tier" - improvements: -80.21 meV to -6.86 meV
  #     hydro 4 f 10.8
  #     hydro 3 p 5.8
  #     hydro 1 s 0.8
  #     hydro 5 g 16
  #     hydro 3 d 4.9
  #  "Third tier" - improvements: -4.29 meV to -0.53 meV
  #     hydro 3 s 16
  #     ionic 2 p auto
  #     hydro 3 d 6.6
  #     hydro 4 f 11.6
  #  "Fourth tier" - improvements: -0.75 meV to -0.25 meV
  #     hydro 2 p 4.5
  #     hydro 2 s 2.4
  #     hydro 5 g 14.4
  #     hydro 4 d 14.4
  #     hydro 4 f 16.8
  # Further basis functions - -0.21 meV and below
  #     hydro 3 p 14.8
  #     hydro 3 s 4.4
  #     hydro 3 d 19.6
  #     hydro 5 g 12.8
  ################################################################################
  #
  #  FHI-aims code project
  #  VB, Fritz-Haber Institut, 2009
  #
  #  Suggested "light" defaults for O atom (to be pasted into control.in file)
  #  Be sure to double-check any results obtained with these settings for post-processing,
  #  e.g., with the "tight" defaults and larger basis sets.
  #
  ################################################################################
    species        O
  #     global species definitions
      nucleus             8
      mass                15.9994
  #
      l_hartree           4
  #
      cut_pot             3.5  1.5  1.0
      basis_dep_cutoff    1e-4
  #
      radial_base         36 5.0
      radial_multiplier   1
       angular_grids specified
        division   0.2659   50
        division   0.4451  110
        division   0.6052  194
        division   0.7543  302
  #      division   0.8014  434
  #      division   0.8507  590
  #      division   0.8762  770
  #      division   0.9023  974
  #      division   1.2339 1202
  #      outer_grid 974
        outer_grid 302
  ################################################################################
  #
  #  Definition of "minimal" basis
  #
  ################################################################################
  #     valence basis states
      valence      2  s   2.
      valence      2  p   4.
  #     ion occupancy
      ion_occ      2  s   1.
      ion_occ      2  p   3.
  ################################################################################
  #
  #  Suggested additional basis functions. For production calculations,
  #  uncomment them one after another (the most important basis functions are
  #  listed first).
  #
  #  Constructed for dimers: 1.0 A, 1.208 A, 1.5 A, 2.0 A, 3.0 A
  #
  ################################################################################
  #  "First tier" - improvements: -699.05 meV to -159.38 meV
       hydro 2 p 1.8
       hydro 3 d 7.6
       hydro 3 s 6.4
  #  "Second tier" - improvements: -49.91 meV to -5.39 meV
  #     hydro 4 f 11.6
  #     hydro 3 p 6.2
  #     hydro 3 d 5.6
  #     hydro 5 g 17.6
  #     hydro 1 s 0.75
  #  "Third tier" - improvements: -2.83 meV to -0.50 meV
  #     ionic 2 p auto
  #     hydro 4 f 10.8
  #     hydro 4 d 4.7
  #     hydro 2 s 6.8
  #  "Fourth tier" - improvements: -0.40 meV to -0.12 meV
  #     hydro 3 p 5
  #     hydro 3 s 3.3
  #     hydro 5 g 15.6
  #     hydro 4 f 17.6
  #     hydro 4 d 14
  # Further basis functions - -0.08 meV and below
  #     hydro 3 s 2.1
  #     hydro 4 d 11.6
  #     hydro 3 p 16
  #     hydro 2 s 17.2
  
  -----------------------------------------------------------------------
  Completed first pass over input file control.in .
  -----------------------------------------------------------------------
  
  
  -----------------------------------------------------------------------
  Parsing geometry.in (first pass over file, find array dimensions only).
  The contents of geometry.in will be repeated verbatim below
  unless switched off by setting 'verbatim_writeout .false.' .
  in the first line of geometry.in .
  -----------------------------------------------------------------------
  
  atom  0.00000 0.00000 0.00000 C
  atom  1.09300 0.00000 0.00000 H
  atom  -0.47961 0.00000 -1.41207 N
  atom  0.32510 -0.10684 -2.03082 H
  atom  -1.12567 -0.77647 -1.53783 H
  atom  -0.49584 1.26211 0.72868 C
  atom  -1.58789 1.28919 0.74431 H
  atom  -0.13407 1.27425 1.75947 H
  atom  -0.13407 2.16087 0.22380 H
  atom  -0.39425 -1.28861 0.74398 C
  atom  -0.10189 -1.56493 1.88303 O
  atom  -1.10210 -2.13717 0.06896 O
  atom  -1.42895 -1.53347 -0.61929 H
  
  -----------------------------------------------------------------------
  Completed first pass over input file geometry.in .
  -----------------------------------------------------------------------
  

  Basic array size parameters:
  | Number of species                 :        4
  | Number of atoms                   :       13
  | Max. basis fn. angular momentum   :        2
  | Max. atomic/ionic basis occupied n:        2
  | Max. number of basis fn. types    :        2
  | Max. radial fns per species/type  :        3
  | Max. logarithmic grid size        :     1301
  | Max. radial integration grid size :       36
  | Max. angular integration grid size:      302
  | Max. angular grid division number :        8
  | Radial grid for Hartree potential :     1301
  | Number of spin channels           :        1

------------------------------------------------------------
          Reading file control.in.
------------------------------------------------------------
  XC: Using PBE gradient-corrected functionals.
  Spin treatment: No spin polarisation.
  Non-relativistic treatment of kinetic energy.
  Charge =   0.000000E+00: Neutral system requested explicitly.
  Occupation type: Gaussian broadening, width =   0.100000E-01 eV.
  Using pulay charge density mixing.
  Pulay mixing - number of memorized iterations:   10
  Charge density mixing - mixing parameter:     0.2000
  Convergence accuracy of self-consistent charge density:  0.1000E-04
  Convergence accuracy of sum of eigenvalues:  0.1000E-02
  Convergence accuracy of total energy:  0.1000E-05
  Convergence accuracy of forces:  0.1000E-03
  Maximum number of s.-c. iterations  :   100
 
  Reading configuration options for species H                   .
  | Found nuclear charge :   1.0000
  | Found atomic mass :    1.00794000000000      amu
  | Found l_max for Hartree potential  :   4
  | Found cutoff potl. onset [A], width [A], scale factor :    3.50000    1.50000    1.00000
  | Threshold for basis-dependent cutoff potential is   0.100000E-03
  | Found data for basic radial integration grid :    24 points, outermost radius =    5.000 A
  | Found multiplier for basic radial grid :   1
  | Found angular grid specification: user-specified.
  | Specified grid contains     5 separate shells.
  | Check grid settings after all constraints further below.
  | Found free-atom valence shell :  1 s   1.000
  | No ionic wave fns used. Skipping ion_occ.
  | Found hydrogenic basis function :  2 s   2.100
  | Found hydrogenic basis function :  2 p   3.500
  Species H                   : Missing cutoff potential type.
  Defaulting to exp(1/x)/(1-x)^2 type cutoff potential.
  Species H : No 'logarithmic' tag. Using default grid for free atom:
  | Default logarithmic grid data [bohr] : 0.1000E-03 0.1000E+03 0.1012E+01
  Species H : On-site basis accuracy parameter (for Gram-Schmidt orthonormalisation) not specified.
  Using default value basis_acc =  0.1000000E-03.
  Species H                   : Using default innermost maximum threshold i_radial=  2 for radial functions.
  Species H                   : Default cutoff onset for free atom density etc. : 0.35000000E+01 AA.
  Species H                   : Basic radial grid will be enhanced according to radial_multiplier =   1, to contain    24 grid points.
 
  Reading configuration options for species C                   .
  | Found nuclear charge :   6.0000
  | Found atomic mass :    12.0107000000000      amu
  | Found l_max for Hartree potential  :   4
  | Found cutoff potl. onset [A], width [A], scale factor :    3.50000    1.50000    1.00000
  | Threshold for basis-dependent cutoff potential is   0.100000E-03
  | Found data for basic radial integration grid :    34 points, outermost radius =    5.000 A
  | Found multiplier for basic radial grid :   1
  | Found angular grid specification: user-specified.
  | Specified grid contains     5 separate shells.
  | Check grid settings after all constraints further below.
  | Found free-atom valence shell :  2 s   2.000
  | Found free-atom valence shell :  2 p   2.000
  | No ionic wave fns used. Skipping ion_occ.
  | No ionic wave fns used. Skipping ion_occ.
  | Found hydrogenic basis function :  2 p   1.700
  | Found hydrogenic basis function :  3 d   6.000
  | Found hydrogenic basis function :  2 s   4.900
  Species C                   : Missing cutoff potential type.
  Defaulting to exp(1/x)/(1-x)^2 type cutoff potential.
  Species C : No 'logarithmic' tag. Using default grid for free atom:
  | Default logarithmic grid data [bohr] : 0.1000E-03 0.1000E+03 0.1012E+01
  Species C : On-site basis accuracy parameter (for Gram-Schmidt orthonormalisation) not specified.
  Using default value basis_acc =  0.1000000E-03.
  Species C                   : Using default innermost maximum threshold i_radial=  2 for radial functions.
  Species C                   : Default cutoff onset for free atom density etc. : 0.35000000E+01 AA.
  Species C                   : Basic radial grid will be enhanced according to radial_multiplier =   1, to contain    34 grid points.
 
  Reading configuration options for species N                   .
  | Found nuclear charge :   7.0000
  | Found atomic mass :    14.0067000000000      amu
  | Found l_max for Hartree potential  :   4
  | Found cutoff potl. onset [A], width [A], scale factor :    3.50000    1.50000    1.00000
  | Threshold for basis-dependent cutoff potential is   0.100000E-03
  | Found data for basic radial integration grid :    35 points, outermost radius =    5.000 A
  | Found multiplier for basic radial grid :   1
  | Found angular grid specification: user-specified.
  | Specified grid contains     5 separate shells.
  | Check grid settings after all constraints further below.
  | Found free-atom valence shell :  2 s   2.000
  | Found free-atom valence shell :  2 p   3.000
  | No ionic wave fns used. Skipping ion_occ.
  | No ionic wave fns used. Skipping ion_occ.
  | Found hydrogenic basis function :  2 p   1.800
  | Found hydrogenic basis function :  3 d   6.800
  | Found hydrogenic basis function :  3 s   5.800
  Species N                   : Missing cutoff potential type.
  Defaulting to exp(1/x)/(1-x)^2 type cutoff potential.
  Species N : No 'logarithmic' tag. Using default grid for free atom:
  | Default logarithmic grid data [bohr] : 0.1000E-03 0.1000E+03 0.1012E+01
  Species N : On-site basis accuracy parameter (for Gram-Schmidt orthonormalisation) not specified.
  Using default value basis_acc =  0.1000000E-03.
  Species N                   : Using default innermost maximum threshold i_radial=  2 for radial functions.
  Species N                   : Default cutoff onset for free atom density etc. : 0.35000000E+01 AA.
  Species N                   : Basic radial grid will be enhanced according to radial_multiplier =   1, to contain    35 grid points.
 
  Reading configuration options for species O                   .
  | Found nuclear charge :   8.0000
  | Found atomic mass :    15.9994000000000      amu
  | Found l_max for Hartree potential  :   4
  | Found cutoff potl. onset [A], width [A], scale factor :    3.50000    1.50000    1.00000
  | Threshold for basis-dependent cutoff potential is   0.100000E-03
  | Found data for basic radial integration grid :    36 points, outermost radius =    5.000 A
  | Found multiplier for basic radial grid :   1
  | Found angular grid specification: user-specified.
  | Specified grid contains     5 separate shells.
  | Check grid settings after all constraints further below.
  | Found free-atom valence shell :  2 s   2.000
  | Found free-atom valence shell :  2 p   4.000
  | No ionic wave fns used. Skipping ion_occ.
  | No ionic wave fns used. Skipping ion_occ.
  | Found hydrogenic basis function :  2 p   1.800
  | Found hydrogenic basis function :  3 d   7.600
  | Found hydrogenic basis function :  3 s   6.400
  Species O                   : Missing cutoff potential type.
  Defaulting to exp(1/x)/(1-x)^2 type cutoff potential.
  Species O : No 'logarithmic' tag. Using default grid for free atom:
  | Default logarithmic grid data [bohr] : 0.1000E-03 0.1000E+03 0.1012E+01
  Species O : On-site basis accuracy parameter (for Gram-Schmidt orthonormalisation) not specified.
  Using default value basis_acc =  0.1000000E-03.
  Species O                   : Using default innermost maximum threshold i_radial=  2 for radial functions.
  Species O                   : Default cutoff onset for free atom density etc. : 0.35000000E+01 AA.
  Species O                   : Basic radial grid will be enhanced according to radial_multiplier =   1, to contain    36 grid points.
 
  Finished reading input file 'control.in'. Consistency checks are next.
 
  MPI_IN_PLACE appears to work with this MPI implementation.
  | Keeping use_mpi_in_place .true. (see manual).
  Target number of points in a grid batch is not set. Defaulting to  100
  Method for grid partitioning is not set. Defaulting to parallel hash+maxmin partitioning.
  Batch size limit is not set. Defaulting to    200
  By default, will store active basis functions for each batch.
  If in need of memory, prune_basis_once .false. can be used to disable this option.
  communication_type for Hartree potential was not specified.
  Defaulting to calc_hartree .
  Pulay mixer: Number of initial linear mixing iterations not set.
  Defaulting to    0 iterations.
  Work space size for distributed Hartree potential not set.
  Defaulting to   0.200000E+03 MB.
  Algorithm-dependent basis array size parameters:
  | n_max_pulay                         :       10
  Presetting      1001 iterations before the initial mixing cycle
  is restarted anyway using the sc_init_iter criterion / keyword.
  Presetting a factor      1.000 between actual scf density residual
  and density convergence criterion sc_accuracy_rho below which sc_init_iter
  takes no effect.
  Geometry relaxation not requested: no relaxation will be performed.
  Handling of forces: Unphysical translation and rotation will be removed from forces.
  No accuracy limit for integral partition fn. given. Defaulting to  0.1000E-14.
  No threshold value for u(r) in integrations given. Defaulting to  0.1000E-05.
  No accuracy for occupation numbers given. Defaulting to  0.1000E-12.
  No threshold value for occupation numbers given. Defaulting to  0.0000E+00.
  No accuracy for fermi level given. Defaulting to  0.1000E-19.
  Maximum # of iterations to find E_F not set. Defaulting to  200.
  Preferred method for the eigenvalue solver ('KS_method') not specified in 'control.in'.
  Defaulting to serial version, 'lapack_fast'.
  Will not use alltoall communication since running on < 1024 CPUs.
  Threshold for basis singularities not set.
  Default threshold for basis singularities:  0.1000E-04
  partition_type (choice of integration weights) for integrals was not specified.
  | Using a version of the partition function of Stratmann and coworkers ('stratmann_smoother').
  | At each grid point, the set of atoms used to build the partition table is smoothly restricted to
  | only those atoms whose free-atom density would be non-zero at that grid point.
  Partitioning for Hartree potential was not defined. Using partition_type for integrals.
  | Adjusted default value of keyword multip_moments_threshold to:       0.10000000E-11
  | This value may affect high angular momentum components of the Hartree potential in periodic systems.
  No q(lm)/r^(l+1) cutoff set for long-range Hartree potential.
  | Using default value of  0.100000E-09 .
  | Verify using the multipole_threshold keyword.
  Defaulting to new monopole extrapolation.
  Density update method: automatic selection selected.
------------------------------------------------------------


------------------------------------------------------------
          Reading geometry description geometry.in.
------------------------------------------------------------
  Input structure read successfully.
  The structure contains       13 atoms,  and a total of         48.000 electrons.

  Input geometry:
  | No unit cell requested.
  | Atomic structure:
  |       Atom                x [A]            y [A]            z [A]
  |    1: Species C             0.00000000        0.00000000        0.00000000
  |    2: Species H             1.09300000        0.00000000        0.00000000
  |    3: Species N            -0.47961000        0.00000000       -1.41207000
  |    4: Species H             0.32510000       -0.10684000       -2.03082000
  |    5: Species H            -1.12567000       -0.77647000       -1.53783000
  |    6: Species C            -0.49584000        1.26211000        0.72868000
  |    7: Species H            -1.58789000        1.28919000        0.74431000
  |    8: Species H            -0.13407000        1.27425000        1.75947000
  |    9: Species H            -0.13407000        2.16087000        0.22380000
  |   10: Species C            -0.39425000       -1.28861000        0.74398000
  |   11: Species O            -0.10189000       -1.56493000        1.88303000
  |   12: Species O            -1.10210000       -2.13717000        0.06896000
  |   13: Species H            -1.42895000       -1.53347000       -0.61929000
  |

  | The smallest distance between any two atoms is         0.97209705 AA.
  |
  | The first atom of this pair is atom number                     12 .
  | The second atom of this pair is atom number                    13 .

  Number of empty states per atom not set in control.in - providing a guess from actual geometry.
  | Total number of empty states used during s.c.f. cycle:       29
  If you use a very high smearing, use empty_states (per atom!) in control.in to increase this value.

  Structure-dependent array size parameters: 
  | Maximum number of distinct radial functions  :       21
  | Maximum number of basis functions            :      119
  | Number of Kohn-Sham states (occupied + empty):       53
------------------------------------------------------------

------------------------------------------------------------
          Preparing all fixed parts of the calculation.
------------------------------------------------------------
  Determining machine precision:
    2.225073858507201E-308
  Setting up grids for atomic and cluster calculations.

  Creating wave function, potential, and density for free atoms.

  Species: H

  List of occupied orbitals and eigenvalues:
    n    l              occ      energy [Ha]    energy [eV]
    1    0           1.0000        -0.237589        -6.4651


  Species: C

  List of occupied orbitals and eigenvalues:
    n    l              occ      energy [Ha]    energy [eV]
    1    0           2.0000       -10.038835      -273.1706
    2    0           2.0000        -0.502696       -13.6791
    2    1           2.0000        -0.191971        -5.2238


  Species: N

  List of occupied orbitals and eigenvalues:
    n    l              occ      energy [Ha]    energy [eV]
    1    0           2.0000       -14.128000      -384.4424
    2    0           2.0000        -0.681077       -18.5330
    2    1           3.0000        -0.259788        -7.0692


  Species: O

  List of occupied orbitals and eigenvalues:
    n    l              occ      energy [Ha]    energy [eV]
    1    0           2.0000       -18.898188      -514.2459
    2    0           2.0000        -0.878505       -23.9053
    2    1           4.0000        -0.331779        -9.0282

  Creating fixed part of basis set: Ionic, confined, hydrogenic.
 
  H                    hydrogenic:
 
  List of hydrogenic basis orbitals: 
    n    l      effective z      eigenvalue [eV]  inner max. [A]     outer max. [A]     outer radius [A]   
    2    0         2.100000       -14.9728           0.193243           1.317208           4.583499
    2    1         3.500000       -41.6669           0.602369           0.602369           3.723403
 
 
  C                    hydrogenic:
 
  List of hydrogenic basis orbitals: 
    n    l      effective z      eigenvalue [eV]  inner max. [A]     outer max. [A]     outer radius [A]   
    2    1         1.700000        -9.7616           1.230570           1.230570           4.607917
    3    2         6.000000       -54.4224           0.792453           0.792453           3.883070
    2    0         4.900000       -81.6679           0.082559           0.562749           3.078220
 
 
  N                    hydrogenic:
 
  List of hydrogenic basis orbitals: 
    n    l      effective z      eigenvalue [eV]  inner max. [A]     outer max. [A]     outer radius [A]   
    2    1         1.800000       -10.9749           1.177451           1.177451           4.573712
    3    2         6.800000       -69.9026           0.704619           0.704619           3.538137
    3    0         5.800000       -50.8545           0.067388           1.191934           4.250239
 
 
  O                    hydrogenic:
 
  List of hydrogenic basis orbitals: 
    n    l      effective z      eigenvalue [eV]  inner max. [A]     outer max. [A]     outer radius [A]   
    2    1         1.800000       -10.9749           1.164242           1.164242           4.578029
    3    2         7.600000       -87.3180           0.624125           0.624125           3.251020
    3    0         6.400000       -61.9207           0.061167           1.081902           4.001998
 

  Adding cutoff potential to free-atom effective potential.
  Creating atomic-like basis functions for current effective potential.

  Species H                   :

  List of atomic basis orbitals and eigenvalues:
    n    l      energy [Ha]    energy [eV]    outer radius [A]
    1    0        -0.237589        -6.4651       4.527807


  Species C                   :

  List of atomic basis orbitals and eigenvalues:
    n    l      energy [Ha]    energy [eV]    outer radius [A]
    1    0       -10.038835      -273.1706       1.934409
    2    0        -0.502696       -13.6791       4.496620
    2    1        -0.191971        -5.2238       4.551928


  Species N                   :

  List of atomic basis orbitals and eigenvalues:
    n    l      energy [Ha]    energy [eV]    outer radius [A]
    1    0       -14.128000      -384.4424       1.637919
    2    0        -0.681077       -18.5330       4.463241
    2    1        -0.259788        -7.0692       4.518138


  Species O                   :

  List of atomic basis orbitals and eigenvalues:
    n    l      energy [Ha]    energy [eV]    outer radius [A]
    1    0       -18.898188      -514.2459       1.415765
    2    0        -0.878505       -23.9053       4.413171
    2    1        -0.331779        -9.0282       4.522403

  Assembling full basis from fixed parts.
  | Species H :   atomic orbital   1 s accepted.
  | Species H :    hydro orbital   2 s accepted.
  | Species H :    hydro orbital   2 p accepted.
  | Species C :   atomic orbital   1 s accepted.
  | Species C :    hydro orbital   2 s accepted.
  | Species C :   atomic orbital   2 s accepted.
  | Species C :   atomic orbital   2 p accepted.
  | Species C :    hydro orbital   2 p accepted.
  | Species C :    hydro orbital   3 d accepted.
  | Species N :   atomic orbital   1 s accepted.
  | Species N :    hydro orbital   3 s accepted.
  | Species N :   atomic orbital   2 s accepted.
  | Species N :   atomic orbital   2 p accepted.
  | Species N :    hydro orbital   2 p accepted.
  | Species N :    hydro orbital   3 d accepted.
  | Species O :   atomic orbital   1 s accepted.
  | Species O :    hydro orbital   3 s accepted.
  | Species O :   atomic orbital   2 s accepted.
  | Species O :   atomic orbital   2 p accepted.
  | Species O :    hydro orbital   2 p accepted.
  | Species O :    hydro orbital   3 d accepted.
 
  Basis size parameters after reduction:
  | Total number of radial functions:       21
  | Total number of basis functions :      119
 
  Per-task memory consumption for arrays in subroutine allocate_ext:
  |           5.250512MB.
  Testing on-site integration grid accuracy.
  |  Species  Function  <phi|h_atom|phi> (log., in eV)  <phi|h_atom|phi> (rad., in eV)
           1        1                 -6.4663192853                 -6.4651273558
           1        2                 13.7111246313                 13.7170609718
           1        3                 25.2673269279                 25.2674696378
           2        4               -273.1705927641               -273.1705631568
           2        5                -10.7109323383                -10.7107120029
           2        6                 17.4381822266                 17.4352413244
           2        7                 -5.2255326521                 -5.2270484734
           2        8                  8.6835629259                  8.6603288385
           2        9                 27.4952418996                 27.4953360207
           3       10               -384.4424306495               -384.4423701208
           3       11                 12.5842251816                 12.5842222903
           3       12                -15.7264628251                -15.7264433455
           3       13                 -7.0696854293                 -7.0701769954
           3       14                  8.8090390882                  8.7901077751
           3       15                 35.9586762123                 35.9588528632
           4       16               -514.2458688638               -514.2457643834
           4       17                 15.1795651126                 15.1795290741
           4       18                -21.5359799773                -21.5360846186
           4       19                 -9.0283069236                 -9.0284644067
           4       20                  8.3027758564                  8.2834874195
           4       21                 45.8339351984                 45.8338762259

  Preparing densities etc. for the partition functions (integrals / Hartree potential).

  Preparations completed.
  max(cpu_time)          :      0.146 s.
  Wall clock time (cpu1) :      0.148 s.
------------------------------------------------------------

------------------------------------------------------------
          Begin self-consistency loop: Initialization.

          Date     :  20200815, Time     :  004211.789
------------------------------------------------------------

  Initializing index lists of integration centers etc. from given atomic structure:
  | Number of centers in hartree potential         :        13
  | Number of centers in hartree multipole         :        13
  | Number of centers in electron density summation:        13
  | Number of centers in basis integrals           :        13
  | Number of centers in integrals                 :        13
  | Number of centers in hamiltonian               :        13
  Partitioning the integration grid into batches with parallel hashing+maxmin method.
  | Number of batches:      953
  | Maximal batch size:     139
  | Minimal batch size:      66
  | Average batch size:      73.081
  | Standard deviation of batch sizes:      17.897

  Integration load balanced across     1 MPI tasks.
  Work distribution over tasks is as follows:
  Task     0 has      69646 integration points.
  Initializing partition tables, free-atom densities, potentials, etc. across the integration grid (initialize_grid_storage).
  | initialize_grid_storage: Actual outermost partition radius vs. multipole_radius_free
  | (-- VB: in principle, multipole_radius_free should be larger, hence this output)
  | Species        1: Confinement radius =              4.999999999999999 AA, multipole_radius_free =              5.054417573612229 AA.
  | Species        1: outer_partition_radius set to              5.054417573612229 AA .
  | Species        2: Confinement radius =              4.999999999999999 AA, multipole_radius_free =              5.019602836301480 AA.
  | Species        2: outer_partition_radius set to              5.019602836301480 AA .
  | Species        3: Confinement radius =              4.999999999999999 AA, multipole_radius_free =              5.043624274424571 AA.
  | Species        3: outer_partition_radius set to              5.043624274424571 AA .
  | Species        4: Confinement radius =              4.999999999999999 AA, multipole_radius_free =              5.048384829883283 AA.
  | Species        4: outer_partition_radius set to              5.048384829883283 AA .
  | Original list of interatomic distances with          13 x         13 entries is created.
  | Net number of integration points:    69646
  | of which are non-zero points    :    59514
  Renormalizing the initial density to the exact electron count on the 3D integration grid.
  | Initial density: Formal number of electrons (from input files) :      48.0000000000
  | Integrated number of electrons on 3D grid     :      47.9998429428
  | Charge integration error                      :      -0.0001570572
  | Normalization factor for density and gradient :       1.0000032720
  Obtaining max. number of non-zero basis functions in each batch (get_n_compute_maxes).
  | Maximal number of non-zero basis functions:      119 in task     0
  Selecting the method for density update.
  Loop over occupied states selected for charge density update.
  Allocating        0.050 MB for KS_eigenvector
  Integrating Hamiltonian matrix: batch-based integration.
  Time summed over all CPUs for integration: real work        0.496 s, elapsed        0.496 s
  Integrating overlap matrix.
  Time summed over all CPUs for integration: real work        0.213 s, elapsed        0.213 s

  Updating Kohn-Sham eigenvalues and eigenvectors using ELSI and the ELPA eigensolver.
  Overlap matrix is nonsingular
  | Lowest eigenvalue of overlap  :  0.32E-02
  | Highest eigenvalue of overlap :  0.64E+01
  Finished singularity check of overlap matrix
  | Time :     0.002 s
  Finished Cholesky decomposition
  | Time :     0.000 s
  Finished transformation to standard eigenproblem
  | Time :     0.000 s
  Starting LAPACK eigensolver
  Finished solving standard eigenproblem
  | Time :     0.002 s
  Finished back-transformation of eigenvectors
  | Time :     0.000 s

  Obtaining occupation numbers and chemical potential using ELSI.
  | Chemical potential (Fermi level):    -9.99304277eV
  Writing Kohn-Sham eigenvalues.

  State    Occupation    Eigenvalue [Ha]    Eigenvalue [eV]
      1       2.00000         -19.008425         -517.24557
      2       2.00000         -18.977124         -516.39381
      3       2.00000         -14.247324         -387.68940
      4       2.00000         -10.166593         -276.64708
      5       2.00000         -10.141951         -275.97653
      6       2.00000         -10.132152         -275.70989
      7       2.00000          -1.184008          -32.21851
      8       2.00000          -1.103265          -30.02137
      9       2.00000          -0.994494          -27.06155
     10       2.00000          -0.863078          -23.48554
     11       2.00000          -0.751207          -20.44138
     12       2.00000          -0.687821          -18.71656
     13       2.00000          -0.653822          -17.79139
     14       2.00000          -0.611162          -16.63055
     15       2.00000          -0.568634          -15.47332
     16       2.00000          -0.563642          -15.33749
     17       2.00000          -0.550532          -14.98073
     18       2.00000          -0.537406          -14.62357
     19       2.00000          -0.515876          -14.03771
     20       2.00000          -0.491426          -13.37239
     21       2.00000          -0.478583          -13.02291
     22       2.00000          -0.430303          -11.70915
     23       2.00000          -0.413925          -11.26348
     24       2.00000          -0.385929          -10.50167
     25       0.00000          -0.149614           -4.07120
     26       0.00000          -0.085550           -2.32793
     27       0.00000          -0.035929           -0.97767
     28       0.00000          -0.026806           -0.72942
     29       0.00000           0.001723            0.04688
     30       0.00000           0.019745            0.53728
     31       0.00000           0.022236            0.60508
     32       0.00000           0.028741            0.78209
     33       0.00000           0.062247            1.69384
     34       0.00000           0.068416            1.86170
     35       0.00000           0.115544            3.14411
     36       0.00000           0.142966            3.89031
     37       0.00000           0.170830            4.64851
     38       0.00000           0.205316            5.58693
     39       0.00000           0.215197            5.85581
     40       0.00000           0.219491            5.97264
     41       0.00000           0.239870            6.52719
     42       0.00000           0.267132            7.26904
     43       0.00000           0.300803            8.18526
     44       0.00000           0.308722            8.40074
     45       0.00000           0.335966            9.14209
     46       0.00000           0.349844            9.51974
     47       0.00000           0.378112           10.28896
     48       0.00000           0.384288           10.45701
     49       0.00000           0.426634           11.60929
     50       0.00000           0.452395           12.31029
     51       0.00000           0.512700           13.95127
     52       0.00000           0.541782           14.74263
     53       0.00000           0.549542           14.95380

  Highest occupied state (VBM) at    -10.50166903 eV
  | Occupation number:      2.00000000

  Lowest unoccupied state (CBM) at    -4.07119849 eV
  | Occupation number:      0.00000000

  Overall HOMO-LUMO gap:      6.43047054 eV.
  Calculating total energy contributions from superposition of free atom densities.

  Total energy components:
  | Sum of eigenvalues            :        -188.91736692 Ha       -5140.70310988 eV
  | XC energy correction          :         -41.82123380 Ha       -1138.01367315 eV
  | XC potential correction       :          53.76426286 Ha        1463.00002903 eV
  | Free-atom electrostatic energy:        -146.76708050 Ha       -3993.73545954 eV
  | Hartree energy correction     :           0.00000000 Ha           0.00000000 eV
  | vdW energy correction         :           0.00000000 Ha           0.00000000 eV
  | Entropy correction            :           0.00000000 Ha           0.00000000 eV
  | ---------------------------
  | Total energy                  :        -323.74141836 Ha       -8809.45221353 eV
  | Total energy, T -> 0          :        -323.74141836 Ha       -8809.45221353 eV  <-- do not rely on this value for anything but (periodic) metals
  | Electronic free energy        :        -323.74141836 Ha       -8809.45221353 eV

  Derived energy quantities:
  | Kinetic energy                :         320.57818892 Ha        8723.37636103 eV
  | Electrostatic energy          :        -602.49837348 Ha      -16394.81490141 eV
  | Energy correction for multipole
  | error in Hartree potential    :           0.00000000 Ha           0.00000000 eV
  | Sum of eigenvalues per atom                           :        -395.43870076 eV
  | Total energy (T->0) per atom                          :        -677.65017027 eV  <-- do not rely on this value for anything but (periodic) metals
  | Electronic free energy per atom                       :        -677.65017027 eV
  Initialize hartree_potential_storage
  Max. number of atoms included in rho_multipole:           13

  End scf initialization - timings             :  max(cpu_time)    wall_clock(cpu1)
  | Time for scf. initialization               :        1.155 s           1.156 s
  | Boundary condition initialization          :        0.000 s           0.000 s
  | Integration                                :        0.709 s           0.709 s
  | Solution of K.-S. eqns.                    :        0.004 s           0.004 s
  | Grid partitioning                          :        0.111 s           0.112 s
  | Preloading free-atom quantities on grid    :        0.002 s           0.002 s
  | Free-atom superposition energy             :        0.085 s           0.085 s
  | Total energy evaluation                    :        0.000 s           0.000 s

  Partial memory accounting:
  | Current value for overall tracked memory usage on task 0  :           0.165 MB
  | Peak value for overall tracked memory usage on task 0     :           0.678 MB after allocating wave
  | Largest tracked array allocation on task 0 so far         :           0.132 MB  when allocating H_times_psi
  Note:  These values currently only include a subset of arrays which are explicitly tracked.
  The "true" memory usage will be greater.
------------------------------------------------------------

------------------------------------------------------------
          Begin self-consistency iteration #    1

  Date     :  20200815, Time     :  004212.945
------------------------------------------------------------
  Evaluating new KS density.
  Integration grid: deviation in total charge (<rho> - N_e) =   7.105427E-15
  Pulay mixing of updated and previous charge densities.

  Evaluating partitioned Hartree potential by multipole expansion.
  | Analytical far-field extrapolation by fixed multipoles:
  | Hartree multipole sum: apparent total charge =  -0.259698E-03
  Summing up the Hartree potential.
  Time summed over all CPUs for potential: real work        0.282 s, elapsed        0.282 s
  | RMS charge density error from multipole expansion :   0.596392E-02

  Integrating Hamiltonian matrix: batch-based integration.
  Time summed over all CPUs for integration: real work        0.495 s, elapsed        0.495 s

  Updating Kohn-Sham eigenvalues and eigenvectors using ELSI and the ELPA eigensolver.
  Finished Cholesky decomposition
  | Time :     0.000 s
  Finished transformation to standard eigenproblem
  | Time :     0.000 s
  Starting LAPACK eigensolver
  Finished solving standard eigenproblem
  | Time :     0.001 s
  Finished back-transformation of eigenvectors
  | Time :     0.000 s

  Obtaining occupation numbers and chemical potential using ELSI.
  | Chemical potential (Fermi level):    -4.87848574eV
  Writing Kohn-Sham eigenvalues.

  State    Occupation    Eigenvalue [Ha]    Eigenvalue [eV]
      1       2.00000         -18.914345         -514.68552
      2       2.00000         -18.830753         -512.41085
      3       2.00000         -14.112964         -384.03329
      4       2.00000         -10.116176         -275.27515
      5       2.00000         -10.068728         -273.98404
      6       2.00000         -10.029936         -272.92845
      7       2.00000          -1.139272          -31.00118
      8       2.00000          -1.038715          -28.26488
      9       2.00000          -0.934994          -25.44248
     10       2.00000          -0.800375          -21.77932
     11       2.00000          -0.700543          -19.06275
     12       2.00000          -0.648489          -17.64627
     13       2.00000          -0.606576          -16.50578
     14       2.00000          -0.554429          -15.08678
     15       2.00000          -0.514331          -13.99565
     16       2.00000          -0.507150          -13.80026
     17       2.00000          -0.490185          -13.33862
     18       2.00000          -0.480782          -13.08274
     19       2.00000          -0.452907          -12.32424
     20       2.00000          -0.438065          -11.92036
     21       2.00000          -0.425138          -11.56860
     22       2.00000          -0.369138          -10.04475
     23       2.00000          -0.346238           -9.42161
     24       2.00000          -0.315000           -8.57158
     25       0.00000          -0.112805           -3.06959
     26       0.00000          -0.065561           -1.78400
     27       0.00000          -0.008684           -0.23631
     28       0.00000           0.011600            0.31565
     29       0.00000           0.039311            1.06971
     30       0.00000           0.055051            1.49803
     31       0.00000           0.058597            1.59451
     32       0.00000           0.068154            1.85456
     33       0.00000           0.097878            2.66340
     34       0.00000           0.106151            2.88851
     35       0.00000           0.142501            3.87766
     36       0.00000           0.167798            4.56603
     37       0.00000           0.191121            5.20067
     38       0.00000           0.235615            6.41140
     39       0.00000           0.242429            6.59683
     40       0.00000           0.252328            6.86620
     41       0.00000           0.270313            7.35559
     42       0.00000           0.300412            8.17462
     43       0.00000           0.341019            9.27959
     44       0.00000           0.344984            9.38751
     45       0.00000           0.366738            9.97945
     46       0.00000           0.391722           10.65930
     47       0.00000           0.411594           11.20005
     48       0.00000           0.419503           11.41525
     49       0.00000           0.458516           12.47687
     50       0.00000           0.486501           13.23836
     51       0.00000           0.544466           14.81568
     52       0.00000           0.571337           15.54688
     53       0.00000           0.582307           15.84538

  Highest occupied state (VBM) at     -8.57157654 eV
  | Occupation number:      2.00000000

  Lowest unoccupied state (CBM) at    -3.06958801 eV
  | Occupation number:      0.00000000

  Overall HOMO-LUMO gap:      5.50198853 eV.

  Total energy components:
  | Sum of eigenvalues            :        -185.67045960 Ha       -5052.35026642 eV
  | XC energy correction          :         -42.14035747 Ha       -1146.69747022 eV
  | XC potential correction       :          54.17915221 Ha        1474.28974280 eV
  | Free-atom electrostatic energy:        -146.76708050 Ha       -3993.73545954 eV
  | Hartree energy correction     :          -3.16704779 Ha         -86.17975511 eV
  | vdW energy correction         :           0.00000000 Ha           0.00000000 eV
  | Entropy correction            :           0.00000000 Ha           0.00000000 eV
  | ---------------------------
  | Total energy                  :        -323.56579315 Ha       -8804.67320848 eV
  | Total energy, T -> 0          :        -323.56579315 Ha       -8804.67320848 eV  <-- do not rely on this value for anything but (periodic) metals
  | Electronic free energy        :        -323.56579315 Ha       -8804.67320848 eV

  Derived energy quantities:
  | Kinetic energy                :         322.32226362 Ha        8770.83504831 eV
  | Electrostatic energy          :        -603.74769930 Ha      -16428.81078658 eV
  | Energy correction for multipole
  | error in Hartree potential    :           0.01265226 Ha           0.34428543 eV
  | Sum of eigenvalues per atom                           :        -388.64232819 eV
  | Total energy (T->0) per atom                          :        -677.28255450 eV  <-- do not rely on this value for anything but (periodic) metals
  | Electronic free energy per atom                       :        -677.28255450 eV

  Self-consistency convergence accuracy:
  | Change of charge density      :  0.5749E+00
  | Change of sum of eigenvalues  :  0.8835E+02 eV
  | Change of total energy        :  0.4779E+01 eV

  End self-consistency iteration #     1       :  max(cpu_time)    wall_clock(cpu1)
  | Time for this iteration                    :        1.190 s           1.192 s
  | Charge density update                      :        0.396 s           0.397 s
  | Density mixing                             :        0.005 s           0.005 s
  | Hartree multipole update                   :        0.009 s           0.009 s
  | Hartree multipole summation                :        0.283 s           0.283 s
  | Integration                                :        0.495 s           0.495 s
  | Solution of K.-S. eqns.                    :        0.002 s           0.002 s
  | Total energy evaluation                    :        0.000 s           0.000 s

  Partial memory accounting:
  | Current value for overall tracked memory usage on task 0  :           0.165 MB
  | Peak value for overall tracked memory usage on task 0     :           0.695 MB after allocating gradient_basis_wave
  | Largest tracked array allocation on task 0 so far         :           0.397 MB  when allocating gradient_basis_wave
  Note:  These values currently only include a subset of arrays which are explicitly tracked.
  The "true" memory usage will be greater.
------------------------------------------------------------

------------------------------------------------------------
          Begin self-consistency iteration #    2

  Date     :  20200815, Time     :  004214.138
------------------------------------------------------------
  Evaluating new KS density.
  Integration grid: deviation in total charge (<rho> - N_e) =   7.105427E-15
  Pulay mixing of updated and previous charge densities.

  Evaluating partitioned Hartree potential by multipole expansion.
  | Analytical far-field extrapolation by fixed multipoles:
  | Hartree multipole sum: apparent total charge =  -0.390311E-03
  Summing up the Hartree potential.
  Time summed over all CPUs for potential: real work        0.282 s, elapsed        0.282 s
  | RMS charge density error from multipole expansion :   0.141698E-01

  Integrating Hamiltonian matrix: batch-based integration.
  Time summed over all CPUs for integration: real work        0.494 s, elapsed        0.494 s

  Updating Kohn-Sham eigenvalues and eigenvectors using ELSI and the ELPA eigensolver.
  Finished Cholesky decomposition
  | Time :     0.000 s
  Finished transformation to standard eigenproblem
  | Time :     0.000 s
  Starting LAPACK eigensolver
  Finished solving standard eigenproblem
  | Time :     0.002 s
  Finished back-transformation of eigenvectors
  | Time :     0.000 s

  Obtaining occupation numbers and chemical potential using ELSI.
  | Chemical potential (Fermi level):    -3.75398578eV
  Highest occupied state (VBM) at     -6.70169548 eV
  | Occupation number:      2.00000000

  Lowest unoccupied state (CBM) at    -1.79239442 eV
  | Occupation number:      0.00000000

  Overall HOMO-LUMO gap:      4.90930107 eV.

  Checking to see if s.c.f. parameters should be adjusted.

  Total energy components:
  | Sum of eigenvalues            :        -182.24550853 Ha       -4959.15260597 eV
  | XC energy correction          :         -42.49014108 Ha       -1156.21556641 eV
  | XC potential correction       :          54.63228268 Ha        1486.62005005 eV
  | Free-atom electrostatic energy:        -146.76708050 Ha       -3993.73545954 eV
  | Hartree energy correction     :          -6.61983057 Ha        -180.13475504 eV
  | vdW energy correction         :           0.00000000 Ha           0.00000000 eV
  | Entropy correction            :           0.00000000 Ha           0.00000000 eV
  | ---------------------------
  | Total energy                  :        -323.49027801 Ha       -8802.61833692 eV
  | Total energy, T -> 0          :        -323.49027801 Ha       -8802.61833692 eV  <-- do not rely on this value for anything but (periodic) metals
  | Electronic free energy        :        -323.49027801 Ha       -8802.61833692 eV

  Derived energy quantities:
  | Kinetic energy                :         323.61636556 Ha        8806.04935385 eV
  | Electrostatic energy          :        -604.61650249 Ha      -16452.45212436 eV
  | Energy correction for multipole
  | error in Hartree potential    :           0.02791921 Ha           0.75972048 eV
  | Sum of eigenvalues per atom                           :        -381.47327738 eV
  | Total energy (T->0) per atom                          :        -677.12448746 eV  <-- do not rely on this value for anything but (periodic) metals
  | Electronic free energy per atom                       :        -677.12448746 eV

  Self-consistency convergence accuracy:
  | Change of charge density      :  0.3608E+00
  | Change of sum of eigenvalues  :  0.9320E+02 eV
  | Change of total energy        :  0.2055E+01 eV

  End self-consistency iteration #     2       :  max(cpu_time)    wall_clock(cpu1)
  | Time for this iteration                    :        1.184 s           1.185 s
  | Charge density update                      :        0.389 s           0.390 s
  | Density mixing                             :        0.007 s           0.007 s
  | Hartree multipole update                   :        0.009 s           0.009 s
  | Hartree multipole summation                :        0.283 s           0.282 s
  | Integration                                :        0.494 s           0.495 s
  | Solution of K.-S. eqns.                    :        0.002 s           0.002 s
  | Total energy evaluation                    :        0.000 s           0.000 s

  Partial memory accounting:
  | Current value for overall tracked memory usage on task 0  :           0.166 MB
  | Peak value for overall tracked memory usage on task 0     :           0.695 MB after allocating gradient_basis_wave
  | Largest tracked array allocation on task 0 so far         :           0.397 MB  when allocating gradient_basis_wave
  Note:  These values currently only include a subset of arrays which are explicitly tracked.
  The "true" memory usage will be greater.
------------------------------------------------------------

------------------------------------------------------------
          Begin self-consistency iteration #    3

  Date     :  20200815, Time     :  004215.325
------------------------------------------------------------
  Evaluating new KS density.
  Integration grid: deviation in total charge (<rho> - N_e) =   1.421085E-14
  Pulay mixing of updated and previous charge densities.

  Evaluating partitioned Hartree potential by multipole expansion.
  | Analytical far-field extrapolation by fixed multipoles:
  | Hartree multipole sum: apparent total charge =  -0.484616E-03
  Summing up the Hartree potential.
  Time summed over all CPUs for potential: real work        0.282 s, elapsed        0.282 s
  | RMS charge density error from multipole expansion :   0.224249E-01

  Integrating Hamiltonian matrix: batch-based integration.
  Time summed over all CPUs for integration: real work        0.494 s, elapsed        0.494 s

  Updating Kohn-Sham eigenvalues and eigenvectors using ELSI and the ELPA eigensolver.
  Finished Cholesky decomposition
  | Time :     0.000 s
  Finished transformation to standard eigenproblem
  | Time :     0.000 s
  Starting LAPACK eigensolver
  Finished solving standard eigenproblem
  | Time :     0.001 s
  Finished back-transformation of eigenvectors
  | Time :     0.000 s

  Obtaining occupation numbers and chemical potential using ELSI.
  | Chemical potential (Fermi level):    -3.11714027eV
  Highest occupied state (VBM) at     -6.07047594 eV
  | Occupation number:      2.00000000

  Lowest unoccupied state (CBM) at    -1.07303527 eV
  | Occupation number:      0.00000000

  Overall HOMO-LUMO gap:      4.99744067 eV.

  Total energy components:
  | Sum of eigenvalues            :        -180.88387441 Ha       -4922.10065642 eV
  | XC energy correction          :         -42.64875081 Ha       -1160.53155679 eV
  | XC potential correction       :          54.83450601 Ha        1492.12282688 eV
  | Free-atom electrostatic energy:        -146.76708050 Ha       -3993.73545954 eV
  | Hartree energy correction     :          -8.01283879 Ha        -218.04043723 eV
  | vdW energy correction         :           0.00000000 Ha           0.00000000 eV
  | Entropy correction            :           0.00000000 Ha           0.00000000 eV
  | ---------------------------
  | Total energy                  :        -323.47803851 Ha       -8802.28528309 eV
  | Total energy, T -> 0          :        -323.47803851 Ha       -8802.28528309 eV  <-- do not rely on this value for anything but (periodic) metals
  | Electronic free energy        :        -323.47803851 Ha       -8802.28528309 eV

  Derived energy quantities:
  | Kinetic energy                :         323.28460746 Ha        8797.02175651 eV
  | Electrostatic energy          :        -604.11389515 Ha      -16438.77548281 eV
  | Energy correction for multipole
  | error in Hartree potential    :           0.03978524 Ha           1.08261142 eV
  | Sum of eigenvalues per atom                           :        -378.62312742 eV
  | Total energy (T->0) per atom                          :        -677.09886793 eV  <-- do not rely on this value for anything but (periodic) metals
  | Electronic free energy per atom                       :        -677.09886793 eV

  Self-consistency convergence accuracy:
  | Change of charge density      :  0.2027E+00
  | Change of sum of eigenvalues  :  0.3705E+02 eV
  | Change of total energy        :  0.3331E+00 eV

  End self-consistency iteration #     3       :  max(cpu_time)    wall_clock(cpu1)
  | Time for this iteration                    :        1.186 s           1.188 s
  | Charge density update                      :        0.390 s           0.391 s
  | Density mixing                             :        0.008 s           0.009 s
  | Hartree multipole update                   :        0.009 s           0.009 s
  | Hartree multipole summation                :        0.282 s           0.282 s
  | Integration                                :        0.494 s           0.495 s
  | Solution of K.-S. eqns.                    :        0.002 s           0.002 s
  | Total energy evaluation                    :        0.000 s           0.000 s

  Partial memory accounting:
  | Current value for overall tracked memory usage on task 0  :           0.166 MB
  | Peak value for overall tracked memory usage on task 0     :           0.695 MB after allocating gradient_basis_wave
  | Largest tracked array allocation on task 0 so far         :           0.397 MB  when allocating gradient_basis_wave
  Note:  These values currently only include a subset of arrays which are explicitly tracked.
  The "true" memory usage will be greater.
------------------------------------------------------------

------------------------------------------------------------
          Begin self-consistency iteration #    4

  Date     :  20200815, Time     :  004216.516
------------------------------------------------------------
  Evaluating new KS density.
  Integration grid: deviation in total charge (<rho> - N_e) =   0.000000E+00
  Pulay mixing of updated and previous charge densities.

  Evaluating partitioned Hartree potential by multipole expansion.
  | Analytical far-field extrapolation by fixed multipoles:
  | Hartree multipole sum: apparent total charge =  -0.514694E-03
  Summing up the Hartree potential.
  Time summed over all CPUs for potential: real work        0.282 s, elapsed        0.282 s
  | RMS charge density error from multipole expansion :   0.259993E-01

  Integrating Hamiltonian matrix: batch-based integration.
  Time summed over all CPUs for integration: real work        0.494 s, elapsed        0.494 s

  Updating Kohn-Sham eigenvalues and eigenvectors using ELSI and the ELPA eigensolver.
  Finished Cholesky decomposition
  | Time :     0.000 s
  Finished transformation to standard eigenproblem
  | Time :     0.000 s
  Starting LAPACK eigensolver
  Finished solving standard eigenproblem
  | Time :     0.002 s
  Finished back-transformation of eigenvectors
  | Time :     0.000 s

  Obtaining occupation numbers and chemical potential using ELSI.
  | Chemical potential (Fermi level):    -3.05156055eV
  Highest occupied state (VBM) at     -5.83081578 eV
  | Occupation number:      2.00000000

  Lowest unoccupied state (CBM) at    -1.00939919 eV
  | Occupation number:      0.00000000

  Overall HOMO-LUMO gap:      4.82141659 eV.

  Total energy components:
  | Sum of eigenvalues            :        -180.81528879 Ha       -4920.23434667 eV
  | XC energy correction          :         -42.68195122 Ha       -1161.43498582 eV
  | XC potential correction       :          54.87585489 Ha        1493.24798724 eV
  | Free-atom electrostatic energy:        -146.76708050 Ha       -3993.73545954 eV
  | Hartree energy correction     :          -8.08860654 Ha        -220.10218274 eV
  | vdW energy correction         :           0.00000000 Ha           0.00000000 eV
  | Entropy correction            :           0.00000000 Ha           0.00000000 eV
  | ---------------------------
  | Total energy                  :        -323.47707216 Ha       -8802.25898754 eV
  | Total energy, T -> 0          :        -323.47707216 Ha       -8802.25898754 eV  <-- do not rely on this value for anything but (periodic) metals
  | Electronic free energy        :        -323.47707216 Ha       -8802.25898754 eV

  Derived energy quantities:
  | Kinetic energy                :         322.86602582 Ha        8785.63157056 eV
  | Electrostatic energy          :        -603.66114676 Ha      -16426.45557227 eV
  | Energy correction for multipole
  | error in Hartree potential    :           0.04424461 Ha           1.20395718 eV
  | Sum of eigenvalues per atom                           :        -378.47956513 eV
  | Total energy (T->0) per atom                          :        -677.09684520 eV  <-- do not rely on this value for anything but (periodic) metals
  | Electronic free energy per atom                       :        -677.09684520 eV

  Self-consistency convergence accuracy:
  | Change of charge density      :  0.6724E-01
  | Change of sum of eigenvalues  :  0.1866E+01 eV
  | Change of total energy        :  0.2630E-01 eV

  End self-consistency iteration #     4       :  max(cpu_time)    wall_clock(cpu1)
  | Time for this iteration                    :        1.186 s           1.187 s
  | Charge density update                      :        0.389 s           0.389 s
  | Density mixing                             :        0.009 s           0.010 s
  | Hartree multipole update                   :        0.009 s           0.008 s
  | Hartree multipole summation                :        0.282 s           0.283 s
  | Integration                                :        0.494 s           0.494 s
  | Solution of K.-S. eqns.                    :        0.002 s           0.003 s
  | Total energy evaluation                    :        0.000 s           0.000 s

  Partial memory accounting:
  | Current value for overall tracked memory usage on task 0  :           0.166 MB
  | Peak value for overall tracked memory usage on task 0     :           0.696 MB after allocating gradient_basis_wave
  | Largest tracked array allocation on task 0 so far         :           0.397 MB  when allocating gradient_basis_wave
  Note:  These values currently only include a subset of arrays which are explicitly tracked.
  The "true" memory usage will be greater.
------------------------------------------------------------

------------------------------------------------------------
          Begin self-consistency iteration #    5

  Date     :  20200815, Time     :  004217.706
------------------------------------------------------------
  Evaluating new KS density.
  Integration grid: deviation in total charge (<rho> - N_e) =  -4.263256E-14
  Pulay mixing of updated and previous charge densities.

  Evaluating partitioned Hartree potential by multipole expansion.
  | Analytical far-field extrapolation by fixed multipoles:
  | Hartree multipole sum: apparent total charge =  -0.510219E-03
  Summing up the Hartree potential.
  Time summed over all CPUs for potential: real work        0.282 s, elapsed        0.282 s
  | RMS charge density error from multipole expansion :   0.257369E-01

  Integrating Hamiltonian matrix: batch-based integration.
  Time summed over all CPUs for integration: real work        0.501 s, elapsed        0.501 s

  Updating Kohn-Sham eigenvalues and eigenvectors using ELSI and the ELPA eigensolver.
  Finished Cholesky decomposition
  | Time :     0.000 s
  Finished transformation to standard eigenproblem
  | Time :     0.000 s
  Starting LAPACK eigensolver
  Finished solving standard eigenproblem
  | Time :     0.002 s
  Finished back-transformation of eigenvectors
  | Time :     0.000 s

  Obtaining occupation numbers and chemical potential using ELSI.
  | Chemical potential (Fermi level):    -3.08665294eV
  Highest occupied state (VBM) at     -5.93776936 eV
  | Occupation number:      2.00000000

  Lowest unoccupied state (CBM) at    -1.06336034 eV
  | Occupation number:      0.00000000

  Overall HOMO-LUMO gap:      4.87440902 eV.

  Total energy components:
  | Sum of eigenvalues            :        -180.93538343 Ha       -4923.50228827 eV
  | XC energy correction          :         -42.66520834 Ha       -1160.97938902 eV
  | XC potential correction       :          54.85418316 Ha        1492.65826928 eV
  | Free-atom electrostatic energy:        -146.76708050 Ha       -3993.73545954 eV
  | Hartree energy correction     :          -7.96326365 Ha        -216.69142898 eV
  | vdW energy correction         :           0.00000000 Ha           0.00000000 eV
  | Entropy correction            :           0.00000000 Ha           0.00000000 eV
  | ---------------------------
  | Total energy                  :        -323.47675277 Ha       -8802.25029652 eV
  | Total energy, T -> 0          :        -323.47675277 Ha       -8802.25029652 eV  <-- do not rely on this value for anything but (periodic) metals
  | Electronic free energy        :        -323.47675277 Ha       -8802.25029652 eV

  Derived energy quantities:
  | Kinetic energy                :         322.80263176 Ha        8783.90653055 eV
  | Electrostatic energy          :        -603.61417619 Ha      -16425.17743806 eV
  | Energy correction for multipole
  | error in Hartree potential    :           0.04365198 Ha           1.18783073 eV
  | Sum of eigenvalues per atom                           :        -378.73094525 eV
  | Total energy (T->0) per atom                          :        -677.09617666 eV  <-- do not rely on this value for anything but (periodic) metals
  | Electronic free energy per atom                       :        -677.09617666 eV

  Self-consistency convergence accuracy:
  | Change of charge density      :  0.2375E-01
  | Change of sum of eigenvalues  : -0.3268E+01 eV
  | Change of total energy        :  0.8691E-02 eV

  End self-consistency iteration #     5       :  max(cpu_time)    wall_clock(cpu1)
  | Time for this iteration                    :        1.188 s           1.196 s
  | Charge density update                      :        0.389 s           0.391 s
  | Density mixing                             :        0.011 s           0.010 s
  | Hartree multipole update                   :        0.009 s           0.009 s
  | Hartree multipole summation                :        0.283 s           0.283 s
  | Integration                                :        0.495 s           0.500 s
  | Solution of K.-S. eqns.                    :        0.002 s           0.003 s
  | Total energy evaluation                    :        0.000 s           0.000 s

  Partial memory accounting:
  | Current value for overall tracked memory usage on task 0  :           0.166 MB
  | Peak value for overall tracked memory usage on task 0     :           0.696 MB after allocating gradient_basis_wave
  | Largest tracked array allocation on task 0 so far         :           0.397 MB  when allocating gradient_basis_wave
  Note:  These values currently only include a subset of arrays which are explicitly tracked.
  The "true" memory usage will be greater.
------------------------------------------------------------

------------------------------------------------------------
          Begin self-consistency iteration #    6

  Date     :  20200815, Time     :  004218.905
------------------------------------------------------------
  Evaluating new KS density.
  Integration grid: deviation in total charge (<rho> - N_e) =  -3.552714E-14
  Pulay mixing of updated and previous charge densities.

  Evaluating partitioned Hartree potential by multipole expansion.
  | Analytical far-field extrapolation by fixed multipoles:
  | Hartree multipole sum: apparent total charge =  -0.511393E-03
  Summing up the Hartree potential.
  Time summed over all CPUs for potential: real work        0.282 s, elapsed        0.282 s
  | RMS charge density error from multipole expansion :   0.260378E-01

  Integrating Hamiltonian matrix: batch-based integration.
  Time summed over all CPUs for integration: real work        0.496 s, elapsed        0.496 s

  Updating Kohn-Sham eigenvalues and eigenvectors using ELSI and the ELPA eigensolver.
  Finished Cholesky decomposition
  | Time :     0.000 s
  Finished transformation to standard eigenproblem
  | Time :     0.000 s
  Starting LAPACK eigensolver
  Finished solving standard eigenproblem
  | Time :     0.001 s
  Finished back-transformation of eigenvectors
  | Time :     0.000 s

  Obtaining occupation numbers and chemical potential using ELSI.
  | Chemical potential (Fermi level):    -3.10846377eV
  Highest occupied state (VBM) at     -5.96100397 eV
  | Occupation number:      2.00000000

  Lowest unoccupied state (CBM) at    -1.10489291 eV
  | Occupation number:      0.00000000

  Overall HOMO-LUMO gap:      4.85611106 eV.

  Total energy components:
  | Sum of eigenvalues            :        -180.99965479 Ha       -4925.25120099 eV
  | XC energy correction          :         -42.65670616 Ha       -1160.74803290 eV
  | XC potential correction       :          54.84313113 Ha        1492.35752848 eV
  | Free-atom electrostatic energy:        -146.76708050 Ha       -3993.73545954 eV
  | Hartree energy correction     :          -7.89635935 Ha        -214.87087031 eV
  | vdW energy correction         :           0.00000000 Ha           0.00000000 eV
  | Entropy correction            :           0.00000000 Ha           0.00000000 eV
  | ---------------------------
  | Total energy                  :        -323.47666967 Ha       -8802.24803527 eV
  | Total energy, T -> 0          :        -323.47666967 Ha       -8802.24803527 eV  <-- do not rely on this value for anything but (periodic) metals
  | Electronic free energy        :        -323.47666967 Ha       -8802.24803527 eV

  Derived energy quantities:
  | Kinetic energy                :         322.69870718 Ha        8781.07859866 eV
  | Electrostatic energy          :        -603.51867069 Ha      -16422.57860103 eV
  | Energy correction for multipole
  | error in Hartree potential    :           0.04373319 Ha           1.19004067 eV
  | Sum of eigenvalues per atom                           :        -378.86547700 eV
  | Total energy (T->0) per atom                          :        -677.09600271 eV  <-- do not rely on this value for anything but (periodic) metals
  | Electronic free energy per atom                       :        -677.09600271 eV

  Self-consistency convergence accuracy:
  | Change of charge density      :  0.1124E-01
  | Change of sum of eigenvalues  : -0.1749E+01 eV
  | Change of total energy        :  0.2261E-02 eV

  End self-consistency iteration #     6       :  max(cpu_time)    wall_clock(cpu1)
  | Time for this iteration                    :        1.190 s           1.192 s
  | Charge density update                      :        0.389 s           0.389 s
  | Density mixing                             :        0.012 s           0.012 s
  | Hartree multipole update                   :        0.009 s           0.009 s
  | Hartree multipole summation                :        0.283 s           0.283 s
  | Integration                                :        0.495 s           0.496 s
  | Solution of K.-S. eqns.                    :        0.002 s           0.002 s
  | Total energy evaluation                    :        0.000 s           0.001 s

  Partial memory accounting:
  | Current value for overall tracked memory usage on task 0  :           0.166 MB
  | Peak value for overall tracked memory usage on task 0     :           0.696 MB after allocating gradient_basis_wave
  | Largest tracked array allocation on task 0 so far         :           0.397 MB  when allocating gradient_basis_wave
  Note:  These values currently only include a subset of arrays which are explicitly tracked.
  The "true" memory usage will be greater.
------------------------------------------------------------

------------------------------------------------------------
          Begin self-consistency iteration #    7

  Date     :  20200815, Time     :  004220.098
------------------------------------------------------------
  Evaluating new KS density.
  Integration grid: deviation in total charge (<rho> - N_e) =   0.000000E+00
  Pulay mixing of updated and previous charge densities.

  Evaluating partitioned Hartree potential by multipole expansion.
  | Analytical far-field extrapolation by fixed multipoles:
  | Hartree multipole sum: apparent total charge =  -0.512780E-03
  Summing up the Hartree potential.
  Time summed over all CPUs for potential: real work        0.283 s, elapsed        0.283 s
  | RMS charge density error from multipole expansion :   0.261920E-01

  Integrating Hamiltonian matrix: batch-based integration.
  Time summed over all CPUs for integration: real work        0.495 s, elapsed        0.495 s

  Updating Kohn-Sham eigenvalues and eigenvectors using ELSI and the ELPA eigensolver.
  Finished Cholesky decomposition
  | Time :     0.000 s
  Finished transformation to standard eigenproblem
  | Time :     0.000 s
  Starting LAPACK eigensolver
  Finished solving standard eigenproblem
  | Time :     0.002 s
  Finished back-transformation of eigenvectors
  | Time :     0.000 s

[...]
  |   Hirshfeld dipole moment :      0.06051195
  |   Hirshfeld second moments:      0.00047537      -0.02622169      -0.01603138
  |                                 -0.02622169      -0.02337514       0.00879447
  |                                 -0.01603138       0.00879447      -0.01801218
  ----------------------------------------------------------------------
  | Atom    12: O
  |   Hirshfeld charge        :     -0.13619985
  |   Free atom volume        :     23.61338643
  |   Hirshfeld volume        :     21.01905531
  |   Hirshfeld dipole vector :      0.01206706       0.03837843      -0.00633254
  |   Hirshfeld dipole moment :      0.04072614
  |   Hirshfeld second moments:      0.06955164      -0.01682323       0.02100946
  |                                 -0.01682323       0.03408206       0.00343692
  |                                  0.02100946       0.00343692       0.06763343
  ----------------------------------------------------------------------
  | Atom    13: H
  |   Hirshfeld charge        :      0.13322198
  |   Free atom volume        :      9.95071624
  |   Hirshfeld volume        :      6.75430532
  |   Hirshfeld dipole vector :     -0.06291893       0.02824878      -0.05374001
  |   Hirshfeld dipole moment :      0.08743439
  |   Hirshfeld second moments:      0.11247665      -0.01253417       0.00839669
  |                                 -0.01253417       0.07654850       0.02964354
  |                                  0.00839669       0.02964354       0.09340661
  ----------------------------------------------------------------------


  Total energy components:
  | Sum of eigenvalues            :        -180.98751310 Ha       -4924.92080860 eV
  | XC energy correction          :         -42.65525593 Ha       -1160.70856992 eV
  | XC potential correction       :          54.84131640 Ha        1492.30814708 eV
  | Free-atom electrostatic energy:        -146.76708050 Ha       -3993.73545954 eV
  | Hartree energy correction     :          -7.90811839 Ha        -215.19085006 eV
  | vdW energy correction         :          -0.00337365 Ha          -0.09180180 eV
  | Entropy correction            :           0.00000000 Ha           0.00000000 eV
  | ---------------------------
  | Total energy                  :        -323.48002517 Ha       -8802.33934284 eV
  | Total energy, T -> 0          :        -323.48002517 Ha       -8802.33934284 eV  <-- do not rely on this value for anything but (periodic) metals
  | Electronic free energy        :        -323.48002517 Ha       -8802.33934284 eV

  Derived energy quantities:
  | Kinetic energy                :         322.66452590 Ha        8780.14847891 eV
  | Electrostatic energy          :        -603.48592149 Ha      -16421.68745003 eV
  | Energy correction for multipole
  | error in Hartree potential    :           0.04382526 Ha           1.19254612 eV
  | Sum of eigenvalues per atom                           :        -378.84006220 eV
  | Total energy (T->0) per atom                          :        -677.10302637 eV  <-- do not rely on this value for anything but (periodic) metals
  | Electronic free energy per atom                       :        -677.10302637 eV

  atomic forces [eV/Ang]:
  -----------------------
  atom #    1
   Hellmann-Feynman              :  0.277459E+00  0.233419E+00  0.143494E+01
   Ionic forces                  :  0.000000E+00  0.000000E+00  0.000000E+00
   Multipole                     :  0.154861E+00  0.114460E+00 -0.150872E+00
   Pulay + GGA                   : -0.779500E+00  0.293162E-01 -0.152353E+01
   Van der Waals                 :  0.215061E-02  0.129837E-02 -0.112611E-02
   ----------------------------------------------------------------
   Total forces(   1)            : -0.345029E+00  0.378493E+00 -0.240587E+00
  atom #    2
   Hellmann-Feynman              :  0.218782E+00 -0.127130E-01 -0.238810E-01
   Ionic forces                  :  0.000000E+00  0.000000E+00  0.000000E+00
   Multipole                     :  0.188423E+00  0.935540E-02  0.156861E-01
   Pulay + GGA                   : -0.138545E+00  0.112914E-01  0.581424E-01
   Van der Waals                 :  0.309554E-02 -0.540891E-02 -0.663608E-02
   ----------------------------------------------------------------
   Total forces(   2)            :  0.271755E+00  0.252481E-02  0.433113E-01
  atom #    3
   Hellmann-Feynman              : -0.484074E+01  0.108085E+02 -0.993486E+00
   Ionic forces                  :  0.000000E+00  0.000000E+00  0.000000E+00
   Multipole                     : -0.177627E+00  0.192031E+00 -0.739163E+00
   Pulay + GGA                   :  0.546040E+01 -0.101706E+02  0.230230E+01
   Van der Waals                 :  0.366728E-02 -0.512390E-02 -0.862648E-02
   ----------------------------------------------------------------
   Total forces(   3)            :  0.445703E+00  0.824816E+00  0.561029E+00
  atom #    4
   Hellmann-Feynman              : -0.134838E+00 -0.448682E+00 -0.225911E+00
   Ionic forces                  :  0.000000E+00  0.000000E+00  0.000000E+00
   Multipole                     :  0.443023E-01 -0.157327E-01 -0.114944E+00
   Pulay + GGA                   : -0.174860E+00  0.114759E+00  0.122511E+00
   Van der Waals                 : -0.166646E-02  0.268844E-02  0.371187E-02
   ----------------------------------------------------------------
   Total forces(   4)            : -0.267061E+00 -0.346967E+00 -0.214632E+00
  atom #    5
   Hellmann-Feynman              :  0.137870E+00  0.222000E+00 -0.111207E+01
   Ionic forces                  :  0.000000E+00  0.000000E+00  0.000000E+00
   Multipole                     : -0.656401E-01 -0.174874E-01 -0.192819E+00
   Pulay + GGA                   :  0.152033E+00  0.290233E+00 -0.772989E-01
   Van der Waals                 :  0.637109E-05  0.328228E-02  0.244848E-02
   ----------------------------------------------------------------
   Total forces(   5)            :  0.224269E+00  0.498028E+00 -0.137974E+01
  atom #    6
   Hellmann-Feynman              :  0.830573E-01 -0.361397E+00  0.479387E+00
   Ionic forces                  :  0.000000E+00  0.000000E+00  0.000000E+00
   Multipole                     : -0.113168E+00  0.626389E+00  0.243706E+00
   Pulay + GGA                   :  0.182964E+00 -0.592578E+00 -0.579574E+00
   Van der Waals                 : -0.284289E-02  0.442412E-02 -0.599676E-02
   ----------------------------------------------------------------
   Total forces(   6)            :  0.150010E+00 -0.323162E+00  0.137522E+00
  atom #    7
   Hellmann-Feynman              : -0.213006E+00 -0.468862E-01 -0.477587E-01
   Ionic forces                  :  0.000000E+00  0.000000E+00  0.000000E+00
   Multipole                     : -0.118392E+00  0.504428E-01  0.232993E-01
   Pulay + GGA                   :  0.119892E+00  0.234314E-01 -0.614825E-03
   Van der Waals                 : -0.139539E-02 -0.136956E-02  0.148233E-02
   ----------------------------------------------------------------
   Total forces(   7)            : -0.212901E+00  0.256185E-01 -0.235919E-01
  atom #    8
   Hellmann-Feynman              :  0.693938E-01 -0.646061E-01  0.153323E+00
   Ionic forces                  :  0.000000E+00  0.000000E+00  0.000000E+00
   Multipole                     :  0.159714E-01  0.662600E-01  0.126025E+00
   Pulay + GGA                   : -0.447348E-01 -0.394598E-01 -0.882999E-01
   Van der Waals                 : -0.282875E-02  0.112076E-01  0.140757E-02
   ----------------------------------------------------------------
   Total forces(   8)            :  0.378016E-01 -0.265984E-01  0.192456E+00
  atom #    9
   Hellmann-Feynman              :  0.884977E-01  0.123882E-01 -0.180580E+00
   Ionic forces                  :  0.000000E+00  0.000000E+00  0.000000E+00
   Multipole                     :  0.141391E-01  0.130100E+00 -0.122577E-01
   Pulay + GGA                   : -0.598187E-01 -0.903654E-01  0.352780E-01
   Van der Waals                 : -0.214885E-02  0.206942E-02  0.314127E-02
   ----------------------------------------------------------------
   Total forces(   9)            :  0.406691E-01  0.541920E-01 -0.154418E+00
  atom #   10
   Hellmann-Feynman              :  0.269838E+01  0.394000E+01  0.220351E+01
   Ionic forces                  :  0.000000E+00  0.000000E+00  0.000000E+00
   Multipole                     :  0.887521E-01 -0.477372E-01  0.184381E+00
   Pulay + GGA                   : -0.136519E+01 -0.280050E+01 -0.286616E+00
   Van der Waals                 :  0.308566E-02 -0.131211E-01  0.188926E-02
   ----------------------------------------------------------------
   Total forces(  10)            :  0.142503E+01  0.107864E+01  0.210316E+01
  atom #   11
   Hellmann-Feynman              :  0.411751E+01 -0.237129E+01  0.142006E+02
   Ionic forces                  :  0.000000E+00  0.000000E+00  0.000000E+00
   Multipole                     :  0.440862E-01 -0.494793E+00  0.962687E+00
   Pulay + GGA                   : -0.329819E+01  0.335730E+01 -0.142399E+02
   Van der Waals                 : -0.102301E-02 -0.122668E-01  0.587804E-02
   ----------------------------------------------------------------
   Total forces(  11)            :  0.862376E+00  0.478948E+00  0.929242E+00
  atom #   12
   Hellmann-Feynman              : -0.417753E+01 -0.141161E+02  0.346806E+00
   Ionic forces                  :  0.000000E+00  0.000000E+00  0.000000E+00
   Multipole                     : -0.112828E+01 -0.151024E+01  0.747447E-01
   Pulay + GGA                   :  0.343708E+01  0.141678E+02 -0.188062E+01
   Van der Waals                 :  0.199156E-02  0.725172E-02  0.274323E-02
   ----------------------------------------------------------------
   Total forces(  12)            : -0.186674E+01 -0.145127E+01 -0.145632E+01
  atom #   13
   Hellmann-Feynman              : -0.939687E+00 -0.980277E+00 -0.837309E+00
   Ionic forces                  :  0.000000E+00  0.000000E+00  0.000000E+00
   Multipole                     : -0.245309E-01  0.607287E-01 -0.104656E-01
   Pulay + GGA                   :  0.198199E+00 -0.278953E+00  0.343515E+00
   Van der Waals                 : -0.209167E-02  0.506831E-02 -0.316633E-03
   ----------------------------------------------------------------
   Total forces(  13)            : -0.768111E+00 -0.119343E+01 -0.504576E+00

  Timings for VdW correction (Tkatchenko-Scheffler 2009 or later):
  | CPU time:        0.089 s, Wall clock time:        0.089 s.
  Removing unitary transformations (pure translations, rotations) from forces on atoms.
  Atomic forces before filtering:
  | Net force on center of mass :  -0.222451E-02 -0.173078E-03 -0.714496E-02 eV/A
  | Net torque on center of mass:   0.366545E-02  0.774351E-03 -0.631445E-02 eV
  Atomic forces after filtering:
  | Net force on center of mass :  -0.446015E-15 -0.356812E-15  0.624421E-15 eV/A
  | Net torque on center of mass:   0.944085E-16  0.188817E-15 -0.169935E-14 eV

  Energy and forces in a compact form:
  | Total energy uncorrected      :         -0.880233934284139E+04 eV
  | Total energy corrected        :         -0.880233934284139E+04 eV  <-- do not rely on this value for anything but (periodic) metals
  | Electronic free energy        :         -0.880233934284139E+04 eV
  Total atomic forces (unitary forces cleaned) [eV/Ang]:
  |   1         -0.344881710738375E+00          0.378599053077311E+00         -0.240041982967623E+00
  |   2          0.271902489297385E+00          0.287643285729662E-02          0.438712719950515E-01
  |   3          0.445868909539955E+00          0.824680877254816E+00          0.561567610642301E+00
  |   4         -0.266862830483317E+00         -0.346978587204226E+00         -0.214072568629832E+00
  |   5          0.224611905711320E+00          0.497736109795560E+00         -0.137913626795392E+01
  |   6          0.149863503927698E+00         -0.323099721417498E+00          0.137941780747103E+00
  |   7         -0.213054058552778E+00          0.254366560328896E-01         -0.231891081334079E-01
  |   8          0.376381915364798E-01         -0.263578579944664E-01          0.192880118638214E+00
  |   9          0.403269810190075E-01          0.542884816129630E-01         -0.154077479111980E+00
  |  10          0.142545832279989E+01          0.107872734345675E+01          0.210382416723853E+01
  |  11          0.862849632137923E+00          0.479207290853804E+00          0.929932096714607E+00
  |  12         -0.186611117255307E+01         -0.145140850216230E+01         -0.145559314050201E+01
  |  13         -0.767610163642116E+00         -0.119370757616290E+01         -0.503906498677036E+00

  ------------------------------------ 
  Start decomposition of the XC Energy 
  ------------------------------------ 
  X and C from original XC functional choice 
  Hartree-Fock Energy :          0.000000000 Ha              0.000000000 eV
  X Energy            :        -41.051290932 Ha          -1117.062461776 eV
  C Energy            :         -1.603964993 Ha            -43.646108148 eV
  Total XC Energy     :        -42.655255925 Ha          -1160.708569924 eV
  ------------------------------------ 
  LDA X and C from self-consistent density 
  X Energy LDA        :        -37.273631624 Ha          -1014.267121823 eV
  C Energy LDA        :         -3.140063114 Ha            -85.445464745 eV
  ------------------------------------ 
  End decomposition of the XC Energy 
  ------------------------------------ 

------------------------------------------------------------

------------------------------------------------------------------------------
  Final output of selected total energy values:

  The following output summarizes some interesting total energy values
  at the end of a run (AFTER all relaxation, molecular dynamics, etc.).

  | Total energy of the DFT / Hartree-Fock s.c.f. calculation      :          -8802.339342841 eV
  | Final zero-broadening corrected energy (caution - metals only) :          -8802.339342841 eV
  | For reference only, the value of 1 Hartree used in FHI-aims is :             27.211384500 eV

  Before relying on these values, please be sure to understand exactly which
  total energy value is referred to by a given number. Different objects may
  all carry the same name 'total energy'. Definitions:

  Total energy of the DFT / Hartree-Fock s.c.f. calculation:
  | Note that this energy does not include ANY quantities calculated after the
  | s.c.f. cycle, in particular not ANY RPA, MP2, etc. many-body perturbation terms.

  Final zero-broadening corrected energy:
  | For metallic systems only, a broadening of the occupation numbers at the Fermi
  | level can be extrapolated back to zero broadening by an electron-gas inspired
  | formula. For all systems that are not real metals, this value can be
  | meaningless and should be avoided.

------------------------------------------------------------------------------
  Methods described in the following list of references were used in this FHI-aims run.
  If you publish the results, please make sure to cite these reference if they apply.
  FHI-aims is an academic code, and for our developers (often, Ph.D. students
  and postdocs), scientific credit in the community is essential.
  Thank you for helping us!

  For any use of FHI-aims, please cite:

    Volker Blum, Ralf Gehrke, Felix Hanke, Paula Havu, Ville Havu,
    Xinguo Ren, Karsten Reuter, and Matthias Scheffler
    'Ab initio molecular simulations with numeric atom-centered orbitals'
    Computer Physics Communications 180, 2175-2196 (2009)
    http://dx.doi.org/10.1016/j.cpc.2009.06.022


  The scalable eigensolver library ELPA was used in your run.
  ELPA is essential especially for large systems on hundreds or thousands of CPUs.
  For ELPA, please cite:

    Andreas Marek, Volker Blum, Rainer Johanni, Ville Havu, Bruno Lang,
    Thomas Auckenthaler, Alexander Heinecke, Hans-Joachim Bungartz, and Hermann Lederer,
    'The ELPA Library - Scalable Parallel Eigenvalue Solutions
    for Electronic Structure Theory and Computational Science'
    The Journal of Physics: Condensed Matter 26, 213201 (2014).
    http://dx.doi.org/10.1088/0953-8984/26/21/213201


  The ELSI infrastructure was used in your run to solve the Kohn-Sham electronic structure.
  Please check out http://elsi-interchange.org to learn more.
  If scalability is important for your project, please acknowledge ELSI by citing:

    V. W-z. Yu, F. Corsetti, A. Garcia, W. P. Huhn, M. Jacquelin, W. Jia,
    B. Lange, L. Lin, J. Lu, W. Mi, A. Seifitokaldani, A. Vazquez-Mayagoitia,
    C. Yang, H. Yang, and V. Blum
    'ELSI: A unified software interface for Kohn-Sham electronic structure solvers'
    Computer Physics Communications 222, 267-285 (2018).
    http://dx.doi.org/10.1016/j.cpc.2017.09.007


  For the real-space grid partitioning and parallelization used in this calculation, please cite:

    Ville Havu, Volker Blum, Paula Havu, and Matthias Scheffler,
    'Efficient O(N) integration for all-electron electronic structure calculation'
    'using numerically tabulated basis functions'
    Journal of Computational Physics 228, 8367-8379 (2009).
    http://dx.doi.org/10.1016/j.jcp.2009.08.008

  Of course, there are many other important community references, e.g., those cited in the
  above references. Our list is limited to references that describe implementations in the
  FHI-aims code. The reason is purely practical (length of this list) - please credit others as well.

------------------------------------------------------------
          Leaving FHI-aims.
          Date     :  20200815, Time     :  004234.396

          Computational steps:
          | Number of self-consistency cycles          :           16
          | Number of SCF (re)initializations          :            1

          Detailed time accounting                     :  max(cpu_time)    wall_clock(cpu1)
          | Total time                                 :       22.698 s          22.771 s
          | Preparation time                           :        0.146 s           0.148 s
          | Boundary condition initalization           :        0.000 s           0.000 s
          | Grid partitioning                          :        0.111 s           0.112 s
          | Preloading free-atom quantities on grid    :        0.002 s           0.002 s
          | Free-atom superposition energy             :        0.085 s           0.085 s
          | Total time for integrations                :        8.621 s           8.632 s
          | Total time for solution of K.-S. equations :        0.037 s           0.038 s
          | Total time for density & force components  :        7.186 s           7.204 s
          | Total time for mixing                      :        0.213 s           0.215 s
          | Total time for Hartree multipole update    :        0.140 s           0.142 s
          | Total time for Hartree multipole sum       :        5.756 s           5.759 s
          | Total time for total energy evaluation     :        0.003 s           0.004 s
          | Total time for vdW correction              :        0.089 s           0.089 s

          Partial memory accounting:
          | Residual value for overall tracked memory usage across tasks :           0.000 MB (should be 0.000 MB)
          | Peak values for overall tracked memory usage (after allocating hessian_basis_wave):
          |   Minimum:        1.622 MB (on task 1)
          |   Maximum:        1.622 MB (on task 1)
          |   Average:        1.622 MB
          | Largest tracked array allocation (hessian_basis_wave):
          |   Minimum:        0.794 MB (on task 1)
          |   Maximum:        0.794 MB (on task 1)
          |   Average:        0.794 MB
          Note:  These values currently only include a subset of arrays which are explicitly tracked.
          The "true" memory usage will be greater.

          Have a nice day.
------------------------------------------------------------
