  MPI-parallelism will be employed.
------------------------------------------------------------
          Invoking FHI-aims ...
          Version 171221_1
          Compiled on 2019/09/09 at 14:39:39 on host puhti-login2.bullx.

          When using FHI-aims, please cite the following reference:

          Volker Blum, Ralf Gehrke, Felix Hanke, Paula Havu,
          Ville Havu, Xinguo Ren, Karsten Reuter, and Matthias Scheffler,
          'Ab Initio Molecular Simulations with Numeric Atom-Centered Orbitals',
          Computer Physics Communications 180, 2175-2196 (2009)

          For any questions about FHI-aims, please visit the aimsclub website
          with its forums and wiki. Contributions to both the forums and the
          wiki are warmly encouraged - they are for you, and everyone is welcome there.

------------------------------------------------------------



  Date     :  20200805, Time     :  180902.488
  Time zero on CPU 1             :   0.136010000000000E-01  s.
  Internal wall clock time zero  :           365882942.488  s.

  FHI-aims created a unique identifier for this run for later identification
  aims_uuid : 775020B9-E1B4-4B30-A8AC-D221D9034426

  Using        1 parallel tasks.
  Task        0 on host r16c42.bullx reporting.

  Performing system and environment tests:
  | Environment variable OMP_NUM_THREADS correctly set to 1.
  | Stacksize not measured: no C compiler
  | Checking for scalapack...
  | Testing pdtran()...
  | All pdtran() tests passed.

  Obtaining array dimensions for all initial allocations:
  
  -----------------------------------------------------------------------
  Parsing control.in (first pass over file, find array dimensions only).
  The contents of control.in will be repeated verbatim below
  unless switched off by setting 'verbatim_writeout .false.' .
  in the first line of control.in .
  -----------------------------------------------------------------------
  
  #########################################################################################
  #
  #  Volker Blum, FHI 2009 : Test run input file control.in for simple H2O
  #
  #########################################################################################
  #
  #  Physical model
  #
    xc                 pbe
    vdw_correction_hirshfeld
    spin               none
    relativistic       none
    charge             0.
  #
  #  SCF convergence
  #
    occupation_type    gaussian 0.01
    mixer              pulay
      n_max_pulay        10
      charge_mix_param   0.2
    sc_accuracy_rho    1E-5
    sc_accuracy_eev    1E-3
    sc_accuracy_etot   1E-6
    sc_accuracy_forces 1E-4
    sc_iter_limit      100
  #
  #  Relaxation
  #
  #  relax_geometry   bfgs 1.e-3
  #
  ################################################################################
  #
  #  FHI-aims code project
  #  VB, Fritz-Haber Institut, 2009
  #
  #  Suggested "light" defaults for H atom (to be pasted into control.in file)
  #  Be sure to double-check any results obtained with these settings for post-processing,
  #  e.g., with the "tight" defaults and larger basis sets.
  #
  ################################################################################
    species        H
  #     global species definitions
      nucleus             1
      mass                1.00794
  #
      l_hartree           4
  #
      cut_pot             3.5  1.5  1.0
      basis_dep_cutoff    1e-4
  #
      radial_base         24 5.0
      radial_multiplier   1
      angular_grids       specified
        division   0.2421   50
        division   0.3822  110
        division   0.4799  194
        division   0.5341  302
  #      division   0.5626  434
  #      division   0.5922  590
  #      division   0.6542  770
  #      division   0.6868 1202
  #      outer_grid  770
        outer_grid  302
  ################################################################################
  #
  #  Definition of "minimal" basis
  #
  ################################################################################
  #     valence basis states
      valence      1  s   1.
  #     ion occupancy
      ion_occ      1  s   0.5
  ################################################################################
  #
  #  Suggested additional basis functions. For production calculations,
  #  uncomment them one after another (the most important basis functions are
  #  listed first).
  #
  #  Basis constructed for dimers: 0.5 A, 0.7 A, 1.0 A, 1.5 A, 2.5 A
  #
  ################################################################################
  #  "First tier" - improvements: -1014.90 meV to -62.69 meV
       hydro 2 s 2.1
       hydro 2 p 3.5
  #  "Second tier" - improvements: -12.89 meV to -1.83 meV
  #     hydro 1 s 0.85
  #     hydro 2 p 3.7
  #     hydro 2 s 1.2
  #     hydro 3 d 7
  #  "Third tier" - improvements: -0.25 meV to -0.12 meV
  #     hydro 4 f 11.2
  #     hydro 3 p 4.8
  #     hydro 4 d 9
  #     hydro 3 s 3.2
  ################################################################################
  #
  #  FHI-aims code project
  #  VB, Fritz-Haber Institut, 2009
  #
  #  Suggested "light" defaults for C atom (to be pasted into control.in file)
  #  Be sure to double-check any results obtained with these settings for post-processing,
  #  e.g., with the "tight" defaults and larger basis sets.
  #
  ################################################################################
    species        C
  #     global species definitions
      nucleus             6
      mass                12.0107
  #
      l_hartree           4
  #
      cut_pot             3.5  1.5  1.0
      basis_dep_cutoff    1e-4
  #
      radial_base         34 5.0
      radial_multiplier   1
      angular_grids specified
        division   0.3326   50
        division   0.5710  110
        division   0.7727  194
        division   0.8772  302
  #      division   0.9334  434
  #      division   0.9625  590
  #      division   0.9924  770
  #      division   1.0230  974
  #      division   1.4589 1202
  #     outer_grid  974
       outer_grid 302
  ################################################################################
  #
  #  Definition of "minimal" basis
  #
  ################################################################################
  #     valence basis states
      valence      2  s   2.
      valence      2  p   2.
  #     ion occupancy
      ion_occ      2  s   1.
      ion_occ      2  p   1.
  ################################################################################
  #
  #  Suggested additional basis functions. For production calculations,
  #  uncomment them one after another (the most important basis functions are
  #  listed first).
  #
  #  Constructed for dimers: 1.0 A, 1.25 A, 1.5 A, 2.0 A, 3.0 A
  #
  ################################################################################
  #  "First tier" - improvements: -1214.57 meV to -155.61 meV
       hydro 2 p 1.7
       hydro 3 d 6
       hydro 2 s 4.9
  #  "Second tier" - improvements: -67.75 meV to -5.23 meV
  #     hydro 4 f 9.8
  #     hydro 3 p 5.2
  #     hydro 3 s 4.3
  #     hydro 5 g 14.4
  #     hydro 3 d 6.2
  #  "Third tier" - improvements: -2.43 meV to -0.60 meV
  #     hydro 2 p 5.6
  #     hydro 2 s 1.4
  #     hydro 3 d 4.9
  #     hydro 4 f 11.2
  #  "Fourth tier" - improvements: -0.39 meV to -0.18 meV
  #     hydro 2 p 2.1
  #     hydro 5 g 16.4
  #     hydro 4 d 13.2
  #     hydro 3 s 13.6
  #     hydro 4 f 17.6
  #  Further basis functions - improvements: -0.08 meV and below
  #     hydro 3 s 2
  #     hydro 3 p 6
  #     hydro 4 d 20
  ################################################################################
  #
  #  FHI-aims code project
  #  VB, Fritz-Haber Institut, 2009
  #
  #  Suggested "light" defaults for N atom (to be pasted into control.in file)
  #  Be sure to double-check any results obtained with these settings for post-processing,
  #  e.g., with the "tight" defaults and larger basis sets.
  #
  ################################################################################
    species        N
  #     global species definitions
      nucleus             7
      mass                14.0067
  #
      l_hartree           4
  #
      cut_pot             3.5  1.5  1.0
      basis_dep_cutoff    1e-4
  #
      radial_base         35 5.0
      radial_multiplier   1
      angular_grids       specified
        division   0.2599   50
        division   0.4601  110
        division   0.5885  194
        division   0.6503  302
  #      division   0.6939  434
  #      division   0.7396  590
  #      division   0.7632  770
  #      division   0.8122  974
  #      division   1.1604 1202
  #      outer_grid  974
        outer_grid  302
  ################################################################################
  #
  #  Definition of "minimal" basis
  #
  ################################################################################
  #     valence basis states
      valence      2  s   2.
      valence      2  p   3.
  #     ion occupancy
      ion_occ      2  s   1.
      ion_occ      2  p   2.
  ################################################################################
  #
  #  Suggested additional basis functions. For production calculations,
  #  uncomment them one after another (the most important basis functions are
  #  listed first).
  #
  #  Constructed for dimers: 1.0 A, 1.1 A, 1.5 A, 2.0 A, 3.0 A
  #
  ################################################################################
  #  "First tier" - improvements: -1193.42 meV to -220.60 meV
       hydro 2 p 1.8
       hydro 3 d 6.8
       hydro 3 s 5.8
  #  "Second tier" - improvements: -80.21 meV to -6.86 meV
  #     hydro 4 f 10.8
  #     hydro 3 p 5.8
  #     hydro 1 s 0.8
  #     hydro 5 g 16
  #     hydro 3 d 4.9
  #  "Third tier" - improvements: -4.29 meV to -0.53 meV
  #     hydro 3 s 16
  #     ionic 2 p auto
  #     hydro 3 d 6.6
  #     hydro 4 f 11.6
  #  "Fourth tier" - improvements: -0.75 meV to -0.25 meV
  #     hydro 2 p 4.5
  #     hydro 2 s 2.4
  #     hydro 5 g 14.4
  #     hydro 4 d 14.4
  #     hydro 4 f 16.8
  # Further basis functions - -0.21 meV and below
  #     hydro 3 p 14.8
  #     hydro 3 s 4.4
  #     hydro 3 d 19.6
  #     hydro 5 g 12.8
  ################################################################################
  #
  #  FHI-aims code project
  #  VB, Fritz-Haber Institut, 2009
  #
  #  Suggested "light" defaults for O atom (to be pasted into control.in file)
  #  Be sure to double-check any results obtained with these settings for post-processing,
  #  e.g., with the "tight" defaults and larger basis sets.
  #
  ################################################################################
    species        O
  #     global species definitions
      nucleus             8
      mass                15.9994
  #
      l_hartree           4
  #
      cut_pot             3.5  1.5  1.0
      basis_dep_cutoff    1e-4
  #
      radial_base         36 5.0
      radial_multiplier   1
       angular_grids specified
        division   0.2659   50
        division   0.4451  110
        division   0.6052  194
        division   0.7543  302
  #      division   0.8014  434
  #      division   0.8507  590
  #      division   0.8762  770
  #      division   0.9023  974
  #      division   1.2339 1202
  #      outer_grid 974
        outer_grid 302
  ################################################################################
  #
  #  Definition of "minimal" basis
  #
  ################################################################################
  #     valence basis states
      valence      2  s   2.
      valence      2  p   4.
  #     ion occupancy
      ion_occ      2  s   1.
      ion_occ      2  p   3.
  ################################################################################
  #
  #  Suggested additional basis functions. For production calculations,
  #  uncomment them one after another (the most important basis functions are
  #  listed first).
  #
  #  Constructed for dimers: 1.0 A, 1.208 A, 1.5 A, 2.0 A, 3.0 A
  #
  ################################################################################
  #  "First tier" - improvements: -699.05 meV to -159.38 meV
       hydro 2 p 1.8
       hydro 3 d 7.6
       hydro 3 s 6.4
  #  "Second tier" - improvements: -49.91 meV to -5.39 meV
  #     hydro 4 f 11.6
  #     hydro 3 p 6.2
  #     hydro 3 d 5.6
  #     hydro 5 g 17.6
  #     hydro 1 s 0.75
  #  "Third tier" - improvements: -2.83 meV to -0.50 meV
  #     ionic 2 p auto
  #     hydro 4 f 10.8
  #     hydro 4 d 4.7
  #     hydro 2 s 6.8
  #  "Fourth tier" - improvements: -0.40 meV to -0.12 meV
  #     hydro 3 p 5
  #     hydro 3 s 3.3
  #     hydro 5 g 15.6
  #     hydro 4 f 17.6
  #     hydro 4 d 14
  # Further basis functions - -0.08 meV and below
  #     hydro 3 s 2.1
  #     hydro 4 d 11.6
  #     hydro 3 p 16
  #     hydro 2 s 17.2
  
  -----------------------------------------------------------------------
  Completed first pass over input file control.in .
  -----------------------------------------------------------------------
  
  
  -----------------------------------------------------------------------
  Parsing geometry.in (first pass over file, find array dimensions only).
  The contents of geometry.in will be repeated verbatim below
  unless switched off by setting 'verbatim_writeout .false.' .
  in the first line of geometry.in .
  -----------------------------------------------------------------------
  
  atom  0.00000 0.00000 0.00000 C
  atom  1.09300 0.00000 0.00000 H
  atom  -0.47961 0.00000 -1.41207 N
  atom  -0.90428 0.90609 -1.61326 H
  atom  0.31534 -0.16036 -2.02727 H
  atom  -0.49584 1.26211 0.72868 C
  atom  -1.58789 1.28919 0.74431 H
  atom  -0.13407 1.27425 1.75947 H
  atom  -0.13407 2.16087 0.22380 H
  atom  -0.39425 -1.28861 0.74398 C
  atom  -0.10189 -1.56493 1.88303 O
  atom  -1.10210 -2.13717 0.06896 O
  atom  -1.49025 -2.62379 0.81563 H
  
  -----------------------------------------------------------------------
  Completed first pass over input file geometry.in .
  -----------------------------------------------------------------------
  

  Basic array size parameters:
  | Number of species                 :        4
  | Number of atoms                   :       13
  | Max. basis fn. angular momentum   :        2
  | Max. atomic/ionic basis occupied n:        2
  | Max. number of basis fn. types    :        2
  | Max. radial fns per species/type  :        3
  | Max. logarithmic grid size        :     1301
  | Max. radial integration grid size :       36
  | Max. angular integration grid size:      302
  | Max. angular grid division number :        8
  | Radial grid for Hartree potential :     1301
  | Number of spin channels           :        1

------------------------------------------------------------
          Reading file control.in.
------------------------------------------------------------
  XC: Using PBE gradient-corrected functionals.
  Spin treatment: No spin polarisation.
  Non-relativistic treatment of kinetic energy.
  Charge =   0.000000E+00: Neutral system requested explicitly.
  Occupation type: Gaussian broadening, width =   0.100000E-01 eV.
  Using pulay charge density mixing.
  Pulay mixing - number of memorized iterations:   10
  Charge density mixing - mixing parameter:     0.2000
  Convergence accuracy of self-consistent charge density:  0.1000E-04
  Convergence accuracy of sum of eigenvalues:  0.1000E-02
  Convergence accuracy of total energy:  0.1000E-05
  Convergence accuracy of forces:  0.1000E-03
  Maximum number of s.-c. iterations  :   100
 
  Reading configuration options for species H                   .
  | Found nuclear charge :   1.0000
  | Found atomic mass :    1.00794000000000      amu
  | Found l_max for Hartree potential  :   4
  | Found cutoff potl. onset [A], width [A], scale factor :    3.50000    1.50000    1.00000
  | Threshold for basis-dependent cutoff potential is   0.100000E-03
  | Found data for basic radial integration grid :    24 points, outermost radius =    5.000 A
  | Found multiplier for basic radial grid :   1
  | Found angular grid specification: user-specified.
  | Specified grid contains     5 separate shells.
  | Check grid settings after all constraints further below.
  | Found free-atom valence shell :  1 s   1.000
  | No ionic wave fns used. Skipping ion_occ.
  | Found hydrogenic basis function :  2 s   2.100
  | Found hydrogenic basis function :  2 p   3.500
  Species H                   : Missing cutoff potential type.
  Defaulting to exp(1/x)/(1-x)^2 type cutoff potential.
  Species H : No 'logarithmic' tag. Using default grid for free atom:
  | Default logarithmic grid data [bohr] : 0.1000E-03 0.1000E+03 0.1012E+01
  Species H : On-site basis accuracy parameter (for Gram-Schmidt orthonormalisation) not specified.
  Using default value basis_acc =  0.1000000E-03.
  Species H                   : Using default innermost maximum threshold i_radial=  2 for radial functions.
  Species H                   : Default cutoff onset for free atom density etc. : 0.35000000E+01 AA.
  Species H                   : Basic radial grid will be enhanced according to radial_multiplier =   1, to contain    24 grid points.
 
  Reading configuration options for species C                   .
  | Found nuclear charge :   6.0000
  | Found atomic mass :    12.0107000000000      amu
  | Found l_max for Hartree potential  :   4
  | Found cutoff potl. onset [A], width [A], scale factor :    3.50000    1.50000    1.00000
  | Threshold for basis-dependent cutoff potential is   0.100000E-03
  | Found data for basic radial integration grid :    34 points, outermost radius =    5.000 A
  | Found multiplier for basic radial grid :   1
  | Found angular grid specification: user-specified.
  | Specified grid contains     5 separate shells.
  | Check grid settings after all constraints further below.
  | Found free-atom valence shell :  2 s   2.000
  | Found free-atom valence shell :  2 p   2.000
  | No ionic wave fns used. Skipping ion_occ.
  | No ionic wave fns used. Skipping ion_occ.
  | Found hydrogenic basis function :  2 p   1.700
  | Found hydrogenic basis function :  3 d   6.000
  | Found hydrogenic basis function :  2 s   4.900
  Species C                   : Missing cutoff potential type.
  Defaulting to exp(1/x)/(1-x)^2 type cutoff potential.
  Species C : No 'logarithmic' tag. Using default grid for free atom:
  | Default logarithmic grid data [bohr] : 0.1000E-03 0.1000E+03 0.1012E+01
  Species C : On-site basis accuracy parameter (for Gram-Schmidt orthonormalisation) not specified.
  Using default value basis_acc =  0.1000000E-03.
  Species C                   : Using default innermost maximum threshold i_radial=  2 for radial functions.
  Species C                   : Default cutoff onset for free atom density etc. : 0.35000000E+01 AA.
  Species C                   : Basic radial grid will be enhanced according to radial_multiplier =   1, to contain    34 grid points.
 
  Reading configuration options for species N                   .
  | Found nuclear charge :   7.0000
  | Found atomic mass :    14.0067000000000      amu
  | Found l_max for Hartree potential  :   4
  | Found cutoff potl. onset [A], width [A], scale factor :    3.50000    1.50000    1.00000
  | Threshold for basis-dependent cutoff potential is   0.100000E-03
  | Found data for basic radial integration grid :    35 points, outermost radius =    5.000 A
  | Found multiplier for basic radial grid :   1
  | Found angular grid specification: user-specified.
  | Specified grid contains     5 separate shells.
  | Check grid settings after all constraints further below.
  | Found free-atom valence shell :  2 s   2.000
  | Found free-atom valence shell :  2 p   3.000
  | No ionic wave fns used. Skipping ion_occ.
  | No ionic wave fns used. Skipping ion_occ.
  | Found hydrogenic basis function :  2 p   1.800
  | Found hydrogenic basis function :  3 d   6.800
  | Found hydrogenic basis function :  3 s   5.800
  Species N                   : Missing cutoff potential type.
  Defaulting to exp(1/x)/(1-x)^2 type cutoff potential.
  Species N : No 'logarithmic' tag. Using default grid for free atom:
  | Default logarithmic grid data [bohr] : 0.1000E-03 0.1000E+03 0.1012E+01
  Species N : On-site basis accuracy parameter (for Gram-Schmidt orthonormalisation) not specified.
  Using default value basis_acc =  0.1000000E-03.
  Species N                   : Using default innermost maximum threshold i_radial=  2 for radial functions.
  Species N                   : Default cutoff onset for free atom density etc. : 0.35000000E+01 AA.
  Species N                   : Basic radial grid will be enhanced according to radial_multiplier =   1, to contain    35 grid points.
 
  Reading configuration options for species O                   .
  | Found nuclear charge :   8.0000
  | Found atomic mass :    15.9994000000000      amu
  | Found l_max for Hartree potential  :   4
  | Found cutoff potl. onset [A], width [A], scale factor :    3.50000    1.50000    1.00000
  | Threshold for basis-dependent cutoff potential is   0.100000E-03
  | Found data for basic radial integration grid :    36 points, outermost radius =    5.000 A
  | Found multiplier for basic radial grid :   1
  | Found angular grid specification: user-specified.
  | Specified grid contains     5 separate shells.
  | Check grid settings after all constraints further below.
  | Found free-atom valence shell :  2 s   2.000
  | Found free-atom valence shell :  2 p   4.000
  | No ionic wave fns used. Skipping ion_occ.
  | No ionic wave fns used. Skipping ion_occ.
  | Found hydrogenic basis function :  2 p   1.800
  | Found hydrogenic basis function :  3 d   7.600
  | Found hydrogenic basis function :  3 s   6.400
  Species O                   : Missing cutoff potential type.
  Defaulting to exp(1/x)/(1-x)^2 type cutoff potential.
  Species O : No 'logarithmic' tag. Using default grid for free atom:
  | Default logarithmic grid data [bohr] : 0.1000E-03 0.1000E+03 0.1012E+01
  Species O : On-site basis accuracy parameter (for Gram-Schmidt orthonormalisation) not specified.
  Using default value basis_acc =  0.1000000E-03.
  Species O                   : Using default innermost maximum threshold i_radial=  2 for radial functions.
  Species O                   : Default cutoff onset for free atom density etc. : 0.35000000E+01 AA.
  Species O                   : Basic radial grid will be enhanced according to radial_multiplier =   1, to contain    36 grid points.
 
  Finished reading input file 'control.in'. Consistency checks are next.
 
  MPI_IN_PLACE appears to work with this MPI implementation.
  | Keeping use_mpi_in_place .true. (see manual).
  Target number of points in a grid batch is not set. Defaulting to  100
  Method for grid partitioning is not set. Defaulting to parallel hash+maxmin partitioning.
  Batch size limit is not set. Defaulting to    200
  By default, will store active basis functions for each batch.
  If in need of memory, prune_basis_once .false. can be used to disable this option.
  communication_type for Hartree potential was not specified.
  Defaulting to calc_hartree .
  Pulay mixer: Number of initial linear mixing iterations not set.
  Defaulting to    0 iterations.
  Work space size for distributed Hartree potential not set.
  Defaulting to   0.200000E+03 MB.
  Algorithm-dependent basis array size parameters:
  | n_max_pulay                         :       10
  Presetting      1001 iterations before the initial mixing cycle
  is restarted anyway using the sc_init_iter criterion / keyword.
  Presetting a factor      1.000 between actual scf density residual
  and density convergence criterion sc_accuracy_rho below which sc_init_iter
  takes no effect.
  Geometry relaxation not requested: no relaxation will be performed.
  Handling of forces: Unphysical translation and rotation will be removed from forces.
  No accuracy limit for integral partition fn. given. Defaulting to  0.1000E-14.
  No threshold value for u(r) in integrations given. Defaulting to  0.1000E-05.
  No accuracy for occupation numbers given. Defaulting to  0.1000E-12.
  No threshold value for occupation numbers given. Defaulting to  0.0000E+00.
  No accuracy for fermi level given. Defaulting to  0.1000E-19.
  Maximum # of iterations to find E_F not set. Defaulting to  200.
  Preferred method for the eigenvalue solver ('KS_method') not specified in 'control.in'.
  Defaulting to serial version, 'lapack_fast'.
  Will not use alltoall communication since running on < 1024 CPUs.
  Threshold for basis singularities not set.
  Default threshold for basis singularities:  0.1000E-04
  partition_type (choice of integration weights) for integrals was not specified.
  | Using a version of the partition function of Stratmann and coworkers ('stratmann_smoother').
  | At each grid point, the set of atoms used to build the partition table is smoothly restricted to
  | only those atoms whose free-atom density would be non-zero at that grid point.
  Partitioning for Hartree potential was not defined. Using partition_type for integrals.
  | Adjusted default value of keyword multip_moments_threshold to:       0.10000000E-11
  | This value may affect high angular momentum components of the Hartree potential in periodic systems.
  No q(lm)/r^(l+1) cutoff set for long-range Hartree potential.
  | Using default value of  0.100000E-09 .
  | Verify using the multipole_threshold keyword.
  Defaulting to new monopole extrapolation.
  Density update method: automatic selection selected.
------------------------------------------------------------


------------------------------------------------------------
          Reading geometry description geometry.in.
------------------------------------------------------------
  Input structure read successfully.
  The structure contains       13 atoms,  and a total of         48.000 electrons.

  Input geometry:
  | No unit cell requested.
  | Atomic structure:
  |       Atom                x [A]            y [A]            z [A]
  |    1: Species C             0.00000000        0.00000000        0.00000000
  |    2: Species H             1.09300000        0.00000000        0.00000000
  |    3: Species N            -0.47961000        0.00000000       -1.41207000
  |    4: Species H            -0.90428000        0.90609000       -1.61326000
  |    5: Species H             0.31534000       -0.16036000       -2.02727000
  |    6: Species C            -0.49584000        1.26211000        0.72868000
  |    7: Species H            -1.58789000        1.28919000        0.74431000
  |    8: Species H            -0.13407000        1.27425000        1.75947000
  |    9: Species H            -0.13407000        2.16087000        0.22380000
  |   10: Species C            -0.39425000       -1.28861000        0.74398000
  |   11: Species O            -0.10189000       -1.56493000        1.88303000
  |   12: Species O            -1.10210000       -2.13717000        0.06896000
  |   13: Species H            -1.49025000       -2.62379000        0.81563000
  |

  | The smallest distance between any two atoms is         0.97209852 AA.
  |
  | The first atom of this pair is atom number                     12 .
  | The second atom of this pair is atom number                    13 .

  Number of empty states per atom not set in control.in - providing a guess from actual geometry.
  | Total number of empty states used during s.c.f. cycle:       29
  If you use a very high smearing, use empty_states (per atom!) in control.in to increase this value.

  Structure-dependent array size parameters: 
  | Maximum number of distinct radial functions  :       21
  | Maximum number of basis functions            :      119
  | Number of Kohn-Sham states (occupied + empty):       53
------------------------------------------------------------

------------------------------------------------------------
          Preparing all fixed parts of the calculation.
------------------------------------------------------------
  Determining machine precision:
    2.225073858507201E-308
  Setting up grids for atomic and cluster calculations.

  Creating wave function, potential, and density for free atoms.

  Species: H

  List of occupied orbitals and eigenvalues:
    n    l              occ      energy [Ha]    energy [eV]
    1    0           1.0000        -0.237589        -6.4651


  Species: C

  List of occupied orbitals and eigenvalues:
    n    l              occ      energy [Ha]    energy [eV]
    1    0           2.0000       -10.038835      -273.1706
    2    0           2.0000        -0.502696       -13.6791
    2    1           2.0000        -0.191971        -5.2238


  Species: N

  List of occupied orbitals and eigenvalues:
    n    l              occ      energy [Ha]    energy [eV]
    1    0           2.0000       -14.128000      -384.4424
    2    0           2.0000        -0.681077       -18.5330
    2    1           3.0000        -0.259788        -7.0692


  Species: O

  List of occupied orbitals and eigenvalues:
    n    l              occ      energy [Ha]    energy [eV]
    1    0           2.0000       -18.898188      -514.2459
    2    0           2.0000        -0.878505       -23.9053
    2    1           4.0000        -0.331779        -9.0282

  Creating fixed part of basis set: Ionic, confined, hydrogenic.
 
  H                    hydrogenic:
 
  List of hydrogenic basis orbitals: 
    n    l      effective z      eigenvalue [eV]  inner max. [A]     outer max. [A]     outer radius [A]   
    2    0         2.100000       -14.9728           0.193243           1.317208           4.583499
    2    1         3.500000       -41.6669           0.602369           0.602369           3.723403
 
 
  C                    hydrogenic:
 
  List of hydrogenic basis orbitals: 
    n    l      effective z      eigenvalue [eV]  inner max. [A]     outer max. [A]     outer radius [A]   
    2    1         1.700000        -9.7616           1.230570           1.230570           4.607917
    3    2         6.000000       -54.4224           0.792453           0.792453           3.883070
    2    0         4.900000       -81.6679           0.082559           0.562749           3.078220
 
 
  N                    hydrogenic:
 
  List of hydrogenic basis orbitals: 
    n    l      effective z      eigenvalue [eV]  inner max. [A]     outer max. [A]     outer radius [A]   
    2    1         1.800000       -10.9749           1.177451           1.177451           4.573712
    3    2         6.800000       -69.9026           0.704619           0.704619           3.538137
    3    0         5.800000       -50.8545           0.067388           1.191934           4.250239
 
 
  O                    hydrogenic:
 
  List of hydrogenic basis orbitals: 
    n    l      effective z      eigenvalue [eV]  inner max. [A]     outer max. [A]     outer radius [A]   
    2    1         1.800000       -10.9749           1.164242           1.164242           4.578029
    3    2         7.600000       -87.3180           0.624125           0.624125           3.251020
    3    0         6.400000       -61.9207           0.061167           1.081902           4.001998
 

  Adding cutoff potential to free-atom effective potential.
  Creating atomic-like basis functions for current effective potential.

  Species H                   :

  List of atomic basis orbitals and eigenvalues:
    n    l      energy [Ha]    energy [eV]    outer radius [A]
    1    0        -0.237589        -6.4651       4.527807


  Species C                   :

  List of atomic basis orbitals and eigenvalues:
    n    l      energy [Ha]    energy [eV]    outer radius [A]
    1    0       -10.038835      -273.1706       1.934409
    2    0        -0.502696       -13.6791       4.496620
    2    1        -0.191971        -5.2238       4.551928


  Species N                   :

  List of atomic basis orbitals and eigenvalues:
    n    l      energy [Ha]    energy [eV]    outer radius [A]
    1    0       -14.128000      -384.4424       1.637919
    2    0        -0.681077       -18.5330       4.463241
    2    1        -0.259788        -7.0692       4.518138


  Species O                   :

  List of atomic basis orbitals and eigenvalues:
    n    l      energy [Ha]    energy [eV]    outer radius [A]
    1    0       -18.898188      -514.2459       1.415765
    2    0        -0.878505       -23.9053       4.413171
    2    1        -0.331779        -9.0282       4.522403

  Assembling full basis from fixed parts.
  | Species H :   atomic orbital   1 s accepted.
  | Species H :    hydro orbital   2 s accepted.
  | Species H :    hydro orbital   2 p accepted.
  | Species C :   atomic orbital   1 s accepted.
  | Species C :    hydro orbital   2 s accepted.
  | Species C :   atomic orbital   2 s accepted.
  | Species C :   atomic orbital   2 p accepted.
  | Species C :    hydro orbital   2 p accepted.
  | Species C :    hydro orbital   3 d accepted.
  | Species N :   atomic orbital   1 s accepted.
  | Species N :    hydro orbital   3 s accepted.
  | Species N :   atomic orbital   2 s accepted.
  | Species N :   atomic orbital   2 p accepted.
  | Species N :    hydro orbital   2 p accepted.
  | Species N :    hydro orbital   3 d accepted.
  | Species O :   atomic orbital   1 s accepted.
  | Species O :    hydro orbital   3 s accepted.
  | Species O :   atomic orbital   2 s accepted.
  | Species O :   atomic orbital   2 p accepted.
  | Species O :    hydro orbital   2 p accepted.
  | Species O :    hydro orbital   3 d accepted.
 
  Basis size parameters after reduction:
  | Total number of radial functions:       21
  | Total number of basis functions :      119
 
  Per-task memory consumption for arrays in subroutine allocate_ext:
  |           5.250512MB.
  Testing on-site integration grid accuracy.
  |  Species  Function  <phi|h_atom|phi> (log., in eV)  <phi|h_atom|phi> (rad., in eV)
           1        1                 -6.4663192853                 -6.4651273558
           1        2                 13.7111246313                 13.7170609718
           1        3                 25.2673269279                 25.2674696378
           2        4               -273.1705927641               -273.1705631568
           2        5                -10.7109323383                -10.7107120029
           2        6                 17.4381822266                 17.4352413244
           2        7                 -5.2255326521                 -5.2270484734
           2        8                  8.6835629259                  8.6603288385
           2        9                 27.4952418996                 27.4953360207
           3       10               -384.4424306495               -384.4423701208
           3       11                 12.5842251816                 12.5842222903
           3       12                -15.7264628251                -15.7264433455
           3       13                 -7.0696854293                 -7.0701769954
           3       14                  8.8090390882                  8.7901077751
           3       15                 35.9586762123                 35.9588528632
           4       16               -514.2458688638               -514.2457643834
           4       17                 15.1795651126                 15.1795290741
           4       18                -21.5359799773                -21.5360846186
           4       19                 -9.0283069236                 -9.0284644067
           4       20                  8.3027758564                  8.2834874195
           4       21                 45.8339351984                 45.8338762259

  Preparing densities etc. for the partition functions (integrals / Hartree potential).

  Preparations completed.
  max(cpu_time)          :      0.157 s.
  Wall clock time (cpu1) :      0.159 s.
------------------------------------------------------------

------------------------------------------------------------
          Begin self-consistency loop: Initialization.

          Date     :  20200805, Time     :  180902.663
------------------------------------------------------------

  Initializing index lists of integration centers etc. from given atomic structure:
  | Number of centers in hartree potential         :        13
  | Number of centers in hartree multipole         :        13
  | Number of centers in electron density summation:        13
  | Number of centers in basis integrals           :        13
  | Number of centers in integrals                 :        13
  | Number of centers in hamiltonian               :        13
  Partitioning the integration grid into batches with parallel hashing+maxmin method.
  | Number of batches:      950
  | Maximal batch size:     139
  | Minimal batch size:      66
  | Average batch size:      73.312
  | Standard deviation of batch sizes:      18.248

  Integration load balanced across     1 MPI tasks.
  Work distribution over tasks is as follows:
  Task     0 has      69646 integration points.
  Initializing partition tables, free-atom densities, potentials, etc. across the integration grid (initialize_grid_storage).
  | initialize_grid_storage: Actual outermost partition radius vs. multipole_radius_free
  | (-- VB: in principle, multipole_radius_free should be larger, hence this output)
  | Species        1: Confinement radius =              4.999999999999999 AA, multipole_radius_free =              5.054417573612229 AA.
  | Species        1: outer_partition_radius set to              5.054417573612229 AA .
  | Species        2: Confinement radius =              4.999999999999999 AA, multipole_radius_free =              5.019602836301480 AA.
  | Species        2: outer_partition_radius set to              5.019602836301480 AA .
  | Species        3: Confinement radius =              4.999999999999999 AA, multipole_radius_free =              5.043624274424571 AA.
  | Species        3: outer_partition_radius set to              5.043624274424571 AA .
  | Species        4: Confinement radius =              4.999999999999999 AA, multipole_radius_free =              5.048384829883283 AA.
  | Species        4: outer_partition_radius set to              5.048384829883283 AA .
  | Original list of interatomic distances with          13 x         13 entries is created.
  | Net number of integration points:    69646
  | of which are non-zero points    :    59638
  Renormalizing the initial density to the exact electron count on the 3D integration grid.
  | Initial density: Formal number of electrons (from input files) :      48.0000000000
  | Integrated number of electrons on 3D grid     :      47.9999531349
  | Charge integration error                      :      -0.0000468651
  | Normalization factor for density and gradient :       1.0000009764
  Obtaining max. number of non-zero basis functions in each batch (get_n_compute_maxes).
  | Maximal number of non-zero basis functions:      119 in task     0
  Selecting the method for density update.
  Loop over occupied states selected for charge density update.
  Allocating        0.050 MB for KS_eigenvector
  Integrating Hamiltonian matrix: batch-based integration.
  Time summed over all CPUs for integration: real work        0.523 s, elapsed        0.523 s
  Integrating overlap matrix.
  Time summed over all CPUs for integration: real work        0.211 s, elapsed        0.211 s

  Updating Kohn-Sham eigenvalues and eigenvectors using ELSI and the ELPA eigensolver.
  Overlap matrix is nonsingular
  | Lowest eigenvalue of overlap  :  0.44E-02
  | Highest eigenvalue of overlap :  0.61E+01
  Finished singularity check of overlap matrix
  | Time :     0.002 s
  Finished Cholesky decomposition
  | Time :     0.000 s
  Finished transformation to standard eigenproblem
  | Time :     0.000 s
  Starting LAPACK eigensolver
  Finished solving standard eigenproblem
  | Time :     0.002 s
  Finished back-transformation of eigenvectors
  | Time :     0.000 s

  Obtaining occupation numbers and chemical potential using ELSI.
  | Chemical potential (Fermi level):   -10.04684528eV
  Writing Kohn-Sham eigenvalues.

  State    Occupation    Eigenvalue [Ha]    Eigenvalue [eV]
      1       2.00000         -19.007489         -517.22008
      2       2.00000         -18.978221         -516.42366
      3       2.00000         -14.245788         -387.64762
      4       2.00000         -10.166893         -276.65524
      5       2.00000         -10.141237         -275.95711
      6       2.00000         -10.131886         -275.70266
      7       2.00000          -1.187611          -32.31655
      8       2.00000          -1.093000          -29.74204
      9       2.00000          -0.992087          -26.99605
     10       2.00000          -0.859748          -23.39493
     11       2.00000          -0.764153          -20.79365
     12       2.00000          -0.676022          -18.39549
     13       2.00000          -0.620810          -16.89310
     14       2.00000          -0.601766          -16.37488
     15       2.00000          -0.593844          -16.15931
     16       2.00000          -0.573011          -15.59242
     17       2.00000          -0.548794          -14.93346
     18       2.00000          -0.521074          -14.17914
     19       2.00000          -0.518552          -14.11053
     20       2.00000          -0.502840          -13.68298
     21       2.00000          -0.473419          -12.88238
     22       2.00000          -0.428068          -11.64832
     23       2.00000          -0.415871          -11.31642
     24       2.00000          -0.380313          -10.34884
     25       0.00000          -0.150913           -4.10654
     26       0.00000          -0.060576           -1.64836
     27       0.00000          -0.028739           -0.78204
     28       0.00000          -0.021240           -0.57797
     29       0.00000          -0.007122           -0.19379
     30       0.00000           0.008205            0.22326
     31       0.00000           0.019847            0.54008
     32       0.00000           0.028000            0.76192
     33       0.00000           0.035787            0.97382
     34       0.00000           0.082356            2.24103
     35       0.00000           0.095048            2.58639
     36       0.00000           0.135021            3.67410
     37       0.00000           0.148157            4.03156
     38       0.00000           0.193253            5.25868
     39       0.00000           0.209743            5.70739
     40       0.00000           0.234032            6.36835
     41       0.00000           0.253272            6.89189
     42       0.00000           0.269630            7.33701
     43       0.00000           0.298427            8.12062
     44       0.00000           0.309343            8.41764
     45       0.00000           0.339431            9.23640
     46       0.00000           0.353368            9.61563
     47       0.00000           0.376809           10.25350
     48       0.00000           0.405209           11.02630
     49       0.00000           0.463645           12.61642
     50       0.00000           0.488731           13.29903
     51       0.00000           0.504465           13.72718
     52       0.00000           0.506576           13.78463
     53       0.00000           0.547422           14.89610

  Highest occupied state (VBM) at    -10.34883820 eV
  | Occupation number:      2.00000000

  Lowest unoccupied state (CBM) at    -4.10653867 eV
  | Occupation number:      0.00000000

  Overall HOMO-LUMO gap:      6.24229953 eV.
  Calculating total energy contributions from superposition of free atom densities.

  Total energy components:
  | Sum of eigenvalues            :        -188.84499215 Ha       -5138.73369242 eV
  | XC energy correction          :         -41.78588721 Ha       -1137.05184363 eV
  | XC potential correction       :          53.71594975 Ha        1461.68536248 eV
  | Free-atom electrostatic energy:        -146.85576430 Ha       -3996.14866843 eV
  | Hartree energy correction     :           0.00000000 Ha           0.00000000 eV
  | vdW energy correction         :           0.00000000 Ha           0.00000000 eV
  | Entropy correction            :           0.00000000 Ha           0.00000000 eV
  | ---------------------------
  | Total energy                  :        -323.77069392 Ha       -8810.24884200 eV
  | Total energy, T -> 0          :        -323.77069392 Ha       -8810.24884200 eV  <-- do not rely on this value for anything but (periodic) metals
  | Electronic free energy        :        -323.77069392 Ha       -8810.24884200 eV

  Derived energy quantities:
  | Kinetic energy                :         320.48079406 Ha        8720.72611202 eV
  | Electrostatic energy          :        -602.46560076 Ha      -16393.92311039 eV
  | Energy correction for multipole
  | error in Hartree potential    :           0.00000000 Ha           0.00000000 eV
  | Sum of eigenvalues per atom                           :        -395.28720711 eV
  | Total energy (T->0) per atom                          :        -677.71144938 eV  <-- do not rely on this value for anything but (periodic) metals
  | Electronic free energy per atom                       :        -677.71144938 eV
  Initialize hartree_potential_storage
  Max. number of atoms included in rho_multipole:           13

  End scf initialization - timings             :  max(cpu_time)    wall_clock(cpu1)
  | Time for scf. initialization               :        1.210 s           1.213 s
  | Boundary condition initialization          :        0.000 s           0.000 s
  | Integration                                :        0.734 s           0.735 s
  | Solution of K.-S. eqns.                    :        0.004 s           0.004 s
  | Grid partitioning                          :        0.116 s           0.117 s
  | Preloading free-atom quantities on grid    :        0.002 s           0.002 s
  | Free-atom superposition energy             :        0.085 s           0.086 s
  | Total energy evaluation                    :        0.000 s           0.000 s

  Partial memory accounting:
  | Current value for overall tracked memory usage on task 0  :           0.165 MB
  | Peak value for overall tracked memory usage on task 0     :           0.678 MB after allocating wave
  | Largest tracked array allocation on task 0 so far         :           0.132 MB  when allocating H_times_psi
  Note:  These values currently only include a subset of arrays which are explicitly tracked.
  The "true" memory usage will be greater.
------------------------------------------------------------

------------------------------------------------------------
          Begin self-consistency iteration #    1

  Date     :  20200805, Time     :  180903.876
------------------------------------------------------------
  Evaluating new KS density.
  Integration grid: deviation in total charge (<rho> - N_e) =  -5.684342E-14
  Pulay mixing of updated and previous charge densities.

  Evaluating partitioned Hartree potential by multipole expansion.
  | Analytical far-field extrapolation by fixed multipoles:
  | Hartree multipole sum: apparent total charge =  -0.153431E-03
  Summing up the Hartree potential.
  Time summed over all CPUs for potential: real work        0.286 s, elapsed        0.286 s
  | RMS charge density error from multipole expansion :   0.586624E-02

  Integrating Hamiltonian matrix: batch-based integration.
  Time summed over all CPUs for integration: real work        0.506 s, elapsed        0.506 s

  Updating Kohn-Sham eigenvalues and eigenvectors using ELSI and the ELPA eigensolver.
  Finished Cholesky decomposition
  | Time :     0.000 s
  Finished transformation to standard eigenproblem
  | Time :     0.000 s
  Starting LAPACK eigensolver
  Finished solving standard eigenproblem
  | Time :     0.002 s
  Finished back-transformation of eigenvectors
  | Time :     0.000 s

  Obtaining occupation numbers and chemical potential using ELSI.
  | Chemical potential (Fermi level):    -4.80128873eV
  Writing Kohn-Sham eigenvalues.

  State    Occupation    Eigenvalue [Ha]    Eigenvalue [eV]
      1       2.00000         -18.899823         -514.29036
      2       2.00000         -18.836892         -512.57791
      3       2.00000         -14.094371         -383.52735
      4       2.00000         -10.111500         -275.14791
      5       2.00000         -10.061794         -273.79534
      6       2.00000         -10.033518         -273.02590
      7       2.00000          -1.134885          -30.88179
      8       2.00000          -1.028157          -27.97757
      9       2.00000          -0.920831          -25.05709
     10       2.00000          -0.793802          -21.60045
     11       2.00000          -0.712659          -19.39244
     12       2.00000          -0.627146          -17.06552
     13       2.00000          -0.558878          -15.20786
     14       2.00000          -0.542180          -14.75346
     15       2.00000          -0.533060          -14.50531
     16       2.00000          -0.512005          -13.93235
     17       2.00000          -0.490140          -13.33740
     18       2.00000          -0.464592          -12.64219
     19       2.00000          -0.453313          -12.33527
     20       2.00000          -0.443217          -12.06056
     21       2.00000          -0.417327          -11.35603
     22       2.00000          -0.364248           -9.91170
     23       2.00000          -0.341617           -9.29588
     24       2.00000          -0.307084           -8.35618
     25       0.00000          -0.111715           -3.03992
     26       0.00000          -0.032578           -0.88648
     27       0.00000          -0.003245           -0.08829
     28       0.00000           0.015494            0.42162
     29       0.00000           0.024834            0.67576
     30       0.00000           0.047463            1.29154
     31       0.00000           0.057707            1.57028
     32       0.00000           0.067109            1.82614
     33       0.00000           0.076329            2.07702
     34       0.00000           0.124287            3.38201
     35       0.00000           0.137391            3.73860
     36       0.00000           0.164183            4.46765
     37       0.00000           0.176456            4.80161
     38       0.00000           0.222065            6.04271
     39       0.00000           0.238171            6.48095
     40       0.00000           0.271986            7.40111
     41       0.00000           0.291285            7.92626
     42       0.00000           0.302086            8.22018
     43       0.00000           0.336521            9.15720
     44       0.00000           0.350889            9.54819
     45       0.00000           0.379620           10.32998
     46       0.00000           0.396075           10.77774
     47       0.00000           0.414834           11.28821
     48       0.00000           0.443554           12.06971
     49       0.00000           0.498815           13.57346
     50       0.00000           0.524941           14.28437
     51       0.00000           0.542079           14.75071
     52       0.00000           0.543457           14.78821
     53       0.00000           0.584669           15.90965

  Highest occupied state (VBM) at     -8.35618031 eV
  | Occupation number:      2.00000000

  Lowest unoccupied state (CBM) at    -3.03992038 eV
  | Occupation number:      0.00000000

  Overall HOMO-LUMO gap:      5.31625993 eV.

  Total energy components:
  | Sum of eigenvalues            :        -185.36607850 Ha       -5044.06763535 eV
  | XC energy correction          :         -42.11527366 Ha       -1146.01490492 eV
  | XC potential correction       :          54.14441399 Ha        1473.34446760 eV
  | Free-atom electrostatic energy:        -146.85576430 Ha       -3996.14866843 eV
  | Hartree energy correction     :          -3.39742140 Ha         -92.44854002 eV
  | vdW energy correction         :           0.00000000 Ha           0.00000000 eV
  | Entropy correction            :           0.00000000 Ha           0.00000000 eV
  | ---------------------------
  | Total energy                  :        -323.59012387 Ha       -8805.33528112 eV
  | Total energy, T -> 0          :        -323.59012387 Ha       -8805.33528112 eV  <-- do not rely on this value for anything but (periodic) metals
  | Electronic free energy        :        -323.59012387 Ha       -8805.33528112 eV

  Derived energy quantities:
  | Kinetic energy                :         322.27350692 Ha        8769.50831095 eV
  | Electrostatic energy          :        -603.74835713 Ha      -16428.82868716 eV
  | Energy correction for multipole
  | error in Hartree potential    :           0.01226483 Ha           0.33374307 eV
  | Sum of eigenvalues per atom                           :        -388.00520272 eV
  | Total energy (T->0) per atom                          :        -677.33348316 eV  <-- do not rely on this value for anything but (periodic) metals
  | Electronic free energy per atom                       :        -677.33348316 eV

  Self-consistency convergence accuracy:
  | Change of charge density      :  0.5816E+00
  | Change of sum of eigenvalues  :  0.9467E+02 eV
  | Change of total energy        :  0.4914E+01 eV

  End self-consistency iteration #     1       :  max(cpu_time)    wall_clock(cpu1)
  | Time for this iteration                    :        1.204 s           1.205 s
  | Charge density update                      :        0.393 s           0.394 s
  | Density mixing                             :        0.005 s           0.005 s
  | Hartree multipole update                   :        0.009 s           0.009 s
  | Hartree multipole summation                :        0.287 s           0.287 s
  | Integration                                :        0.506 s           0.507 s
  | Solution of K.-S. eqns.                    :        0.002 s           0.002 s
  | Total energy evaluation                    :        0.000 s           0.001 s

  Partial memory accounting:
  | Current value for overall tracked memory usage on task 0  :           0.165 MB
  | Peak value for overall tracked memory usage on task 0     :           0.695 MB after allocating gradient_basis_wave
  | Largest tracked array allocation on task 0 so far         :           0.397 MB  when allocating gradient_basis_wave
  Note:  These values currently only include a subset of arrays which are explicitly tracked.
  The "true" memory usage will be greater.
------------------------------------------------------------

------------------------------------------------------------
          Begin self-consistency iteration #    2

  Date     :  20200805, Time     :  180905.081
------------------------------------------------------------
  Evaluating new KS density.
  Integration grid: deviation in total charge (<rho> - N_e) =   0.000000E+00
  Pulay mixing of updated and previous charge densities.

  Evaluating partitioned Hartree potential by multipole expansion.
  | Analytical far-field extrapolation by fixed multipoles:
  | Hartree multipole sum: apparent total charge =  -0.291391E-03
  Summing up the Hartree potential.
  Time summed over all CPUs for potential: real work        0.282 s, elapsed        0.282 s
  | RMS charge density error from multipole expansion :   0.140482E-01

  Integrating Hamiltonian matrix: batch-based integration.
  Time summed over all CPUs for integration: real work        0.498 s, elapsed        0.498 s

  Updating Kohn-Sham eigenvalues and eigenvectors using ELSI and the ELPA eigensolver.
  Finished Cholesky decomposition
  | Time :     0.000 s
  Finished transformation to standard eigenproblem
  | Time :     0.000 s
  Starting LAPACK eigensolver
  Finished solving standard eigenproblem
  | Time :     0.002 s
  Finished back-transformation of eigenvectors
  | Time :     0.000 s

  Obtaining occupation numbers and chemical potential using ELSI.
  | Chemical potential (Fermi level):    -3.49439014eV
  Highest occupied state (VBM) at     -6.31036372 eV
  | Occupation number:      2.00000000

  Lowest unoccupied state (CBM) at    -1.68715778 eV
  | Occupation number:      0.00000000

  Overall HOMO-LUMO gap:      4.62320594 eV.

  Checking to see if s.c.f. parameters should be adjusted.

  Total energy components:
  | Sum of eigenvalues            :        -181.67274180 Ha       -4943.56683040 eV
  | XC energy correction          :         -42.48025332 Ha       -1155.94650673 eV
  | XC potential correction       :          54.61764244 Ha        1486.22166898 eV
  | Free-atom electrostatic energy:        -146.85576430 Ha       -3996.14866843 eV
  | Hartree energy correction     :          -7.12073807 Ha        -193.76514143 eV
  | vdW energy correction         :           0.00000000 Ha           0.00000000 eV
  | Entropy correction            :           0.00000000 Ha           0.00000000 eV
  | ---------------------------
  | Total energy                  :        -323.51185505 Ha       -8803.20547802 eV
  | Total energy, T -> 0          :        -323.51185505 Ha       -8803.20547802 eV  <-- do not rely on this value for anything but (periodic) metals
  | Electronic free energy        :        -323.51185505 Ha       -8803.20547802 eV

  Derived energy quantities:
  | Kinetic energy                :         323.61142188 Ha        8805.91482932 eV
  | Electrostatic energy          :        -604.64302361 Ha      -16453.17380061 eV
  | Energy correction for multipole
  | error in Hartree potential    :           0.02732594 Ha           0.74357673 eV
  | Sum of eigenvalues per atom                           :        -380.27437157 eV
  | Total energy (T->0) per atom                          :        -677.16965216 eV  <-- do not rely on this value for anything but (periodic) metals
  | Electronic free energy per atom                       :        -677.16965216 eV

  Self-consistency convergence accuracy:
  | Change of charge density      :  0.3628E+00
  | Change of sum of eigenvalues  :  0.1005E+03 eV
  | Change of total energy        :  0.2130E+01 eV

  End self-consistency iteration #     2       :  max(cpu_time)    wall_clock(cpu1)
  | Time for this iteration                    :        1.182 s           1.183 s
  | Charge density update                      :        0.385 s           0.385 s
  | Density mixing                             :        0.007 s           0.007 s
  | Hartree multipole update                   :        0.009 s           0.009 s
  | Hartree multipole summation                :        0.282 s           0.282 s
  | Integration                                :        0.498 s           0.498 s
  | Solution of K.-S. eqns.                    :        0.002 s           0.002 s
  | Total energy evaluation                    :        0.000 s           0.000 s

  Partial memory accounting:
  | Current value for overall tracked memory usage on task 0  :           0.166 MB
  | Peak value for overall tracked memory usage on task 0     :           0.695 MB after allocating gradient_basis_wave
  | Largest tracked array allocation on task 0 so far         :           0.397 MB  when allocating gradient_basis_wave
  Note:  These values currently only include a subset of arrays which are explicitly tracked.
  The "true" memory usage will be greater.
------------------------------------------------------------

------------------------------------------------------------
          Begin self-consistency iteration #    3

  Date     :  20200805, Time     :  180906.265
------------------------------------------------------------
  Evaluating new KS density.
  Integration grid: deviation in total charge (<rho> - N_e) =   2.842171E-14
  Pulay mixing of updated and previous charge densities.

  Evaluating partitioned Hartree potential by multipole expansion.
  | Analytical far-field extrapolation by fixed multipoles:
  | Hartree multipole sum: apparent total charge =  -0.391381E-03
  Summing up the Hartree potential.
  Time summed over all CPUs for potential: real work        0.292 s, elapsed        0.292 s
  | RMS charge density error from multipole expansion :   0.224739E-01

  Integrating Hamiltonian matrix: batch-based integration.
  Time summed over all CPUs for integration: real work        0.513 s, elapsed        0.513 s

  Updating Kohn-Sham eigenvalues and eigenvectors using ELSI and the ELPA eigensolver.
  Finished Cholesky decomposition
  | Time :     0.000 s
  Finished transformation to standard eigenproblem
  | Time :     0.000 s
  Starting LAPACK eigensolver
  Finished solving standard eigenproblem
  | Time :     0.002 s
  Finished back-transformation of eigenvectors
  | Time :     0.000 s

  Obtaining occupation numbers and chemical potential using ELSI.
  | Chemical potential (Fermi level):    -2.78959839eV
  Highest occupied state (VBM) at     -5.64737770 eV
  | Occupation number:      2.00000000

  Lowest unoccupied state (CBM) at    -0.95080633 eV
  | Occupation number:      0.00000000

  Overall HOMO-LUMO gap:      4.69657136 eV.

  Total energy components:
  | Sum of eigenvalues            :        -180.37684166 Ha       -4908.30359324 eV
  | XC energy correction          :         -42.62933320 Ha       -1160.00317681 eV
  | XC potential correction       :          54.80755166 Ha        1491.38936161 eV
  | Free-atom electrostatic energy:        -146.85576430 Ha       -3996.14866843 eV
  | Hartree energy correction     :          -8.44503889 Ha        -229.80120026 eV
  | vdW energy correction         :           0.00000000 Ha           0.00000000 eV
  | Entropy correction            :           0.00000000 Ha           0.00000000 eV
  | ---------------------------
  | Total energy                  :        -323.49942639 Ha       -8802.86727712 eV
  | Total energy, T -> 0          :        -323.49942639 Ha       -8802.86727712 eV  <-- do not rely on this value for anything but (periodic) metals
  | Electronic free energy        :        -323.49942639 Ha       -8802.86727712 eV

  Derived energy quantities:
  | Kinetic energy                :         323.11479330 Ha        8792.40087817 eV
  | Electrostatic energy          :        -603.98488649 Ha      -16435.26497848 eV
  | Energy correction for multipole
  | error in Hartree potential    :           0.03918219 Ha           1.06620166 eV
  | Sum of eigenvalues per atom                           :        -377.56181486 eV
  | Total energy (T->0) per atom                          :        -677.14363670 eV  <-- do not rely on this value for anything but (periodic) metals
  | Electronic free energy per atom                       :        -677.14363670 eV

  Self-consistency convergence accuracy:
  | Change of charge density      :  0.2013E+00
  | Change of sum of eigenvalues  :  0.3526E+02 eV
  | Change of total energy        :  0.3382E+00 eV

  End self-consistency iteration #     3       :  max(cpu_time)    wall_clock(cpu1)
  | Time for this iteration                    :        1.226 s           1.226 s
  | Charge density update                      :        0.400 s           0.400 s
  | Density mixing                             :        0.009 s           0.009 s
  | Hartree multipole update                   :        0.009 s           0.010 s
  | Hartree multipole summation                :        0.292 s           0.292 s
  | Integration                                :        0.513 s           0.513 s
  | Solution of K.-S. eqns.                    :        0.002 s           0.002 s
  | Total energy evaluation                    :        0.000 s           0.000 s

  Partial memory accounting:
  | Current value for overall tracked memory usage on task 0  :           0.166 MB
  | Peak value for overall tracked memory usage on task 0     :           0.695 MB after allocating gradient_basis_wave
  | Largest tracked array allocation on task 0 so far         :           0.397 MB  when allocating gradient_basis_wave
  Note:  These values currently only include a subset of arrays which are explicitly tracked.
  The "true" memory usage will be greater.
------------------------------------------------------------

------------------------------------------------------------
          Begin self-consistency iteration #    4

  Date     :  20200805, Time     :  180907.492
------------------------------------------------------------
  Evaluating new KS density.
  Integration grid: deviation in total charge (<rho> - N_e) =  -3.552714E-14
  Pulay mixing of updated and previous charge densities.

  Evaluating partitioned Hartree potential by multipole expansion.
  | Analytical far-field extrapolation by fixed multipoles:
  | Hartree multipole sum: apparent total charge =  -0.421370E-03
  Summing up the Hartree potential.
  Time summed over all CPUs for potential: real work        0.284 s, elapsed        0.284 s
  | RMS charge density error from multipole expansion :   0.255592E-01

  Integrating Hamiltonian matrix: batch-based integration.
  Time summed over all CPUs for integration: real work        0.502 s, elapsed        0.502 s

  Updating Kohn-Sham eigenvalues and eigenvectors using ELSI and the ELPA eigensolver.
  Finished Cholesky decomposition
  | Time :     0.000 s
  Finished transformation to standard eigenproblem
  | Time :     0.000 s
  Starting LAPACK eigensolver
  Finished solving standard eigenproblem
  | Time :     0.002 s
  Finished back-transformation of eigenvectors
  | Time :     0.000 s

  Obtaining occupation numbers and chemical potential using ELSI.
  | Chemical potential (Fermi level):    -2.70372441eV
  Highest occupied state (VBM) at     -5.45802667 eV
  | Occupation number:      2.00000000

  Lowest unoccupied state (CBM) at    -0.87771401 eV
  | Occupation number:      0.00000000

  Overall HOMO-LUMO gap:      4.58031266 eV.

  Total energy components:
  | Sum of eigenvalues            :        -180.21919668 Ha       -4904.01385515 eV
  | XC energy correction          :         -42.66493088 Ha       -1160.97183893 eV
  | XC potential correction       :          54.85251644 Ha        1492.61291555 eV
  | Free-atom electrostatic energy:        -146.85576430 Ha       -3996.14866843 eV
  | Hartree energy correction     :          -8.61132431 Ha        -234.32605677 eV
  | vdW energy correction         :           0.00000000 Ha           0.00000000 eV
  | Entropy correction            :           0.00000000 Ha           0.00000000 eV
  | ---------------------------
  | Total energy                  :        -323.49869973 Ha       -8802.84750373 eV
  | Total energy, T -> 0          :        -323.49869973 Ha       -8802.84750373 eV  <-- do not rely on this value for anything but (periodic) metals
  | Electronic free energy        :        -323.49869973 Ha       -8802.84750373 eV

  Derived energy quantities:
  | Kinetic energy                :         322.78434016 Ha        8783.40879072 eV
  | Electrostatic energy          :        -603.61810901 Ha      -16425.28445553 eV
  | Energy correction for multipole
  | error in Hartree potential    :           0.04313064 Ha           1.17364450 eV
  | Sum of eigenvalues per atom                           :        -377.23183501 eV
  | Total energy (T->0) per atom                          :        -677.14211567 eV  <-- do not rely on this value for anything but (periodic) metals
  | Electronic free energy per atom                       :        -677.14211567 eV

  Self-consistency convergence accuracy:
  | Change of charge density      :  0.5703E-01
  | Change of sum of eigenvalues  :  0.4290E+01 eV
  | Change of total energy        :  0.1977E-01 eV

  End self-consistency iteration #     4       :  max(cpu_time)    wall_clock(cpu1)
  | Time for this iteration                    :        1.191 s           1.192 s
  | Charge density update                      :        0.384 s           0.385 s
  | Density mixing                             :        0.010 s           0.009 s
  | Hartree multipole update                   :        0.009 s           0.008 s
  | Hartree multipole summation                :        0.284 s           0.285 s
  | Integration                                :        0.502 s           0.502 s
  | Solution of K.-S. eqns.                    :        0.002 s           0.002 s
  | Total energy evaluation                    :        0.000 s           0.000 s

  Partial memory accounting:
  | Current value for overall tracked memory usage on task 0  :           0.166 MB
  | Peak value for overall tracked memory usage on task 0     :           0.696 MB after allocating gradient_basis_wave
  | Largest tracked array allocation on task 0 so far         :           0.397 MB  when allocating gradient_basis_wave
  Note:  These values currently only include a subset of arrays which are explicitly tracked.
  The "true" memory usage will be greater.
------------------------------------------------------------

------------------------------------------------------------
          Begin self-consistency iteration #    5

  Date     :  20200805, Time     :  180908.685
------------------------------------------------------------
  Evaluating new KS density.
  Integration grid: deviation in total charge (<rho> - N_e) =  -2.842171E-14
  Pulay mixing of updated and previous charge densities.

  Evaluating partitioned Hartree potential by multipole expansion.
  | Analytical far-field extrapolation by fixed multipoles:
  | Hartree multipole sum: apparent total charge =  -0.415605E-03
  Summing up the Hartree potential.
  Time summed over all CPUs for potential: real work        0.283 s, elapsed        0.283 s
  | RMS charge density error from multipole expansion :   0.253055E-01

  Integrating Hamiltonian matrix: batch-based integration.
  Time summed over all CPUs for integration: real work        0.489 s, elapsed        0.489 s

  Updating Kohn-Sham eigenvalues and eigenvectors using ELSI and the ELPA eigensolver.
  Finished Cholesky decomposition
  | Time :     0.000 s
  Finished transformation to standard eigenproblem
  | Time :     0.000 s
  Starting LAPACK eigensolver
  Finished solving standard eigenproblem
  | Time :     0.002 s
  Finished back-transformation of eigenvectors
  | Time :     0.000 s

  Obtaining occupation numbers and chemical potential using ELSI.
  | Chemical potential (Fermi level):    -2.76966347eV
  Highest occupied state (VBM) at     -5.54388197 eV
  | Occupation number:      2.00000000

  Lowest unoccupied state (CBM) at    -0.95994474 eV
  | Occupation number:      0.00000000

  Overall HOMO-LUMO gap:      4.58393723 eV.

  Total energy components:
  | Sum of eigenvalues            :        -180.40526260 Ha       -4909.07696631 eV
  | XC energy correction          :         -42.64247724 Ha       -1160.36084420 eV
  | XC potential correction       :          54.82339415 Ha        1491.82045768 eV
  | Free-atom electrostatic energy:        -146.85576430 Ha       -3996.14866843 eV
  | Hartree energy correction     :          -8.41829402 Ha        -229.07343545 eV
  | vdW energy correction         :           0.00000000 Ha           0.00000000 eV
  | Entropy correction            :           0.00000000 Ha           0.00000000 eV
  | ---------------------------
  | Total energy                  :        -323.49840401 Ha       -8802.83945672 eV
  | Total energy, T -> 0          :        -323.49840401 Ha       -8802.83945672 eV  <-- do not rely on this value for anything but (periodic) metals
  | Electronic free energy        :        -323.49840401 Ha       -8802.83945672 eV

  Derived energy quantities:
  | Kinetic energy                :         322.68579789 Ha        8780.72731906 eV
  | Electrostatic energy          :        -603.54172466 Ha      -16423.20593159 eV
  | Energy correction for multipole
  | error in Hartree potential    :           0.04251577 Ha           1.15691296 eV
  | Sum of eigenvalues per atom                           :        -377.62130510 eV
  | Total energy (T->0) per atom                          :        -677.14149667 eV  <-- do not rely on this value for anything but (periodic) metals
  | Electronic free energy per atom                       :        -677.14149667 eV

  Self-consistency convergence accuracy:
  | Change of charge density      :  0.2014E-01
  | Change of sum of eigenvalues  : -0.5063E+01 eV
  | Change of total energy        :  0.8047E-02 eV

  End self-consistency iteration #     5       :  max(cpu_time)    wall_clock(cpu1)
  | Time for this iteration                    :        1.188 s           1.189 s
  | Charge density update                      :        0.394 s           0.394 s
  | Density mixing                             :        0.011 s           0.011 s
  | Hartree multipole update                   :        0.009 s           0.009 s
  | Hartree multipole summation                :        0.283 s           0.283 s
  | Integration                                :        0.489 s           0.490 s
  | Solution of K.-S. eqns.                    :        0.002 s           0.002 s
  | Total energy evaluation                    :        0.000 s           0.000 s

  Partial memory accounting:
  | Current value for overall tracked memory usage on task 0  :           0.166 MB
  | Peak value for overall tracked memory usage on task 0     :           0.696 MB after allocating gradient_basis_wave
  | Largest tracked array allocation on task 0 so far         :           0.397 MB  when allocating gradient_basis_wave
  Note:  These values currently only include a subset of arrays which are explicitly tracked.
  The "true" memory usage will be greater.
------------------------------------------------------------

------------------------------------------------------------
          Begin self-consistency iteration #    6

  Date     :  20200805, Time     :  180909.875
------------------------------------------------------------
  Evaluating new KS density.
  Integration grid: deviation in total charge (<rho> - N_e) =   0.000000E+00
  Pulay mixing of updated and previous charge densities.

  Evaluating partitioned Hartree potential by multipole expansion.
  | Analytical far-field extrapolation by fixed multipoles:
  | Hartree multipole sum: apparent total charge =  -0.418040E-03
  Summing up the Hartree potential.
  Time summed over all CPUs for potential: real work        0.292 s, elapsed        0.292 s
  | RMS charge density error from multipole expansion :   0.256422E-01

  Integrating Hamiltonian matrix: batch-based integration.
  Time summed over all CPUs for integration: real work        0.518 s, elapsed        0.518 s

  Updating Kohn-Sham eigenvalues and eigenvectors using ELSI and the ELPA eigensolver.
  Finished Cholesky decomposition
  | Time :     0.000 s
  Finished transformation to standard eigenproblem
  | Time :     0.000 s
  Starting LAPACK eigensolver
  Finished solving standard eigenproblem
  | Time :     0.002 s
  Finished back-transformation of eigenvectors
  | Time :     0.000 s

  Obtaining occupation numbers and chemical potential using ELSI.
  | Chemical potential (Fermi level):    -2.78125745eV
  Highest occupied state (VBM) at     -5.52960799 eV
  | Occupation number:      2.00000000

  Lowest unoccupied state (CBM) at    -0.98011342 eV
  | Occupation number:      0.00000000

  Overall HOMO-LUMO gap:      4.54949457 eV.

  Total energy components:
  | Sum of eigenvalues            :        -180.43056940 Ha       -4909.76559955 eV
  | XC energy correction          :         -42.63792485 Ha       -1160.23696733 eV
  | XC potential correction       :          54.81748174 Ha        1491.65957288 eV
  | Free-atom electrostatic energy:        -146.85576430 Ha       -3996.14866843 eV
  | Hartree energy correction     :          -8.39157143 Ha        -228.34627661 eV
  | vdW energy correction         :           0.00000000 Ha           0.00000000 eV
  | Entropy correction            :           0.00000000 Ha           0.00000000 eV
  | ---------------------------
  | Total energy                  :        -323.49834824 Ha       -8802.83793903 eV
  | Total energy, T -> 0          :        -323.49834824 Ha       -8802.83793903 eV  <-- do not rely on this value for anything but (periodic) metals
  | Electronic free energy        :        -323.49834824 Ha       -8802.83793903 eV

  Derived energy quantities:
  | Kinetic energy                :         322.60129365 Ha        8778.42784161 eV
  | Electrostatic energy          :        -603.46171704 Ha      -16421.02881332 eV
  | Energy correction for multipole
  | error in Hartree potential    :           0.04276009 Ha           1.16356120 eV
  | Sum of eigenvalues per atom                           :        -377.67427689 eV
  | Total energy (T->0) per atom                          :        -677.14137993 eV  <-- do not rely on this value for anything but (periodic) metals
  | Electronic free energy per atom                       :        -677.14137993 eV

  Self-consistency convergence accuracy:
  | Change of charge density      :  0.1005E-01
  | Change of sum of eigenvalues  : -0.6886E+00 eV
  | Change of total energy        :  0.1518E-02 eV

  End self-consistency iteration #     6       :  max(cpu_time)    wall_clock(cpu1)
  | Time for this iteration                    :        1.230 s           1.238 s
  | Charge density update                      :        0.392 s           0.399 s
  | Density mixing                             :        0.017 s           0.017 s
  | Hartree multipole update                   :        0.009 s           0.009 s
  | Hartree multipole summation                :        0.292 s           0.292 s
  | Integration                                :        0.518 s           0.518 s
  | Solution of K.-S. eqns.                    :        0.002 s           0.003 s
  | Total energy evaluation                    :        0.000 s           0.000 s

  Partial memory accounting:
  | Current value for overall tracked memory usage on task 0  :           0.166 MB
  | Peak value for overall tracked memory usage on task 0     :           0.696 MB after allocating gradient_basis_wave
  | Largest tracked array allocation on task 0 so far         :           0.397 MB  when allocating gradient_basis_wave
  Note:  These values currently only include a subset of arrays which are explicitly tracked.
  The "true" memory usage will be greater.
------------------------------------------------------------

------------------------------------------------------------
          Begin self-consistency iteration #    7

  Date     :  20200805, Time     :  180911.114
------------------------------------------------------------
  Evaluating new KS density.
  Integration grid: deviation in total charge (<rho> - N_e) =   7.105427E-14
  Pulay mixing of updated and previous charge densities.

  Evaluating partitioned Hartree potential by multipole expansion.
  | Analytical far-field extrapolation by fixed multipoles:
  | Hartree multipole sum: apparent total charge =  -0.419608E-03
  Summing up the Hartree potential.
  Time summed over all CPUs for potential: real work        0.283 s, elapsed        0.283 s
  | RMS charge density error from multipole expansion :   0.258014E-01

  Integrating Hamiltonian matrix: batch-based integration.
  Time summed over all CPUs for integration: real work        0.497 s, elapsed        0.497 s

  Updating Kohn-Sham eigenvalues and eigenvectors using ELSI and the ELPA eigensolver.
  Finished Cholesky decomposition
  | Time :     0.000 s
  Finished transformation to standard eigenproblem
  | Time :     0.000 s
  Starting LAPACK eigensolver
  Finished solving standard eigenproblem
  | Time :     0.002 s
  Finished back-transformation of eigenvectors
  | Time :     0.000 s

[...]
  |   Hirshfeld dipole moment :      0.06728435
  |   Hirshfeld second moments:      0.00832568      -0.01541258      -0.01417842
  |                                 -0.01541258      -0.01576771       0.00541941
  |                                 -0.01417842       0.00541941      -0.02575019
  ----------------------------------------------------------------------
  | Atom    12: O
  |   Hirshfeld charge        :     -0.14682905
  |   Free atom volume        :     23.61338643
  |   Hirshfeld volume        :     21.09135328
  |   Hirshfeld dipole vector :      0.01264560       0.00076204       0.04877066
  |   Hirshfeld dipole moment :      0.05038918
  |   Hirshfeld second moments:      0.06961373       0.02190359      -0.02738599
  |                                  0.02190359       0.07117714      -0.00719895
  |                                 -0.02738599      -0.00719895       0.02034424
  ----------------------------------------------------------------------
  | Atom    13: H
  |   Hirshfeld charge        :      0.16991658
  |   Free atom volume        :      9.95071624
  |   Hirshfeld volume        :      6.42457981
  |   Hirshfeld dipole vector :     -0.06903152      -0.06703635       0.06468904
  |   Hirshfeld dipole moment :      0.11594781
  |   Hirshfeld second moments:      0.11592362       0.00166842      -0.01387135
  |                                  0.00166842       0.12214169       0.00105719
  |                                 -0.01387135       0.00105719       0.08221503
  ----------------------------------------------------------------------


  Total energy components:
  | Sum of eigenvalues            :        -180.42037927 Ha       -4909.48831187 eV
  | XC energy correction          :         -42.63570634 Ha       -1160.17659859 eV
  | XC potential correction       :          54.81468815 Ha        1491.58355546 eV
  | Free-atom electrostatic energy:        -146.85576430 Ha       -3996.14866843 eV
  | Hartree energy correction     :          -8.40116561 Ha        -228.60734776 eV
  | vdW energy correction         :          -0.00324068 Ha          -0.08818353 eV
  | Entropy correction            :           0.00000000 Ha           0.00000000 eV
  | ---------------------------
  | Total energy                  :        -323.50156806 Ha       -8802.92555472 eV
  | Total energy, T -> 0          :        -323.50156806 Ha       -8802.92555472 eV  <-- do not rely on this value for anything but (periodic) metals
  | Electronic free energy        :        -323.50156806 Ha       -8802.92555472 eV

  Derived energy quantities:
  | Kinetic energy                :         322.56207804 Ha        8777.36073070 eV
  | Electrostatic energy          :        -603.42469907 Ha      -16420.02150330 eV
  | Energy correction for multipole
  | error in Hartree potential    :           0.04287830 Ha           1.16677796 eV
  | Sum of eigenvalues per atom                           :        -377.65294707 eV
  | Total energy (T->0) per atom                          :        -677.14811959 eV  <-- do not rely on this value for anything but (periodic) metals
  | Electronic free energy per atom                       :        -677.14811959 eV

  atomic forces [eV/Ang]:
  -----------------------
  atom #    1
   Hellmann-Feynman              :  0.918340E+00 -0.888633E-01  0.413448E+00
   Ionic forces                  :  0.000000E+00  0.000000E+00  0.000000E+00
   Multipole                     :  0.148872E+00  0.567394E+00 -0.288394E+00
   Pulay + GGA                   : -0.131017E+01 -0.321513E+00 -0.937285E+00
   Van der Waals                 :  0.203915E-02  0.111263E-02 -0.157791E-02
   ----------------------------------------------------------------
   Total forces(   1)            : -0.240922E+00  0.158131E+00 -0.813809E+00
  atom #    2
   Hellmann-Feynman              :  0.318186E+00  0.597708E-02  0.186301E+00
   Ionic forces                  :  0.000000E+00  0.000000E+00  0.000000E+00
   Multipole                     :  0.175322E+00  0.416546E-01 -0.289127E-02
   Pulay + GGA                   : -0.123899E+00  0.127407E-01  0.322819E-01
   Van der Waals                 :  0.672828E-02 -0.477531E-02 -0.459019E-02
   ----------------------------------------------------------------
   Total forces(   2)            :  0.376337E+00  0.555971E-01  0.211101E+00
  atom #    3
   Hellmann-Feynman              : -0.782546E+01 -0.840346E+01 -0.337004E+00
   Ionic forces                  :  0.000000E+00  0.000000E+00  0.000000E+00
   Multipole                     : -0.153704E+00  0.110121E+00 -0.860728E+00
   Pulay + GGA                   :  0.806471E+01  0.816804E+01  0.191465E+01
   Van der Waals                 :  0.259581E-02 -0.781740E-02 -0.633747E-02
   ----------------------------------------------------------------
   Total forces(   3)            :  0.881444E-01 -0.133113E+00  0.710578E+00
  atom #    4
   Hellmann-Feynman              :  0.193811E+00  0.987617E-01 -0.174083E+00
   Ionic forces                  :  0.000000E+00  0.000000E+00  0.000000E+00
   Multipole                     : -0.318049E-01  0.688986E-01 -0.870994E-01
   Pulay + GGA                   :  0.925122E-02 -0.228083E+00  0.430196E-01
   Van der Waals                 : -0.120469E-02 -0.734885E-02 -0.573560E-02
   ----------------------------------------------------------------
   Total forces(   4)            :  0.170053E+00 -0.677719E-01 -0.223898E+00
  atom #    5
   Hellmann-Feynman              :  0.422100E-01  0.179760E+00 -0.246817E+00
   Ionic forces                  :  0.000000E+00  0.000000E+00  0.000000E+00
   Multipole                     :  0.402044E-01  0.494317E-02 -0.117574E+00
   Pulay + GGA                   : -0.200210E+00 -0.431020E-01  0.124780E+00
   Van der Waals                 : -0.360507E-02  0.109291E-02  0.478858E-02
   ----------------------------------------------------------------
   Total forces(   5)            : -0.121400E+00  0.142694E+00 -0.234822E+00
  atom #    6
   Hellmann-Feynman              : -0.570528E-01 -0.558394E+00  0.334510E+00
   Ionic forces                  :  0.000000E+00  0.000000E+00  0.000000E+00
   Multipole                     : -0.325621E-01  0.619774E+00  0.271242E+00
   Pulay + GGA                   :  0.272525E+00 -0.594625E+00 -0.380965E+00
   Van der Waals                 : -0.219389E-02  0.478053E-02 -0.319453E-02
   ----------------------------------------------------------------
   Total forces(   6)            :  0.180716E+00 -0.528465E+00  0.221593E+00
  atom #    7
   Hellmann-Feynman              : -0.242653E+00 -0.474662E-01 -0.348706E-01
   Ionic forces                  :  0.000000E+00  0.000000E+00  0.000000E+00
   Multipole                     : -0.120774E+00  0.478571E-01  0.271901E-01
   Pulay + GGA                   :  0.110662E+00 -0.450842E-02  0.738085E-02
   Van der Waals                 : -0.343434E-02  0.331681E-02  0.968917E-02
   ----------------------------------------------------------------
   Total forces(   7)            : -0.256199E+00 -0.800706E-03  0.938953E-02
  atom #    8
   Hellmann-Feynman              :  0.185398E-01 -0.699254E-02  0.181208E+00
   Ionic forces                  :  0.000000E+00  0.000000E+00  0.000000E+00
   Multipole                     :  0.189039E-01  0.644397E-01  0.117138E+00
   Pulay + GGA                   : -0.470380E-01 -0.484793E-01 -0.114616E+00
   Van der Waals                 : -0.287854E-02  0.114434E-01  0.730532E-03
   ----------------------------------------------------------------
   Total forces(   8)            : -0.124728E-01  0.204113E-01  0.184459E+00
  atom #    9
   Hellmann-Feynman              :  0.138972E+00  0.395401E-01 -0.188551E+00
   Ionic forces                  :  0.000000E+00  0.000000E+00  0.000000E+00
   Multipole                     :  0.160841E-01  0.128979E+00 -0.888851E-02
   Pulay + GGA                   : -0.290038E-01 -0.830428E-01  0.622217E-01
   Van der Waals                 : -0.361766E-03  0.586396E-02  0.705400E-02
   ----------------------------------------------------------------
   Total forces(   9)            :  0.125690E+00  0.913405E-01 -0.128163E+00
  atom #   10
   Hellmann-Feynman              :  0.247071E+01  0.497847E+01  0.147300E+00
   Ionic forces                  :  0.000000E+00  0.000000E+00  0.000000E+00
   Multipole                     : -0.360377E-01 -0.237931E+00  0.269730E+00
   Pulay + GGA                   : -0.129931E+01 -0.299788E+01 -0.228351E+00
   Van der Waals                 :  0.172393E-02 -0.112636E-01 -0.127925E-02
   ----------------------------------------------------------------
   Total forces(  10)            :  0.113709E+01  0.173139E+01  0.187400E+00
  atom #   11
   Hellmann-Feynman              :  0.418248E+01 -0.236148E+01  0.143834E+02
   Ionic forces                  :  0.000000E+00  0.000000E+00  0.000000E+00
   Multipole                     :  0.751327E-01 -0.542326E+00  0.796078E+00
   Pulay + GGA                   : -0.350267E+01  0.353838E+01 -0.133485E+02
   Van der Waals                 : -0.292019E-02 -0.120224E-01  0.249452E-02
   ----------------------------------------------------------------
   Total forces(  11)            :  0.752020E+00  0.622551E+00  0.183349E+01
  atom #   12
   Hellmann-Feynman              : -0.377732E+01 -0.119251E+01 -0.158622E+02
   Ionic forces                  :  0.000000E+00  0.000000E+00  0.000000E+00
   Multipole                     : -0.711273E+00 -0.103792E+01 -0.808549E+00
   Pulay + GGA                   :  0.242830E+01  0.120876E+01  0.147477E+02
   Van der Waals                 :  0.207642E-02  0.103874E-01  0.556877E-03
   ----------------------------------------------------------------
   Total forces(  12)            : -0.205822E+01 -0.101128E+01 -0.192251E+01
  atom #   13
   Hellmann-Feynman              : -0.273436E+00 -0.125541E+01  0.135455E+00
   Ionic forces                  :  0.000000E+00  0.000000E+00  0.000000E+00
   Multipole                     : -0.314236E-01 -0.377928E-01  0.878283E-01
   Pulay + GGA                   :  0.161428E+00  0.204565E+00 -0.256375E+00
   Van der Waals                 :  0.143490E-02  0.522988E-02 -0.259872E-02
   ----------------------------------------------------------------
   Total forces(  13)            : -0.141996E+00 -0.108341E+01 -0.356908E-01

  Timings for VdW correction (Tkatchenko-Scheffler 2009 or later):
  | CPU time:        0.090 s, Wall clock time:        0.090 s.
  Removing unitary transformations (pure translations, rotations) from forces on atoms.
  Atomic forces before filtering:
  | Net force on center of mass :  -0.115665E-02 -0.271836E-02 -0.889065E-03 eV/A
  | Net torque on center of mass:  -0.987434E-02  0.200730E-02  0.494945E-02 eV
  Atomic forces after filtering:
  | Net force on center of mass :  -0.245308E-15  0.178406E-15  0.133805E-15 eV/A
  | Net torque on center of mass:  -0.849676E-15  0.790671E-15 -0.566451E-15 eV

  Energy and forces in a compact form:
  | Total energy uncorrected      :         -0.880292555472366E+04 eV
  | Total energy corrected        :         -0.880292555472366E+04 eV  <-- do not rely on this value for anything but (periodic) metals
  | Electronic free energy        :         -0.880292555472366E+04 eV
  Total atomic forces (unitary forces cleaned) [eV/Ang]:
  |   1         -0.240816250194605E+00          0.158307663050728E+00         -0.813707532140399E+00
  |   2          0.376443290302377E+00          0.556006607875622E-01          0.211248910796022E+00
  |   3          0.883097127598798E-01         -0.132535163116692E+00          0.710659402863695E+00
  |   4          0.170370565946284E+00         -0.670801440834853E-01         -0.223626125136961E+00
  |   5         -0.121234400558048E+00          0.143287963257536E+00         -0.234744456105997E+00
  |   6          0.180991863122182E+00         -0.528376671622657E+00          0.221964616435669E+00
  |   7         -0.255920122711923E+00         -0.543210337375098E-03          0.972101675251120E-02
  |   8         -0.122387166139898E-01          0.202045438196065E-01          0.184848415972013E+00
  |   9          0.126129527640813E+00          0.914872063550148E-01         -0.127570181542100E+00
  |  10          0.113696095529954E+01          0.173146187717759E+01          0.187188510111241E+00
  |  11          0.751798536650721E+00          0.622310213560875E+00          0.183322381617863E+01
  |  12         -0.205845419509286E+01         -0.101093997499638E+01         -0.192295049467561E+01
  |  13         -0.142340766550370E+00         -0.108318496385233E+01         -0.362558995087094E-01

  ------------------------------------ 
  Start decomposition of the XC Energy 
  ------------------------------------ 
  X and C from original XC functional choice 
  Hartree-Fock Energy :          0.000000000 Ha              0.000000000 eV
  X Energy            :        -41.035642577 Ha          -1116.636648365 eV
  C Energy            :         -1.600063761 Ha            -43.539950227 eV
  Total XC Energy     :        -42.635706338 Ha          -1160.176598592 eV
  ------------------------------------ 
  LDA X and C from self-consistent density 
  X Energy LDA        :        -37.253871353 Ha          -1013.729417502 eV
  C Energy LDA        :         -3.138397215 Ha            -85.400133334 eV
  ------------------------------------ 
  End decomposition of the XC Energy 
  ------------------------------------ 

------------------------------------------------------------

------------------------------------------------------------------------------
  Final output of selected total energy values:

  The following output summarizes some interesting total energy values
  at the end of a run (AFTER all relaxation, molecular dynamics, etc.).

  | Total energy of the DFT / Hartree-Fock s.c.f. calculation      :          -8802.925554724 eV
  | Final zero-broadening corrected energy (caution - metals only) :          -8802.925554724 eV
  | For reference only, the value of 1 Hartree used in FHI-aims is :             27.211384500 eV

  Before relying on these values, please be sure to understand exactly which
  total energy value is referred to by a given number. Different objects may
  all carry the same name 'total energy'. Definitions:

  Total energy of the DFT / Hartree-Fock s.c.f. calculation:
  | Note that this energy does not include ANY quantities calculated after the
  | s.c.f. cycle, in particular not ANY RPA, MP2, etc. many-body perturbation terms.

  Final zero-broadening corrected energy:
  | For metallic systems only, a broadening of the occupation numbers at the Fermi
  | level can be extrapolated back to zero broadening by an electron-gas inspired
  | formula. For all systems that are not real metals, this value can be
  | meaningless and should be avoided.

------------------------------------------------------------------------------
  Methods described in the following list of references were used in this FHI-aims run.
  If you publish the results, please make sure to cite these reference if they apply.
  FHI-aims is an academic code, and for our developers (often, Ph.D. students
  and postdocs), scientific credit in the community is essential.
  Thank you for helping us!

  For any use of FHI-aims, please cite:

    Volker Blum, Ralf Gehrke, Felix Hanke, Paula Havu, Ville Havu,
    Xinguo Ren, Karsten Reuter, and Matthias Scheffler
    'Ab initio molecular simulations with numeric atom-centered orbitals'
    Computer Physics Communications 180, 2175-2196 (2009)
    http://dx.doi.org/10.1016/j.cpc.2009.06.022


  The scalable eigensolver library ELPA was used in your run.
  ELPA is essential especially for large systems on hundreds or thousands of CPUs.
  For ELPA, please cite:

    Andreas Marek, Volker Blum, Rainer Johanni, Ville Havu, Bruno Lang,
    Thomas Auckenthaler, Alexander Heinecke, Hans-Joachim Bungartz, and Hermann Lederer,
    'The ELPA Library - Scalable Parallel Eigenvalue Solutions
    for Electronic Structure Theory and Computational Science'
    The Journal of Physics: Condensed Matter 26, 213201 (2014).
    http://dx.doi.org/10.1088/0953-8984/26/21/213201


  The ELSI infrastructure was used in your run to solve the Kohn-Sham electronic structure.
  Please check out http://elsi-interchange.org to learn more.
  If scalability is important for your project, please acknowledge ELSI by citing:

    V. W-z. Yu, F. Corsetti, A. Garcia, W. P. Huhn, M. Jacquelin, W. Jia,
    B. Lange, L. Lin, J. Lu, W. Mi, A. Seifitokaldani, A. Vazquez-Mayagoitia,
    C. Yang, H. Yang, and V. Blum
    'ELSI: A unified software interface for Kohn-Sham electronic structure solvers'
    Computer Physics Communications 222, 267-285 (2018).
    http://dx.doi.org/10.1016/j.cpc.2017.09.007


  For the real-space grid partitioning and parallelization used in this calculation, please cite:

    Ville Havu, Volker Blum, Paula Havu, and Matthias Scheffler,
    'Efficient O(N) integration for all-electron electronic structure calculation'
    'using numerically tabulated basis functions'
    Journal of Computational Physics 228, 8367-8379 (2009).
    http://dx.doi.org/10.1016/j.jcp.2009.08.008

  Of course, there are many other important community references, e.g., those cited in the
  above references. Our list is limited to references that describe implementations in the
  FHI-aims code. The reason is purely practical (length of this list) - please credit others as well.

------------------------------------------------------------
          Leaving FHI-aims.
          Date     :  20200805, Time     :  180924.429

          Computational steps:
          | Number of self-consistency cycles          :           15
          | Number of SCF (re)initializations          :            1

          Detailed time accounting                     :  max(cpu_time)    wall_clock(cpu1)
          | Total time                                 :       21.894 s          21.941 s
          | Preparation time                           :        0.157 s           0.159 s
          | Boundary condition initalization           :        0.000 s           0.000 s
          | Grid partitioning                          :        0.116 s           0.117 s
          | Preloading free-atom quantities on grid    :        0.002 s           0.002 s
          | Free-atom superposition energy             :        0.085 s           0.086 s
          | Total time for integrations                :        8.267 s           8.273 s
          | Total time for solution of K.-S. equations :        0.035 s           0.039 s
          | Total time for density & force components  :        6.880 s           6.892 s
          | Total time for mixing                      :        0.216 s           0.218 s
          | Total time for Hartree multipole update    :        0.136 s           0.138 s
          | Total time for Hartree multipole sum       :        5.569 s           5.577 s
          | Total time for total energy evaluation     :        0.002 s           0.001 s
          | Total time for vdW correction              :        0.090 s           0.090 s

          Partial memory accounting:
          | Residual value for overall tracked memory usage across tasks :           0.000 MB (should be 0.000 MB)
          | Peak values for overall tracked memory usage (after allocating hessian_basis_wave):
          |   Minimum:        1.622 MB (on task 1)
          |   Maximum:        1.622 MB (on task 1)
          |   Average:        1.622 MB
          | Largest tracked array allocation (hessian_basis_wave):
          |   Minimum:        0.794 MB (on task 1)
          |   Maximum:        0.794 MB (on task 1)
          |   Average:        0.794 MB
          Note:  These values currently only include a subset of arrays which are explicitly tracked.
          The "true" memory usage will be greater.

          Have a nice day.
------------------------------------------------------------
