  MPI-parallelism will be employed.
------------------------------------------------------------
          Invoking FHI-aims ...
          Version 171221_1
          Compiled on 2019/09/09 at 14:39:39 on host puhti-login2.bullx.

          When using FHI-aims, please cite the following reference:

          Volker Blum, Ralf Gehrke, Felix Hanke, Paula Havu,
          Ville Havu, Xinguo Ren, Karsten Reuter, and Matthias Scheffler,
          'Ab Initio Molecular Simulations with Numeric Atom-Centered Orbitals',
          Computer Physics Communications 180, 2175-2196 (2009)

          For any questions about FHI-aims, please visit the aimsclub website
          with its forums and wiki. Contributions to both the forums and the
          wiki are warmly encouraged - they are for you, and everyone is welcome there.

------------------------------------------------------------



  Date     :  20200710, Time     :  143528.578
  Time zero on CPU 1             :   0.115000000000000E-01  s.
  Internal wall clock time zero  :           363623728.578  s.

  FHI-aims created a unique identifier for this run for later identification
  aims_uuid : 988D9EC4-6BD6-4E67-A5EA-64DDEAA611C8

  Using        1 parallel tasks.
  Task        0 on host r18c46.bullx reporting.

  Performing system and environment tests:
  | Environment variable OMP_NUM_THREADS correctly set to 1.
  | Stacksize not measured: no C compiler
  | Checking for scalapack...
  | Testing pdtran()...
  | All pdtran() tests passed.

  Obtaining array dimensions for all initial allocations:
  
  -----------------------------------------------------------------------
  Parsing control.in (first pass over file, find array dimensions only).
  The contents of control.in will be repeated verbatim below
  unless switched off by setting 'verbatim_writeout .false.' .
  in the first line of control.in .
  -----------------------------------------------------------------------
  
  #########################################################################################
  #
  #  Volker Blum, FHI 2009 : Test run input file control.in for simple H2O
  #
  #########################################################################################
  #
  #  Physical model
  #
    xc                 pbe
    vdw_correction_hirshfeld
    spin               none
    relativistic       none
    charge             0.
  #
  #  SCF convergence
  #
    occupation_type    gaussian 0.01
    mixer              pulay
      n_max_pulay        10
      charge_mix_param   0.2
    sc_accuracy_rho    1E-5
    sc_accuracy_eev    1E-3
    sc_accuracy_etot   1E-6
    sc_accuracy_forces 1E-4
    sc_iter_limit      100
  #
  #  Relaxation
  #
  #  relax_geometry   bfgs 1.e-3
  #
  ################################################################################
  #
  #  FHI-aims code project
  #  VB, Fritz-Haber Institut, 2009
  #
  #  Suggested "light" defaults for H atom (to be pasted into control.in file)
  #  Be sure to double-check any results obtained with these settings for post-processing,
  #  e.g., with the "tight" defaults and larger basis sets.
  #
  ################################################################################
    species        H
  #     global species definitions
      nucleus             1
      mass                1.00794
  #
      l_hartree           4
  #
      cut_pot             3.5  1.5  1.0
      basis_dep_cutoff    1e-4
  #
      radial_base         24 5.0
      radial_multiplier   1
      angular_grids       specified
        division   0.2421   50
        division   0.3822  110
        division   0.4799  194
        division   0.5341  302
  #      division   0.5626  434
  #      division   0.5922  590
  #      division   0.6542  770
  #      division   0.6868 1202
  #      outer_grid  770
        outer_grid  302
  ################################################################################
  #
  #  Definition of "minimal" basis
  #
  ################################################################################
  #     valence basis states
      valence      1  s   1.
  #     ion occupancy
      ion_occ      1  s   0.5
  ################################################################################
  #
  #  Suggested additional basis functions. For production calculations,
  #  uncomment them one after another (the most important basis functions are
  #  listed first).
  #
  #  Basis constructed for dimers: 0.5 A, 0.7 A, 1.0 A, 1.5 A, 2.5 A
  #
  ################################################################################
  #  "First tier" - improvements: -1014.90 meV to -62.69 meV
       hydro 2 s 2.1
       hydro 2 p 3.5
  #  "Second tier" - improvements: -12.89 meV to -1.83 meV
  #     hydro 1 s 0.85
  #     hydro 2 p 3.7
  #     hydro 2 s 1.2
  #     hydro 3 d 7
  #  "Third tier" - improvements: -0.25 meV to -0.12 meV
  #     hydro 4 f 11.2
  #     hydro 3 p 4.8
  #     hydro 4 d 9
  #     hydro 3 s 3.2
  ################################################################################
  #
  #  FHI-aims code project
  #  VB, Fritz-Haber Institut, 2009
  #
  #  Suggested "light" defaults for C atom (to be pasted into control.in file)
  #  Be sure to double-check any results obtained with these settings for post-processing,
  #  e.g., with the "tight" defaults and larger basis sets.
  #
  ################################################################################
    species        C
  #     global species definitions
      nucleus             6
      mass                12.0107
  #
      l_hartree           4
  #
      cut_pot             3.5  1.5  1.0
      basis_dep_cutoff    1e-4
  #
      radial_base         34 5.0
      radial_multiplier   1
      angular_grids specified
        division   0.3326   50
        division   0.5710  110
        division   0.7727  194
        division   0.8772  302
  #      division   0.9334  434
  #      division   0.9625  590
  #      division   0.9924  770
  #      division   1.0230  974
  #      division   1.4589 1202
  #     outer_grid  974
       outer_grid 302
  ################################################################################
  #
  #  Definition of "minimal" basis
  #
  ################################################################################
  #     valence basis states
      valence      2  s   2.
      valence      2  p   2.
  #     ion occupancy
      ion_occ      2  s   1.
      ion_occ      2  p   1.
  ################################################################################
  #
  #  Suggested additional basis functions. For production calculations,
  #  uncomment them one after another (the most important basis functions are
  #  listed first).
  #
  #  Constructed for dimers: 1.0 A, 1.25 A, 1.5 A, 2.0 A, 3.0 A
  #
  ################################################################################
  #  "First tier" - improvements: -1214.57 meV to -155.61 meV
       hydro 2 p 1.7
       hydro 3 d 6
       hydro 2 s 4.9
  #  "Second tier" - improvements: -67.75 meV to -5.23 meV
  #     hydro 4 f 9.8
  #     hydro 3 p 5.2
  #     hydro 3 s 4.3
  #     hydro 5 g 14.4
  #     hydro 3 d 6.2
  #  "Third tier" - improvements: -2.43 meV to -0.60 meV
  #     hydro 2 p 5.6
  #     hydro 2 s 1.4
  #     hydro 3 d 4.9
  #     hydro 4 f 11.2
  #  "Fourth tier" - improvements: -0.39 meV to -0.18 meV
  #     hydro 2 p 2.1
  #     hydro 5 g 16.4
  #     hydro 4 d 13.2
  #     hydro 3 s 13.6
  #     hydro 4 f 17.6
  #  Further basis functions - improvements: -0.08 meV and below
  #     hydro 3 s 2
  #     hydro 3 p 6
  #     hydro 4 d 20
  ################################################################################
  #
  #  FHI-aims code project
  #  VB, Fritz-Haber Institut, 2009
  #
  #  Suggested "light" defaults for N atom (to be pasted into control.in file)
  #  Be sure to double-check any results obtained with these settings for post-processing,
  #  e.g., with the "tight" defaults and larger basis sets.
  #
  ################################################################################
    species        N
  #     global species definitions
      nucleus             7
      mass                14.0067
  #
      l_hartree           4
  #
      cut_pot             3.5  1.5  1.0
      basis_dep_cutoff    1e-4
  #
      radial_base         35 5.0
      radial_multiplier   1
      angular_grids       specified
        division   0.2599   50
        division   0.4601  110
        division   0.5885  194
        division   0.6503  302
  #      division   0.6939  434
  #      division   0.7396  590
  #      division   0.7632  770
  #      division   0.8122  974
  #      division   1.1604 1202
  #      outer_grid  974
        outer_grid  302
  ################################################################################
  #
  #  Definition of "minimal" basis
  #
  ################################################################################
  #     valence basis states
      valence      2  s   2.
      valence      2  p   3.
  #     ion occupancy
      ion_occ      2  s   1.
      ion_occ      2  p   2.
  ################################################################################
  #
  #  Suggested additional basis functions. For production calculations,
  #  uncomment them one after another (the most important basis functions are
  #  listed first).
  #
  #  Constructed for dimers: 1.0 A, 1.1 A, 1.5 A, 2.0 A, 3.0 A
  #
  ################################################################################
  #  "First tier" - improvements: -1193.42 meV to -220.60 meV
       hydro 2 p 1.8
       hydro 3 d 6.8
       hydro 3 s 5.8
  #  "Second tier" - improvements: -80.21 meV to -6.86 meV
  #     hydro 4 f 10.8
  #     hydro 3 p 5.8
  #     hydro 1 s 0.8
  #     hydro 5 g 16
  #     hydro 3 d 4.9
  #  "Third tier" - improvements: -4.29 meV to -0.53 meV
  #     hydro 3 s 16
  #     ionic 2 p auto
  #     hydro 3 d 6.6
  #     hydro 4 f 11.6
  #  "Fourth tier" - improvements: -0.75 meV to -0.25 meV
  #     hydro 2 p 4.5
  #     hydro 2 s 2.4
  #     hydro 5 g 14.4
  #     hydro 4 d 14.4
  #     hydro 4 f 16.8
  # Further basis functions - -0.21 meV and below
  #     hydro 3 p 14.8
  #     hydro 3 s 4.4
  #     hydro 3 d 19.6
  #     hydro 5 g 12.8
  ################################################################################
  #
  #  FHI-aims code project
  #  VB, Fritz-Haber Institut, 2009
  #
  #  Suggested "light" defaults for O atom (to be pasted into control.in file)
  #  Be sure to double-check any results obtained with these settings for post-processing,
  #  e.g., with the "tight" defaults and larger basis sets.
  #
  ################################################################################
    species        O
  #     global species definitions
      nucleus             8
      mass                15.9994
  #
      l_hartree           4
  #
      cut_pot             3.5  1.5  1.0
      basis_dep_cutoff    1e-4
  #
      radial_base         36 5.0
      radial_multiplier   1
       angular_grids specified
        division   0.2659   50
        division   0.4451  110
        division   0.6052  194
        division   0.7543  302
  #      division   0.8014  434
  #      division   0.8507  590
  #      division   0.8762  770
  #      division   0.9023  974
  #      division   1.2339 1202
  #      outer_grid 974
        outer_grid 302
  ################################################################################
  #
  #  Definition of "minimal" basis
  #
  ################################################################################
  #     valence basis states
      valence      2  s   2.
      valence      2  p   4.
  #     ion occupancy
      ion_occ      2  s   1.
      ion_occ      2  p   3.
  ################################################################################
  #
  #  Suggested additional basis functions. For production calculations,
  #  uncomment them one after another (the most important basis functions are
  #  listed first).
  #
  #  Constructed for dimers: 1.0 A, 1.208 A, 1.5 A, 2.0 A, 3.0 A
  #
  ################################################################################
  #  "First tier" - improvements: -699.05 meV to -159.38 meV
       hydro 2 p 1.8
       hydro 3 d 7.6
       hydro 3 s 6.4
  #  "Second tier" - improvements: -49.91 meV to -5.39 meV
  #     hydro 4 f 11.6
  #     hydro 3 p 6.2
  #     hydro 3 d 5.6
  #     hydro 5 g 17.6
  #     hydro 1 s 0.75
  #  "Third tier" - improvements: -2.83 meV to -0.50 meV
  #     ionic 2 p auto
  #     hydro 4 f 10.8
  #     hydro 4 d 4.7
  #     hydro 2 s 6.8
  #  "Fourth tier" - improvements: -0.40 meV to -0.12 meV
  #     hydro 3 p 5
  #     hydro 3 s 3.3
  #     hydro 5 g 15.6
  #     hydro 4 f 17.6
  #     hydro 4 d 14
  # Further basis functions - -0.08 meV and below
  #     hydro 3 s 2.1
  #     hydro 4 d 11.6
  #     hydro 3 p 16
  #     hydro 2 s 17.2
  
  -----------------------------------------------------------------------
  Completed first pass over input file control.in .
  -----------------------------------------------------------------------
  
  
  -----------------------------------------------------------------------
  Parsing geometry.in (first pass over file, find array dimensions only).
  The contents of geometry.in will be repeated verbatim below
  unless switched off by setting 'verbatim_writeout .false.' .
  in the first line of geometry.in .
  -----------------------------------------------------------------------
  
  atom  0.00000 0.00000 0.00000 C
  atom  1.09300 0.00000 0.00000 H
  atom  -0.47961 0.00000 -1.41207 N
  atom  0.00368 0.74067 -1.92165 H
  atom  -0.27254 -0.90586 -1.82760 H
  atom  -0.49584 1.26211 0.72868 C
  atom  -1.58789 1.28919 0.74431 H
  atom  -0.13407 1.27425 1.75947 H
  atom  -0.13407 2.16087 0.22380 H
  atom  -0.39425 -1.28861 0.74398 C
  atom  -0.10189 -1.56493 1.88303 O
  atom  -1.10210 -2.13717 0.06896 O
  atom  -1.51886 -2.59980 0.81547 H
  
  -----------------------------------------------------------------------
  Completed first pass over input file geometry.in .
  -----------------------------------------------------------------------
  

  Basic array size parameters:
  | Number of species                 :        4
  | Number of atoms                   :       13
  | Max. basis fn. angular momentum   :        2
  | Max. atomic/ionic basis occupied n:        2
  | Max. number of basis fn. types    :        2
  | Max. radial fns per species/type  :        3
  | Max. logarithmic grid size        :     1301
  | Max. radial integration grid size :       36
  | Max. angular integration grid size:      302
  | Max. angular grid division number :        8
  | Radial grid for Hartree potential :     1301
  | Number of spin channels           :        1

------------------------------------------------------------
          Reading file control.in.
------------------------------------------------------------
  XC: Using PBE gradient-corrected functionals.
  Spin treatment: No spin polarisation.
  Non-relativistic treatment of kinetic energy.
  Charge =   0.000000E+00: Neutral system requested explicitly.
  Occupation type: Gaussian broadening, width =   0.100000E-01 eV.
  Using pulay charge density mixing.
  Pulay mixing - number of memorized iterations:   10
  Charge density mixing - mixing parameter:     0.2000
  Convergence accuracy of self-consistent charge density:  0.1000E-04
  Convergence accuracy of sum of eigenvalues:  0.1000E-02
  Convergence accuracy of total energy:  0.1000E-05
  Convergence accuracy of forces:  0.1000E-03
  Maximum number of s.-c. iterations  :   100
 
  Reading configuration options for species H                   .
  | Found nuclear charge :   1.0000
  | Found atomic mass :    1.00794000000000      amu
  | Found l_max for Hartree potential  :   4
  | Found cutoff potl. onset [A], width [A], scale factor :    3.50000    1.50000    1.00000
  | Threshold for basis-dependent cutoff potential is   0.100000E-03
  | Found data for basic radial integration grid :    24 points, outermost radius =    5.000 A
  | Found multiplier for basic radial grid :   1
  | Found angular grid specification: user-specified.
  | Specified grid contains     5 separate shells.
  | Check grid settings after all constraints further below.
  | Found free-atom valence shell :  1 s   1.000
  | No ionic wave fns used. Skipping ion_occ.
  | Found hydrogenic basis function :  2 s   2.100
  | Found hydrogenic basis function :  2 p   3.500
  Species H                   : Missing cutoff potential type.
  Defaulting to exp(1/x)/(1-x)^2 type cutoff potential.
  Species H : No 'logarithmic' tag. Using default grid for free atom:
  | Default logarithmic grid data [bohr] : 0.1000E-03 0.1000E+03 0.1012E+01
  Species H : On-site basis accuracy parameter (for Gram-Schmidt orthonormalisation) not specified.
  Using default value basis_acc =  0.1000000E-03.
  Species H                   : Using default innermost maximum threshold i_radial=  2 for radial functions.
  Species H                   : Default cutoff onset for free atom density etc. : 0.35000000E+01 AA.
  Species H                   : Basic radial grid will be enhanced according to radial_multiplier =   1, to contain    24 grid points.
 
  Reading configuration options for species C                   .
  | Found nuclear charge :   6.0000
  | Found atomic mass :    12.0107000000000      amu
  | Found l_max for Hartree potential  :   4
  | Found cutoff potl. onset [A], width [A], scale factor :    3.50000    1.50000    1.00000
  | Threshold for basis-dependent cutoff potential is   0.100000E-03
  | Found data for basic radial integration grid :    34 points, outermost radius =    5.000 A
  | Found multiplier for basic radial grid :   1
  | Found angular grid specification: user-specified.
  | Specified grid contains     5 separate shells.
  | Check grid settings after all constraints further below.
  | Found free-atom valence shell :  2 s   2.000
  | Found free-atom valence shell :  2 p   2.000
  | No ionic wave fns used. Skipping ion_occ.
  | No ionic wave fns used. Skipping ion_occ.
  | Found hydrogenic basis function :  2 p   1.700
  | Found hydrogenic basis function :  3 d   6.000
  | Found hydrogenic basis function :  2 s   4.900
  Species C                   : Missing cutoff potential type.
  Defaulting to exp(1/x)/(1-x)^2 type cutoff potential.
  Species C : No 'logarithmic' tag. Using default grid for free atom:
  | Default logarithmic grid data [bohr] : 0.1000E-03 0.1000E+03 0.1012E+01
  Species C : On-site basis accuracy parameter (for Gram-Schmidt orthonormalisation) not specified.
  Using default value basis_acc =  0.1000000E-03.
  Species C                   : Using default innermost maximum threshold i_radial=  2 for radial functions.
  Species C                   : Default cutoff onset for free atom density etc. : 0.35000000E+01 AA.
  Species C                   : Basic radial grid will be enhanced according to radial_multiplier =   1, to contain    34 grid points.
 
  Reading configuration options for species N                   .
  | Found nuclear charge :   7.0000
  | Found atomic mass :    14.0067000000000      amu
  | Found l_max for Hartree potential  :   4
  | Found cutoff potl. onset [A], width [A], scale factor :    3.50000    1.50000    1.00000
  | Threshold for basis-dependent cutoff potential is   0.100000E-03
  | Found data for basic radial integration grid :    35 points, outermost radius =    5.000 A
  | Found multiplier for basic radial grid :   1
  | Found angular grid specification: user-specified.
  | Specified grid contains     5 separate shells.
  | Check grid settings after all constraints further below.
  | Found free-atom valence shell :  2 s   2.000
  | Found free-atom valence shell :  2 p   3.000
  | No ionic wave fns used. Skipping ion_occ.
  | No ionic wave fns used. Skipping ion_occ.
  | Found hydrogenic basis function :  2 p   1.800
  | Found hydrogenic basis function :  3 d   6.800
  | Found hydrogenic basis function :  3 s   5.800
  Species N                   : Missing cutoff potential type.
  Defaulting to exp(1/x)/(1-x)^2 type cutoff potential.
  Species N : No 'logarithmic' tag. Using default grid for free atom:
  | Default logarithmic grid data [bohr] : 0.1000E-03 0.1000E+03 0.1012E+01
  Species N : On-site basis accuracy parameter (for Gram-Schmidt orthonormalisation) not specified.
  Using default value basis_acc =  0.1000000E-03.
  Species N                   : Using default innermost maximum threshold i_radial=  2 for radial functions.
  Species N                   : Default cutoff onset for free atom density etc. : 0.35000000E+01 AA.
  Species N                   : Basic radial grid will be enhanced according to radial_multiplier =   1, to contain    35 grid points.
 
  Reading configuration options for species O                   .
  | Found nuclear charge :   8.0000
  | Found atomic mass :    15.9994000000000      amu
  | Found l_max for Hartree potential  :   4
  | Found cutoff potl. onset [A], width [A], scale factor :    3.50000    1.50000    1.00000
  | Threshold for basis-dependent cutoff potential is   0.100000E-03
  | Found data for basic radial integration grid :    36 points, outermost radius =    5.000 A
  | Found multiplier for basic radial grid :   1
  | Found angular grid specification: user-specified.
  | Specified grid contains     5 separate shells.
  | Check grid settings after all constraints further below.
  | Found free-atom valence shell :  2 s   2.000
  | Found free-atom valence shell :  2 p   4.000
  | No ionic wave fns used. Skipping ion_occ.
  | No ionic wave fns used. Skipping ion_occ.
  | Found hydrogenic basis function :  2 p   1.800
  | Found hydrogenic basis function :  3 d   7.600
  | Found hydrogenic basis function :  3 s   6.400
  Species O                   : Missing cutoff potential type.
  Defaulting to exp(1/x)/(1-x)^2 type cutoff potential.
  Species O : No 'logarithmic' tag. Using default grid for free atom:
  | Default logarithmic grid data [bohr] : 0.1000E-03 0.1000E+03 0.1012E+01
  Species O : On-site basis accuracy parameter (for Gram-Schmidt orthonormalisation) not specified.
  Using default value basis_acc =  0.1000000E-03.
  Species O                   : Using default innermost maximum threshold i_radial=  2 for radial functions.
  Species O                   : Default cutoff onset for free atom density etc. : 0.35000000E+01 AA.
  Species O                   : Basic radial grid will be enhanced according to radial_multiplier =   1, to contain    36 grid points.
 
  Finished reading input file 'control.in'. Consistency checks are next.
 
  MPI_IN_PLACE appears to work with this MPI implementation.
  | Keeping use_mpi_in_place .true. (see manual).
  Target number of points in a grid batch is not set. Defaulting to  100
  Method for grid partitioning is not set. Defaulting to parallel hash+maxmin partitioning.
  Batch size limit is not set. Defaulting to    200
  By default, will store active basis functions for each batch.
  If in need of memory, prune_basis_once .false. can be used to disable this option.
  communication_type for Hartree potential was not specified.
  Defaulting to calc_hartree .
  Pulay mixer: Number of initial linear mixing iterations not set.
  Defaulting to    0 iterations.
  Work space size for distributed Hartree potential not set.
  Defaulting to   0.200000E+03 MB.
  Algorithm-dependent basis array size parameters:
  | n_max_pulay                         :       10
  Presetting      1001 iterations before the initial mixing cycle
  is restarted anyway using the sc_init_iter criterion / keyword.
  Presetting a factor      1.000 between actual scf density residual
  and density convergence criterion sc_accuracy_rho below which sc_init_iter
  takes no effect.
  Geometry relaxation not requested: no relaxation will be performed.
  Handling of forces: Unphysical translation and rotation will be removed from forces.
  No accuracy limit for integral partition fn. given. Defaulting to  0.1000E-14.
  No threshold value for u(r) in integrations given. Defaulting to  0.1000E-05.
  No accuracy for occupation numbers given. Defaulting to  0.1000E-12.
  No threshold value for occupation numbers given. Defaulting to  0.0000E+00.
  No accuracy for fermi level given. Defaulting to  0.1000E-19.
  Maximum # of iterations to find E_F not set. Defaulting to  200.
  Preferred method for the eigenvalue solver ('KS_method') not specified in 'control.in'.
  Defaulting to serial version, 'lapack_fast'.
  Will not use alltoall communication since running on < 1024 CPUs.
  Threshold for basis singularities not set.
  Default threshold for basis singularities:  0.1000E-04
  partition_type (choice of integration weights) for integrals was not specified.
  | Using a version of the partition function of Stratmann and coworkers ('stratmann_smoother').
  | At each grid point, the set of atoms used to build the partition table is smoothly restricted to
  | only those atoms whose free-atom density would be non-zero at that grid point.
  Partitioning for Hartree potential was not defined. Using partition_type for integrals.
  | Adjusted default value of keyword multip_moments_threshold to:       0.10000000E-11
  | This value may affect high angular momentum components of the Hartree potential in periodic systems.
  No q(lm)/r^(l+1) cutoff set for long-range Hartree potential.
  | Using default value of  0.100000E-09 .
  | Verify using the multipole_threshold keyword.
  Defaulting to new monopole extrapolation.
  Density update method: automatic selection selected.
------------------------------------------------------------


------------------------------------------------------------
          Reading geometry description geometry.in.
------------------------------------------------------------
  Input structure read successfully.
  The structure contains       13 atoms,  and a total of         48.000 electrons.

  Input geometry:
  | No unit cell requested.
  | Atomic structure:
  |       Atom                x [A]            y [A]            z [A]
  |    1: Species C             0.00000000        0.00000000        0.00000000
  |    2: Species H             1.09300000        0.00000000        0.00000000
  |    3: Species N            -0.47961000        0.00000000       -1.41207000
  |    4: Species H             0.00368000        0.74067000       -1.92165000
  |    5: Species H            -0.27254000       -0.90586000       -1.82760000
  |    6: Species C            -0.49584000        1.26211000        0.72868000
  |    7: Species H            -1.58789000        1.28919000        0.74431000
  |    8: Species H            -0.13407000        1.27425000        1.75947000
  |    9: Species H            -0.13407000        2.16087000        0.22380000
  |   10: Species C            -0.39425000       -1.28861000        0.74398000
  |   11: Species O            -0.10189000       -1.56493000        1.88303000
  |   12: Species O            -1.10210000       -2.13717000        0.06896000
  |   13: Species H            -1.51886000       -2.59980000        0.81547000
  |

  | The smallest distance between any two atoms is         0.97210730 AA.
  |
  | The first atom of this pair is atom number                     12 .
  | The second atom of this pair is atom number                    13 .

  Number of empty states per atom not set in control.in - providing a guess from actual geometry.
  | Total number of empty states used during s.c.f. cycle:       29
  If you use a very high smearing, use empty_states (per atom!) in control.in to increase this value.

  Structure-dependent array size parameters: 
  | Maximum number of distinct radial functions  :       21
  | Maximum number of basis functions            :      119
  | Number of Kohn-Sham states (occupied + empty):       53
------------------------------------------------------------

------------------------------------------------------------
          Preparing all fixed parts of the calculation.
------------------------------------------------------------
  Determining machine precision:
    2.225073858507201E-308
  Setting up grids for atomic and cluster calculations.

  Creating wave function, potential, and density for free atoms.

  Species: H

  List of occupied orbitals and eigenvalues:
    n    l              occ      energy [Ha]    energy [eV]
    1    0           1.0000        -0.237589        -6.4651


  Species: C

  List of occupied orbitals and eigenvalues:
    n    l              occ      energy [Ha]    energy [eV]
    1    0           2.0000       -10.038835      -273.1706
    2    0           2.0000        -0.502696       -13.6791
    2    1           2.0000        -0.191971        -5.2238


  Species: N

  List of occupied orbitals and eigenvalues:
    n    l              occ      energy [Ha]    energy [eV]
    1    0           2.0000       -14.128000      -384.4424
    2    0           2.0000        -0.681077       -18.5330
    2    1           3.0000        -0.259788        -7.0692


  Species: O

  List of occupied orbitals and eigenvalues:
    n    l              occ      energy [Ha]    energy [eV]
    1    0           2.0000       -18.898188      -514.2459
    2    0           2.0000        -0.878505       -23.9053
    2    1           4.0000        -0.331779        -9.0282

  Creating fixed part of basis set: Ionic, confined, hydrogenic.
 
  H                    hydrogenic:
 
  List of hydrogenic basis orbitals: 
    n    l      effective z      eigenvalue [eV]  inner max. [A]     outer max. [A]     outer radius [A]   
    2    0         2.100000       -14.9728           0.193243           1.317208           4.583499
    2    1         3.500000       -41.6669           0.602369           0.602369           3.723403
 
 
  C                    hydrogenic:
 
  List of hydrogenic basis orbitals: 
    n    l      effective z      eigenvalue [eV]  inner max. [A]     outer max. [A]     outer radius [A]   
    2    1         1.700000        -9.7616           1.230570           1.230570           4.607917
    3    2         6.000000       -54.4224           0.792453           0.792453           3.883070
    2    0         4.900000       -81.6679           0.082559           0.562749           3.078220
 
 
  N                    hydrogenic:
 
  List of hydrogenic basis orbitals: 
    n    l      effective z      eigenvalue [eV]  inner max. [A]     outer max. [A]     outer radius [A]   
    2    1         1.800000       -10.9749           1.177451           1.177451           4.573712
    3    2         6.800000       -69.9026           0.704619           0.704619           3.538137
    3    0         5.800000       -50.8545           0.067388           1.191934           4.250239
 
 
  O                    hydrogenic:
 
  List of hydrogenic basis orbitals: 
    n    l      effective z      eigenvalue [eV]  inner max. [A]     outer max. [A]     outer radius [A]   
    2    1         1.800000       -10.9749           1.164242           1.164242           4.578029
    3    2         7.600000       -87.3180           0.624125           0.624125           3.251020
    3    0         6.400000       -61.9207           0.061167           1.081902           4.001998
 

  Adding cutoff potential to free-atom effective potential.
  Creating atomic-like basis functions for current effective potential.

  Species H                   :

  List of atomic basis orbitals and eigenvalues:
    n    l      energy [Ha]    energy [eV]    outer radius [A]
    1    0        -0.237589        -6.4651       4.527807


  Species C                   :

  List of atomic basis orbitals and eigenvalues:
    n    l      energy [Ha]    energy [eV]    outer radius [A]
    1    0       -10.038835      -273.1706       1.934409
    2    0        -0.502696       -13.6791       4.496620
    2    1        -0.191971        -5.2238       4.551928


  Species N                   :

  List of atomic basis orbitals and eigenvalues:
    n    l      energy [Ha]    energy [eV]    outer radius [A]
    1    0       -14.128000      -384.4424       1.637919
    2    0        -0.681077       -18.5330       4.463241
    2    1        -0.259788        -7.0692       4.518138


  Species O                   :

  List of atomic basis orbitals and eigenvalues:
    n    l      energy [Ha]    energy [eV]    outer radius [A]
    1    0       -18.898188      -514.2459       1.415765
    2    0        -0.878505       -23.9053       4.413171
    2    1        -0.331779        -9.0282       4.522403

  Assembling full basis from fixed parts.
  | Species H :   atomic orbital   1 s accepted.
  | Species H :    hydro orbital   2 s accepted.
  | Species H :    hydro orbital   2 p accepted.
  | Species C :   atomic orbital   1 s accepted.
  | Species C :    hydro orbital   2 s accepted.
  | Species C :   atomic orbital   2 s accepted.
  | Species C :   atomic orbital   2 p accepted.
  | Species C :    hydro orbital   2 p accepted.
  | Species C :    hydro orbital   3 d accepted.
  | Species N :   atomic orbital   1 s accepted.
  | Species N :    hydro orbital   3 s accepted.
  | Species N :   atomic orbital   2 s accepted.
  | Species N :   atomic orbital   2 p accepted.
  | Species N :    hydro orbital   2 p accepted.
  | Species N :    hydro orbital   3 d accepted.
  | Species O :   atomic orbital   1 s accepted.
  | Species O :    hydro orbital   3 s accepted.
  | Species O :   atomic orbital   2 s accepted.
  | Species O :   atomic orbital   2 p accepted.
  | Species O :    hydro orbital   2 p accepted.
  | Species O :    hydro orbital   3 d accepted.
 
  Basis size parameters after reduction:
  | Total number of radial functions:       21
  | Total number of basis functions :      119
 
  Per-task memory consumption for arrays in subroutine allocate_ext:
  |           5.250512MB.
  Testing on-site integration grid accuracy.
  |  Species  Function  <phi|h_atom|phi> (log., in eV)  <phi|h_atom|phi> (rad., in eV)
           1        1                 -6.4663192853                 -6.4651273558
           1        2                 13.7111246313                 13.7170609718
           1        3                 25.2673269279                 25.2674696378
           2        4               -273.1705927641               -273.1705631568
           2        5                -10.7109323383                -10.7107120029
           2        6                 17.4381822266                 17.4352413244
           2        7                 -5.2255326521                 -5.2270484734
           2        8                  8.6835629259                  8.6603288385
           2        9                 27.4952418996                 27.4953360207
           3       10               -384.4424306495               -384.4423701208
           3       11                 12.5842251816                 12.5842222903
           3       12                -15.7264628251                -15.7264433455
           3       13                 -7.0696854293                 -7.0701769954
           3       14                  8.8090390882                  8.7901077751
           3       15                 35.9586762123                 35.9588528632
           4       16               -514.2458688638               -514.2457643834
           4       17                 15.1795651126                 15.1795290741
           4       18                -21.5359799773                -21.5360846186
           4       19                 -9.0283069236                 -9.0284644067
           4       20                  8.3027758564                  8.2834874195
           4       21                 45.8339351984                 45.8338762259

  Preparing densities etc. for the partition functions (integrals / Hartree potential).

  Preparations completed.
  max(cpu_time)          :      0.147 s.
  Wall clock time (cpu1) :      0.148 s.
------------------------------------------------------------

------------------------------------------------------------
          Begin self-consistency loop: Initialization.

          Date     :  20200710, Time     :  143528.740
------------------------------------------------------------

  Initializing index lists of integration centers etc. from given atomic structure:
  | Number of centers in hartree potential         :        13
  | Number of centers in hartree multipole         :        13
  | Number of centers in electron density summation:        13
  | Number of centers in basis integrals           :        13
  | Number of centers in integrals                 :        13
  | Number of centers in hamiltonian               :        13
  Partitioning the integration grid into batches with parallel hashing+maxmin method.
  | Number of batches:      952
  | Maximal batch size:     139
  | Minimal batch size:      66
  | Average batch size:      73.158
  | Standard deviation of batch sizes:      17.976

  Integration load balanced across     1 MPI tasks.
  Work distribution over tasks is as follows:
  Task     0 has      69646 integration points.
  Initializing partition tables, free-atom densities, potentials, etc. across the integration grid (initialize_grid_storage).
  | initialize_grid_storage: Actual outermost partition radius vs. multipole_radius_free
  | (-- VB: in principle, multipole_radius_free should be larger, hence this output)
  | Species        1: Confinement radius =              4.999999999999999 AA, multipole_radius_free =              5.054417573612229 AA.
  | Species        1: outer_partition_radius set to              5.054417573612229 AA .
  | Species        2: Confinement radius =              4.999999999999999 AA, multipole_radius_free =              5.019602836301480 AA.
  | Species        2: outer_partition_radius set to              5.019602836301480 AA .
  | Species        3: Confinement radius =              4.999999999999999 AA, multipole_radius_free =              5.043624274424571 AA.
  | Species        3: outer_partition_radius set to              5.043624274424571 AA .
  | Species        4: Confinement radius =              4.999999999999999 AA, multipole_radius_free =              5.048384829883283 AA.
  | Species        4: outer_partition_radius set to              5.048384829883283 AA .
  | Original list of interatomic distances with          13 x         13 entries is created.
  | Net number of integration points:    69646
  | of which are non-zero points    :    59647
  Renormalizing the initial density to the exact electron count on the 3D integration grid.
  | Initial density: Formal number of electrons (from input files) :      48.0000000000
  | Integrated number of electrons on 3D grid     :      47.9998852966
  | Charge integration error                      :      -0.0001147034
  | Normalization factor for density and gradient :       1.0000023897
  Obtaining max. number of non-zero basis functions in each batch (get_n_compute_maxes).
  | Maximal number of non-zero basis functions:      119 in task     0
  Selecting the method for density update.
  Loop over occupied states selected for charge density update.
  Allocating        0.050 MB for KS_eigenvector
  Integrating Hamiltonian matrix: batch-based integration.
  Time summed over all CPUs for integration: real work        0.492 s, elapsed        0.492 s
  Integrating overlap matrix.
  Time summed over all CPUs for integration: real work        0.210 s, elapsed        0.210 s

  Updating Kohn-Sham eigenvalues and eigenvectors using ELSI and the ELPA eigensolver.
  Overlap matrix is nonsingular
  | Lowest eigenvalue of overlap  :  0.53E-02
  | Highest eigenvalue of overlap :  0.60E+01
  Finished singularity check of overlap matrix
  | Time :     0.002 s
  Finished Cholesky decomposition
  | Time :     0.000 s
  Finished transformation to standard eigenproblem
  | Time :     0.000 s
  Starting LAPACK eigensolver
  Finished solving standard eigenproblem
  | Time :     0.002 s
  Finished back-transformation of eigenvectors
  | Time :     0.000 s

  Obtaining occupation numbers and chemical potential using ELSI.
  | Chemical potential (Fermi level):    -8.81410227eV
  Writing Kohn-Sham eigenvalues.

  State    Occupation    Eigenvalue [Ha]    Eigenvalue [eV]
      1       2.00000         -19.007788         -517.22824
      2       2.00000         -18.978192         -516.42288
      3       2.00000         -14.245788         -387.64762
      4       2.00000         -10.166646         -276.64852
      5       2.00000         -10.141239         -275.95715
      6       2.00000         -10.132017         -275.70622
      7       2.00000          -1.187872          -32.32363
      8       2.00000          -1.093346          -29.75145
      9       2.00000          -0.991206          -26.97209
     10       2.00000          -0.861325          -23.43786
     11       2.00000          -0.761025          -20.70855
     12       2.00000          -0.678793          -18.47090
     13       2.00000          -0.619287          -16.85166
     14       2.00000          -0.603933          -16.43387
     15       2.00000          -0.590268          -16.06201
     16       2.00000          -0.573674          -15.61046
     17       2.00000          -0.547370          -14.89469
     18       2.00000          -0.522810          -14.22638
     19       2.00000          -0.516197          -14.04644
     20       2.00000          -0.508839          -13.84622
     21       2.00000          -0.476493          -12.96603
     22       2.00000          -0.428287          -11.65428
     23       2.00000          -0.403193          -10.97145
     24       2.00000          -0.387439          -10.54276
     25       0.00000          -0.151504           -4.12262
     26       0.00000          -0.058876           -1.60210
     27       0.00000          -0.028335           -0.77102
     28       0.00000          -0.019672           -0.53531
     29       0.00000           0.005992            0.16306
     30       0.00000           0.012735            0.34655
     31       0.00000           0.014776            0.40208
     32       0.00000           0.029225            0.79525
     33       0.00000           0.047783            1.30025
     34       0.00000           0.054942            1.49505
     35       0.00000           0.079613            2.16638
     36       0.00000           0.133520            3.63325
     37       0.00000           0.153206            4.16896
     38       0.00000           0.199017            5.41553
     39       0.00000           0.212627            5.78589
     40       0.00000           0.221340            6.02296
     41       0.00000           0.263191            7.16180
     42       0.00000           0.278825            7.58723
     43       0.00000           0.294976            8.02671
     44       0.00000           0.297548            8.09670
     45       0.00000           0.334944            9.11429
     46       0.00000           0.351526            9.56551
     47       0.00000           0.380301           10.34851
     48       0.00000           0.422151           11.48732
     49       0.00000           0.449001           12.21795
     50       0.00000           0.469127           12.76561
     51       0.00000           0.483597           13.15935
     52       0.00000           0.530749           14.44242
     53       0.00000           0.594967           16.18987

  Highest occupied state (VBM) at    -10.54276116 eV
  | Occupation number:      2.00000000

  Lowest unoccupied state (CBM) at    -4.12262349 eV
  | Occupation number:      0.00000000

  Overall HOMO-LUMO gap:      6.42013766 eV.
  Calculating total energy contributions from superposition of free atom densities.

  Total energy components:
  | Sum of eigenvalues            :        -188.84605851 Ha       -5138.76270943 eV
  | XC energy correction          :         -41.78565763 Ha       -1137.04559626 eV
  | XC potential correction       :          53.71570506 Ha        1461.67870415 eV
  | Free-atom electrostatic energy:        -146.85585465 Ha       -3996.15112697 eV
  | Hartree energy correction     :           0.00000000 Ha           0.00000000 eV
  | vdW energy correction         :           0.00000000 Ha           0.00000000 eV
  | Entropy correction            :           0.00000000 Ha           0.00000000 eV
  | ---------------------------
  | Total energy                  :        -323.77186572 Ha       -8810.28072851 eV
  | Total energy, T -> 0          :        -323.77186572 Ha       -8810.28072851 eV  <-- do not rely on this value for anything but (periodic) metals
  | Electronic free energy        :        -323.77186572 Ha       -8810.28072851 eV

  Derived energy quantities:
  | Kinetic energy                :         320.47918304 Ha        8720.68227392 eV
  | Electrostatic energy          :        -602.46539114 Ha      -16393.91740617 eV
  | Energy correction for multipole
  | error in Hartree potential    :           0.00000000 Ha           0.00000000 eV
  | Sum of eigenvalues per atom                           :        -395.28943919 eV
  | Total energy (T->0) per atom                          :        -677.71390219 eV  <-- do not rely on this value for anything but (periodic) metals
  | Electronic free energy per atom                       :        -677.71390219 eV
  Initialize hartree_potential_storage
  Max. number of atoms included in rho_multipole:           13

  End scf initialization - timings             :  max(cpu_time)    wall_clock(cpu1)
  | Time for scf. initialization               :        1.147 s           1.149 s
  | Boundary condition initialization          :        0.000 s           0.000 s
  | Integration                                :        0.702 s           0.703 s
  | Solution of K.-S. eqns.                    :        0.004 s           0.004 s
  | Grid partitioning                          :        0.112 s           0.113 s
  | Preloading free-atom quantities on grid    :        0.002 s           0.003 s
  | Free-atom superposition energy             :        0.085 s           0.085 s
  | Total energy evaluation                    :        0.000 s           0.000 s

  Partial memory accounting:
  | Current value for overall tracked memory usage on task 0  :           0.165 MB
  | Peak value for overall tracked memory usage on task 0     :           0.678 MB after allocating wave
  | Largest tracked array allocation on task 0 so far         :           0.132 MB  when allocating H_times_psi
  Note:  These values currently only include a subset of arrays which are explicitly tracked.
  The "true" memory usage will be greater.
------------------------------------------------------------

------------------------------------------------------------
          Begin self-consistency iteration #    1

  Date     :  20200710, Time     :  143529.889
------------------------------------------------------------
  Evaluating new KS density.
  Integration grid: deviation in total charge (<rho> - N_e) =   7.105427E-15
  Pulay mixing of updated and previous charge densities.

  Evaluating partitioned Hartree potential by multipole expansion.
  | Analytical far-field extrapolation by fixed multipoles:
  | Hartree multipole sum: apparent total charge =  -0.225433E-03
  Summing up the Hartree potential.
  Time summed over all CPUs for potential: real work        0.281 s, elapsed        0.281 s
  | RMS charge density error from multipole expansion :   0.587360E-02

  Integrating Hamiltonian matrix: batch-based integration.
  Time summed over all CPUs for integration: real work        0.492 s, elapsed        0.492 s

  Updating Kohn-Sham eigenvalues and eigenvectors using ELSI and the ELPA eigensolver.
  Finished Cholesky decomposition
  | Time :     0.000 s
  Finished transformation to standard eigenproblem
  | Time :     0.000 s
  Starting LAPACK eigensolver
  Finished solving standard eigenproblem
  | Time :     0.001 s
  Finished back-transformation of eigenvectors
  | Time :     0.000 s

  Obtaining occupation numbers and chemical potential using ELSI.
  | Chemical potential (Fermi level):    -7.68423283eV
  Writing Kohn-Sham eigenvalues.

  State    Occupation    Eigenvalue [Ha]    Eigenvalue [eV]
      1       2.00000         -18.905568         -514.44667
      2       2.00000         -18.838846         -512.63109
      3       2.00000         -14.094167         -383.52179
      4       2.00000         -10.115702         -275.26225
      5       2.00000         -10.061679         -273.79221
      6       2.00000         -10.029684         -272.92158
      7       2.00000          -1.138937          -30.99206
      8       2.00000          -1.031285          -28.06270
      9       2.00000          -0.920132          -25.03806
     10       2.00000          -0.794075          -21.60789
     11       2.00000          -0.710453          -19.33240
     12       2.00000          -0.630398          -17.15401
     13       2.00000          -0.561092          -15.26809
     14       2.00000          -0.538865          -14.66326
     15       2.00000          -0.537717          -14.63202
     16       2.00000          -0.512598          -13.94849
     17       2.00000          -0.489951          -13.33225
     18       2.00000          -0.463983          -12.62561
     19       2.00000          -0.453516          -12.34079
     20       2.00000          -0.443625          -12.07164
     21       2.00000          -0.422246          -11.48989
     22       2.00000          -0.368184          -10.01880
     23       2.00000          -0.332345           -9.04356
     24       2.00000          -0.313322           -8.52592
     25       0.00000          -0.114818           -3.12435
     26       0.00000          -0.033039           -0.89904
     27       0.00000          -0.000365           -0.00994
     28       0.00000           0.016670            0.45363
     29       0.00000           0.040881            1.11242
     30       0.00000           0.045288            1.23234
     31       0.00000           0.058042            1.57939
     32       0.00000           0.067866            1.84672
     33       0.00000           0.091835            2.49896
     34       0.00000           0.094557            2.57304
     35       0.00000           0.121120            3.29583
     36       0.00000           0.160616            4.37057
     37       0.00000           0.178941            4.86922
     38       0.00000           0.227790            6.19848
     39       0.00000           0.243595            6.62856
     40       0.00000           0.261416            7.11350
     41       0.00000           0.297891            8.10604
     42       0.00000           0.312720            8.50955
     43       0.00000           0.329375            8.96274
     44       0.00000           0.340301            9.26007
     45       0.00000           0.372948           10.14844
     46       0.00000           0.393422           10.70555
     47       0.00000           0.416528           11.33431
     48       0.00000           0.459571           12.50556
     49       0.00000           0.490178           13.33844
     50       0.00000           0.507645           13.81372
     51       0.00000           0.515855           14.03713
     52       0.00000           0.565928           15.39968
     53       0.00000           0.633504           17.23851

  Highest occupied state (VBM) at     -8.52591668 eV
  | Occupation number:      2.00000000

  Lowest unoccupied state (CBM) at    -3.12435058 eV
  | Occupation number:      0.00000000

  Overall HOMO-LUMO gap:      5.40156610 eV.

  Total energy components:
  | Sum of eigenvalues            :        -185.41673450 Ha       -5045.44605511 eV
  | XC energy correction          :         -42.11405914 Ha       -1145.98185600 eV
  | XC potential correction       :          54.14283310 Ha        1473.30144941 eV
  | Free-atom electrostatic energy:        -146.85585465 Ha       -3996.15112697 eV
  | Hartree energy correction     :          -3.34760020 Ha         -91.09283610 eV
  | vdW energy correction         :           0.00000000 Ha           0.00000000 eV
  | Entropy correction            :           0.00000000 Ha           0.00000000 eV
  | ---------------------------
  | Total energy                  :        -323.59141538 Ha       -8805.37042477 eV
  | Total energy, T -> 0          :        -323.59141538 Ha       -8805.37042477 eV  <-- do not rely on this value for anything but (periodic) metals
  | Electronic free energy        :        -323.59141538 Ha       -8805.37042477 eV

  Derived energy quantities:
  | Kinetic energy                :         322.26605082 Ha        8769.30542021 eV
  | Electrostatic energy          :        -603.74340706 Ha      -16428.69398898 eV
  | Energy correction for multipole
  | error in Hartree potential    :           0.01202633 Ha           0.32725304 eV
  | Sum of eigenvalues per atom                           :        -388.11123501 eV
  | Total energy (T->0) per atom                          :        -677.33618652 eV  <-- do not rely on this value for anything but (periodic) metals
  | Electronic free energy per atom                       :        -677.33618652 eV

  Self-consistency convergence accuracy:
  | Change of charge density      :  0.5820E+00
  | Change of sum of eigenvalues  :  0.9332E+02 eV
  | Change of total energy        :  0.4910E+01 eV

  End self-consistency iteration #     1       :  max(cpu_time)    wall_clock(cpu1)
  | Time for this iteration                    :        1.181 s           1.182 s
  | Charge density update                      :        0.391 s           0.391 s
  | Density mixing                             :        0.005 s           0.006 s
  | Hartree multipole update                   :        0.009 s           0.008 s
  | Hartree multipole summation                :        0.282 s           0.283 s
  | Integration                                :        0.492 s           0.492 s
  | Solution of K.-S. eqns.                    :        0.002 s           0.002 s
  | Total energy evaluation                    :        0.000 s           0.000 s

  Partial memory accounting:
  | Current value for overall tracked memory usage on task 0  :           0.165 MB
  | Peak value for overall tracked memory usage on task 0     :           0.695 MB after allocating gradient_basis_wave
  | Largest tracked array allocation on task 0 so far         :           0.397 MB  when allocating gradient_basis_wave
  Note:  These values currently only include a subset of arrays which are explicitly tracked.
  The "true" memory usage will be greater.
------------------------------------------------------------

------------------------------------------------------------
          Begin self-consistency iteration #    2

  Date     :  20200710, Time     :  143531.072
------------------------------------------------------------
  Evaluating new KS density.
  Integration grid: deviation in total charge (<rho> - N_e) =   5.684342E-14
  Pulay mixing of updated and previous charge densities.

  Evaluating partitioned Hartree potential by multipole expansion.
  | Analytical far-field extrapolation by fixed multipoles:
  | Hartree multipole sum: apparent total charge =  -0.367739E-03
  Summing up the Hartree potential.
  Time summed over all CPUs for potential: real work        0.281 s, elapsed        0.281 s
  | RMS charge density error from multipole expansion :   0.140575E-01

  Integrating Hamiltonian matrix: batch-based integration.
  Time summed over all CPUs for integration: real work        0.492 s, elapsed        0.492 s

  Updating Kohn-Sham eigenvalues and eigenvectors using ELSI and the ELPA eigensolver.
  Finished Cholesky decomposition
  | Time :     0.000 s
  Finished transformation to standard eigenproblem
  | Time :     0.000 s
  Starting LAPACK eigensolver
  Finished solving standard eigenproblem
  | Time :     0.002 s
  Finished back-transformation of eigenvectors
  | Time :     0.000 s

  Obtaining occupation numbers and chemical potential using ELSI.
  | Chemical potential (Fermi level):    -6.38648271eV
  Highest occupied state (VBM) at     -6.45265222 eV
  | Occupation number:      2.00000000

  Lowest unoccupied state (CBM) at    -1.85106565 eV
  | Occupation number:      0.00000000

  Overall HOMO-LUMO gap:      4.60158657 eV.

  Checking to see if s.c.f. parameters should be adjusted.

  Total energy components:
  | Sum of eigenvalues            :        -181.79685016 Ha       -4946.94399055 eV
  | XC energy correction          :         -42.47653489 Ha       -1155.84532312 eV
  | XC potential correction       :          54.61272899 Ha        1486.08796719 eV
  | Free-atom electrostatic energy:        -146.85585465 Ha       -3996.15112697 eV
  | Hartree energy correction     :          -6.99743307 Ha        -190.40984175 eV
  | vdW energy correction         :           0.00000000 Ha           0.00000000 eV
  | Entropy correction            :          -0.00000000 Ha          -0.00000000 eV
  | ---------------------------
  | Total energy                  :        -323.51394378 Ha       -8803.26231521 eV
  | Total energy, T -> 0          :        -323.51394378 Ha       -8803.26231521 eV  <-- do not rely on this value for anything but (periodic) metals
  | Electronic free energy        :        -323.51394378 Ha       -8803.26231521 eV

  Derived energy quantities:
  | Kinetic energy                :         323.59255629 Ha        8805.40147054 eV
  | Electrostatic energy          :        -604.62996518 Ha      -16452.81846263 eV
  | Energy correction for multipole
  | error in Hartree potential    :           0.02681254 Ha           0.72960638 eV
  | Sum of eigenvalues per atom                           :        -380.53415312 eV
  | Total energy (T->0) per atom                          :        -677.17402425 eV  <-- do not rely on this value for anything but (periodic) metals
  | Electronic free energy per atom                       :        -677.17402425 eV

  Self-consistency convergence accuracy:
  | Change of charge density      :  0.3631E+00
  | Change of sum of eigenvalues  :  0.9850E+02 eV
  | Change of total energy        :  0.2108E+01 eV

  End self-consistency iteration #     2       :  max(cpu_time)    wall_clock(cpu1)
  | Time for this iteration                    :        1.173 s           1.174 s
  | Charge density update                      :        0.382 s           0.382 s
  | Density mixing                             :        0.007 s           0.007 s
  | Hartree multipole update                   :        0.009 s           0.009 s
  | Hartree multipole summation                :        0.281 s           0.281 s
  | Integration                                :        0.492 s           0.492 s
  | Solution of K.-S. eqns.                    :        0.002 s           0.002 s
  | Total energy evaluation                    :        0.000 s           0.001 s

  Partial memory accounting:
  | Current value for overall tracked memory usage on task 0  :           0.166 MB
  | Peak value for overall tracked memory usage on task 0     :           0.695 MB after allocating gradient_basis_wave
  | Largest tracked array allocation on task 0 so far         :           0.397 MB  when allocating gradient_basis_wave
  Note:  These values currently only include a subset of arrays which are explicitly tracked.
  The "true" memory usage will be greater.
------------------------------------------------------------

------------------------------------------------------------
          Begin self-consistency iteration #    3

  Date     :  20200710, Time     :  143532.248
------------------------------------------------------------
  Evaluating new KS density.
  Integration grid: deviation in total charge (<rho> - N_e) =  -2.842171E-14
  Pulay mixing of updated and previous charge densities.

  Evaluating partitioned Hartree potential by multipole expansion.
  | Analytical far-field extrapolation by fixed multipoles:
  | Hartree multipole sum: apparent total charge =  -0.468749E-03
  Summing up the Hartree potential.
  Time summed over all CPUs for potential: real work        0.282 s, elapsed        0.282 s
  | RMS charge density error from multipole expansion :   0.224559E-01

  Integrating Hamiltonian matrix: batch-based integration.
  Time summed over all CPUs for integration: real work        0.492 s, elapsed        0.492 s

  Updating Kohn-Sham eigenvalues and eigenvectors using ELSI and the ELPA eigensolver.
  Finished Cholesky decomposition
  | Time :     0.000 s
  Finished transformation to standard eigenproblem
  | Time :     0.000 s
  Starting LAPACK eigensolver
  Finished solving standard eigenproblem
  | Time :     0.001 s
  Finished back-transformation of eigenvectors
  | Time :     0.000 s

  Obtaining occupation numbers and chemical potential using ELSI.
  | Chemical potential (Fermi level):    -1.59681416eV
  Highest occupied state (VBM) at     -5.78955660 eV
  | Occupation number:      2.00000000

  Lowest unoccupied state (CBM) at    -1.14893524 eV
  | Occupation number:      0.00000000

  Overall HOMO-LUMO gap:      4.64062137 eV.

  Total energy components:
  | Sum of eigenvalues            :        -180.53082089 Ha       -4912.49358129 eV
  | XC energy correction          :         -42.62559362 Ha       -1159.90141765 eV
  | XC potential correction       :          54.80257768 Ha        1491.25401283 eV
  | Free-atom electrostatic energy:        -146.85585465 Ha       -3996.15112697 eV
  | Hartree energy correction     :          -8.29194139 Ha        -225.63520533 eV
  | vdW energy correction         :           0.00000000 Ha           0.00000000 eV
  | Entropy correction            :           0.00000000 Ha           0.00000000 eV
  | ---------------------------
  | Total energy                  :        -323.50163287 Ha       -8802.92731841 eV
  | Total energy, T -> 0          :        -323.50163287 Ha       -8802.92731841 eV  <-- do not rely on this value for anything but (periodic) metals
  | Electronic free energy        :        -323.50163287 Ha       -8802.92731841 eV

  Derived energy quantities:
  | Kinetic energy                :         323.11966474 Ha        8792.53343681 eV
  | Electrostatic energy          :        -603.99570399 Ha      -16435.55933757 eV
  | Energy correction for multipole
  | error in Hartree potential    :           0.03856849 Ha           1.04950196 eV
  | Sum of eigenvalues per atom                           :        -377.88412164 eV
  | Total energy (T->0) per atom                          :        -677.14825526 eV  <-- do not rely on this value for anything but (periodic) metals
  | Electronic free energy per atom                       :        -677.14825526 eV

  Self-consistency convergence accuracy:
  | Change of charge density      :  0.2016E+00
  | Change of sum of eigenvalues  :  0.3445E+02 eV
  | Change of total energy        :  0.3350E+00 eV

  End self-consistency iteration #     3       :  max(cpu_time)    wall_clock(cpu1)
  | Time for this iteration                    :        1.176 s           1.177 s
  | Charge density update                      :        0.383 s           0.383 s
  | Density mixing                             :        0.008 s           0.008 s
  | Hartree multipole update                   :        0.009 s           0.009 s
  | Hartree multipole summation                :        0.282 s           0.282 s
  | Integration                                :        0.492 s           0.492 s
  | Solution of K.-S. eqns.                    :        0.002 s           0.002 s
  | Total energy evaluation                    :        0.000 s           0.000 s

  Partial memory accounting:
  | Current value for overall tracked memory usage on task 0  :           0.166 MB
  | Peak value for overall tracked memory usage on task 0     :           0.695 MB after allocating gradient_basis_wave
  | Largest tracked array allocation on task 0 so far         :           0.397 MB  when allocating gradient_basis_wave
  Note:  These values currently only include a subset of arrays which are explicitly tracked.
  The "true" memory usage will be greater.
------------------------------------------------------------

------------------------------------------------------------
          Begin self-consistency iteration #    4

  Date     :  20200710, Time     :  143533.425
------------------------------------------------------------
  Evaluating new KS density.
  Integration grid: deviation in total charge (<rho> - N_e) =   3.552714E-14
  Pulay mixing of updated and previous charge densities.

  Evaluating partitioned Hartree potential by multipole expansion.
  | Analytical far-field extrapolation by fixed multipoles:
  | Hartree multipole sum: apparent total charge =  -0.499536E-03
  Summing up the Hartree potential.
  Time summed over all CPUs for potential: real work        0.282 s, elapsed        0.282 s
  | RMS charge density error from multipole expansion :   0.256458E-01

  Integrating Hamiltonian matrix: batch-based integration.
  Time summed over all CPUs for integration: real work        0.492 s, elapsed        0.492 s

  Updating Kohn-Sham eigenvalues and eigenvectors using ELSI and the ELPA eigensolver.
  Finished Cholesky decomposition
  | Time :     0.000 s
  Finished transformation to standard eigenproblem
  | Time :     0.000 s
  Starting LAPACK eigensolver
  Finished solving standard eigenproblem
  | Time :     0.002 s
  Finished back-transformation of eigenvectors
  | Time :     0.000 s

  Obtaining occupation numbers and chemical potential using ELSI.
  | Chemical potential (Fermi level):    -1.49896541eV
  Highest occupied state (VBM) at     -5.61312174 eV
  | Occupation number:      2.00000000

  Lowest unoccupied state (CBM) at    -1.07725003 eV
  | Occupation number:      0.00000000

  Overall HOMO-LUMO gap:      4.53587171 eV.

  Total energy components:
  | Sum of eigenvalues            :        -180.37779397 Ha       -4908.32950685 eV
  | XC energy correction          :         -42.66210747 Ha       -1160.89500983 eV
  | XC potential correction       :          54.84865662 Ha        1492.50788467 eV
  | Free-atom electrostatic energy:        -146.85585465 Ha       -3996.15112697 eV
  | Hartree energy correction     :          -8.45380596 Ha        -230.03976437 eV
  | vdW energy correction         :           0.00000000 Ha           0.00000000 eV
  | Entropy correction            :           0.00000000 Ha           0.00000000 eV
  | ---------------------------
  | Total energy                  :        -323.50090542 Ha       -8802.90752336 eV
  | Total energy, T -> 0          :        -323.50090542 Ha       -8802.90752336 eV  <-- do not rely on this value for anything but (periodic) metals
  | Electronic free energy        :        -323.50090542 Ha       -8802.90752336 eV

  Derived energy quantities:
  | Kinetic energy                :         322.78159079 Ha        8783.33397650 eV
  | Electrostatic energy          :        -603.62038874 Ha      -16425.34649002 eV
  | Energy correction for multipole
  | error in Hartree potential    :           0.04264674 Ha           1.16047690 eV
  | Sum of eigenvalues per atom                           :        -377.56380822 eV
  | Total energy (T->0) per atom                          :        -677.14673257 eV  <-- do not rely on this value for anything but (periodic) metals
  | Electronic free energy per atom                       :        -677.14673257 eV

  Self-consistency convergence accuracy:
  | Change of charge density      :  0.5871E-01
  | Change of sum of eigenvalues  :  0.4164E+01 eV
  | Change of total energy        :  0.1980E-01 eV

  End self-consistency iteration #     4       :  max(cpu_time)    wall_clock(cpu1)
  | Time for this iteration                    :        1.178 s           1.179 s
  | Charge density update                      :        0.384 s           0.385 s
  | Density mixing                             :        0.009 s           0.009 s
  | Hartree multipole update                   :        0.009 s           0.009 s
  | Hartree multipole summation                :        0.282 s           0.282 s
  | Integration                                :        0.492 s           0.492 s
  | Solution of K.-S. eqns.                    :        0.002 s           0.002 s
  | Total energy evaluation                    :        0.000 s           0.000 s

  Partial memory accounting:
  | Current value for overall tracked memory usage on task 0  :           0.166 MB
  | Peak value for overall tracked memory usage on task 0     :           0.696 MB after allocating gradient_basis_wave
  | Largest tracked array allocation on task 0 so far         :           0.397 MB  when allocating gradient_basis_wave
  Note:  These values currently only include a subset of arrays which are explicitly tracked.
  The "true" memory usage will be greater.
------------------------------------------------------------

------------------------------------------------------------
          Begin self-consistency iteration #    5

  Date     :  20200710, Time     :  143534.605
------------------------------------------------------------
  Evaluating new KS density.
  Integration grid: deviation in total charge (<rho> - N_e) =   7.105427E-15
  Pulay mixing of updated and previous charge densities.

  Evaluating partitioned Hartree potential by multipole expansion.
  | Analytical far-field extrapolation by fixed multipoles:
  | Hartree multipole sum: apparent total charge =  -0.493370E-03
  Summing up the Hartree potential.
  Time summed over all CPUs for potential: real work        0.281 s, elapsed        0.281 s
  | RMS charge density error from multipole expansion :   0.253975E-01

  Integrating Hamiltonian matrix: batch-based integration.
  Time summed over all CPUs for integration: real work        0.492 s, elapsed        0.492 s

  Updating Kohn-Sham eigenvalues and eigenvectors using ELSI and the ELPA eigensolver.
  Finished Cholesky decomposition
  | Time :     0.000 s
  Finished transformation to standard eigenproblem
  | Time :     0.000 s
  Starting LAPACK eigensolver
  Finished solving standard eigenproblem
  | Time :     0.001 s
  Finished back-transformation of eigenvectors
  | Time :     0.000 s

  Obtaining occupation numbers and chemical potential using ELSI.
  | Chemical potential (Fermi level):    -1.55543791eV
  Highest occupied state (VBM) at     -5.68655614 eV
  | Occupation number:      2.00000000

  Lowest unoccupied state (CBM) at    -1.15808944 eV
  | Occupation number:      0.00000000

  Overall HOMO-LUMO gap:      4.52846671 eV.

  Total energy components:
  | Sum of eigenvalues            :        -180.56229355 Ha       -4913.34999595 eV
  | XC energy correction          :         -42.63955364 Ha       -1160.28128889 eV
  | XC potential correction       :          54.81940655 Ha        1491.71194973 eV
  | Free-atom electrostatic energy:        -146.85585465 Ha       -3996.15112697 eV
  | Hartree energy correction     :          -8.26231180 Ha        -224.82894334 eV
  | vdW energy correction         :           0.00000000 Ha           0.00000000 eV
  | Entropy correction            :           0.00000000 Ha           0.00000000 eV
  | ---------------------------
  | Total energy                  :        -323.50060709 Ha       -8802.89940542 eV
  | Total energy, T -> 0          :        -323.50060709 Ha       -8802.89940542 eV  <-- do not rely on this value for anything but (periodic) metals
  | Electronic free energy        :        -323.50060709 Ha       -8802.89940542 eV

  Derived energy quantities:
  | Kinetic energy                :         322.68101978 Ha        8780.59729996 eV
  | Electrostatic energy          :        -603.54207323 Ha      -16423.21541649 eV
  | Energy correction for multipole
  | error in Hartree potential    :           0.04205109 Ha           1.14426849 eV
  | Sum of eigenvalues per atom                           :        -377.94999969 eV
  | Total energy (T->0) per atom                          :        -677.14610811 eV  <-- do not rely on this value for anything but (periodic) metals
  | Electronic free energy per atom                       :        -677.14610811 eV

  Self-consistency convergence accuracy:
  | Change of charge density      :  0.2053E-01
  | Change of sum of eigenvalues  : -0.5020E+01 eV
  | Change of total energy        :  0.8118E-02 eV

  End self-consistency iteration #     5       :  max(cpu_time)    wall_clock(cpu1)
  | Time for this iteration                    :        1.180 s           1.181 s
  | Charge density update                      :        0.385 s           0.385 s
  | Density mixing                             :        0.011 s           0.011 s
  | Hartree multipole update                   :        0.009 s           0.009 s
  | Hartree multipole summation                :        0.282 s           0.282 s
  | Integration                                :        0.492 s           0.492 s
  | Solution of K.-S. eqns.                    :        0.002 s           0.002 s
  | Total energy evaluation                    :        0.000 s           0.000 s

  Partial memory accounting:
  | Current value for overall tracked memory usage on task 0  :           0.166 MB
  | Peak value for overall tracked memory usage on task 0     :           0.696 MB after allocating gradient_basis_wave
  | Largest tracked array allocation on task 0 so far         :           0.397 MB  when allocating gradient_basis_wave
  Note:  These values currently only include a subset of arrays which are explicitly tracked.
  The "true" memory usage will be greater.
------------------------------------------------------------

------------------------------------------------------------
          Begin self-consistency iteration #    6

  Date     :  20200710, Time     :  143535.787
------------------------------------------------------------
  Evaluating new KS density.
  Integration grid: deviation in total charge (<rho> - N_e) =   7.105427E-14
  Pulay mixing of updated and previous charge densities.

  Evaluating partitioned Hartree potential by multipole expansion.
  | Analytical far-field extrapolation by fixed multipoles:
  | Hartree multipole sum: apparent total charge =  -0.495724E-03
  Summing up the Hartree potential.
  Time summed over all CPUs for potential: real work        0.282 s, elapsed        0.282 s
  | RMS charge density error from multipole expansion :   0.257689E-01

  Integrating Hamiltonian matrix: batch-based integration.
  Time summed over all CPUs for integration: real work        0.493 s, elapsed        0.493 s

  Updating Kohn-Sham eigenvalues and eigenvectors using ELSI and the ELPA eigensolver.
  Finished Cholesky decomposition
  | Time :     0.000 s
  Finished transformation to standard eigenproblem
  | Time :     0.000 s
  Starting LAPACK eigensolver
  Finished solving standard eigenproblem
  | Time :     0.001 s
  Finished back-transformation of eigenvectors
  | Time :     0.000 s

  Obtaining occupation numbers and chemical potential using ELSI.
  | Chemical potential (Fermi level):    -1.55813281eV
  Highest occupied state (VBM) at     -5.66270926 eV
  | Occupation number:      2.00000000

  Lowest unoccupied state (CBM) at    -1.18078704 eV
  | Occupation number:      0.00000000

  Overall HOMO-LUMO gap:      4.48192222 eV.

  Total energy components:
  | Sum of eigenvalues            :        -180.58797248 Ha       -4914.04875523 eV
  | XC energy correction          :         -42.63524785 Ha       -1160.16412262 eV
  | XC potential correction       :          54.81380513 Ha        1491.55952742 eV
  | Free-atom electrostatic energy:        -146.85585465 Ha       -3996.15112697 eV
  | Hartree energy correction     :          -8.23528107 Ha        -224.09339956 eV
  | vdW energy correction         :           0.00000000 Ha           0.00000000 eV
  | Entropy correction            :           0.00000000 Ha           0.00000000 eV
  | ---------------------------
  | Total energy                  :        -323.50055092 Ha       -8802.89787696 eV
  | Total energy, T -> 0          :        -323.50055092 Ha       -8802.89787696 eV  <-- do not rely on this value for anything but (periodic) metals
  | Electronic free energy        :        -323.50055092 Ha       -8802.89787696 eV

  Derived energy quantities:
  | Kinetic energy                :         322.59242947 Ha        8778.18663523 eV
  | Electrostatic energy          :        -603.45773254 Ha      -16420.92038956 eV
  | Energy correction for multipole
  | error in Hartree potential    :           0.04234721 Ha           1.15232614 eV
  | Sum of eigenvalues per atom                           :        -378.00375040 eV
  | Total energy (T->0) per atom                          :        -677.14599054 eV  <-- do not rely on this value for anything but (periodic) metals
  | Electronic free energy per atom                       :        -677.14599054 eV

  Self-consistency convergence accuracy:
  | Change of charge density      :  0.1040E-01
  | Change of sum of eigenvalues  : -0.6988E+00 eV
  | Change of total energy        :  0.1528E-02 eV

  End self-consistency iteration #     6       :  max(cpu_time)    wall_clock(cpu1)
  | Time for this iteration                    :        1.181 s           1.183 s
  | Charge density update                      :        0.384 s           0.384 s
  | Density mixing                             :        0.012 s           0.012 s
  | Hartree multipole update                   :        0.009 s           0.009 s
  | Hartree multipole summation                :        0.282 s           0.282 s
  | Integration                                :        0.493 s           0.493 s
  | Solution of K.-S. eqns.                    :        0.002 s           0.002 s
  | Total energy evaluation                    :        0.000 s           0.001 s

  Partial memory accounting:
  | Current value for overall tracked memory usage on task 0  :           0.166 MB
  | Peak value for overall tracked memory usage on task 0     :           0.696 MB after allocating gradient_basis_wave
  | Largest tracked array allocation on task 0 so far         :           0.397 MB  when allocating gradient_basis_wave
  Note:  These values currently only include a subset of arrays which are explicitly tracked.
  The "true" memory usage will be greater.
------------------------------------------------------------

------------------------------------------------------------
          Begin self-consistency iteration #    7

  Date     :  20200710, Time     :  143536.970
------------------------------------------------------------
  Evaluating new KS density.
  Integration grid: deviation in total charge (<rho> - N_e) =   2.131628E-14
  Pulay mixing of updated and previous charge densities.

  Evaluating partitioned Hartree potential by multipole expansion.
  | Analytical far-field extrapolation by fixed multipoles:
  | Hartree multipole sum: apparent total charge =  -0.497026E-03
  Summing up the Hartree potential.
  Time summed over all CPUs for potential: real work        0.281 s, elapsed        0.281 s
  | RMS charge density error from multipole expansion :   0.259299E-01

  Integrating Hamiltonian matrix: batch-based integration.
  Time summed over all CPUs for integration: real work        0.492 s, elapsed        0.492 s

  Updating Kohn-Sham eigenvalues and eigenvectors using ELSI and the ELPA eigensolver.
  Finished Cholesky decomposition
  | Time :     0.000 s
  Finished transformation to standard eigenproblem
  | Time :     0.000 s
  Starting LAPACK eigensolver
  Finished solving standard eigenproblem
  | Time :     0.001 s
  Finished back-transformation of eigenvectors
  | Time :     0.000 s

[...]
  |   Hirshfeld dipole moment :      0.06408038
  |   Hirshfeld second moments:      0.01293928      -0.01603547      -0.01380461
  |                                 -0.01603547      -0.01277648       0.00551094
  |                                 -0.01380461       0.00551094      -0.02225695
  ----------------------------------------------------------------------
  | Atom    12: O
  |   Hirshfeld charge        :     -0.13865896
  |   Free atom volume        :     23.61338643
  |   Hirshfeld volume        :     20.67339397
  |   Hirshfeld dipole vector :      0.01089042       0.00644235       0.03526439
  |   Hirshfeld dipole moment :      0.03746575
  |   Hirshfeld second moments:      0.07484570       0.02194178      -0.02815898
  |                                  0.02194178       0.07472174      -0.01282673
  |                                 -0.02815898      -0.01282673       0.04552958
  ----------------------------------------------------------------------
  | Atom    13: H
  |   Hirshfeld charge        :      0.17536484
  |   Free atom volume        :      9.95071624
  |   Hirshfeld volume        :      6.33621450
  |   Hirshfeld dipole vector :     -0.07296619      -0.06321179       0.06548511
  |   Hirshfeld dipole moment :      0.11665374
  |   Hirshfeld second moments:      0.11730294       0.00175905      -0.01379568
  |                                  0.00175905       0.12337827       0.00046154
  |                                 -0.01379568       0.00046154       0.08630391
  ----------------------------------------------------------------------


  Total energy components:
  | Sum of eigenvalues            :        -180.57809211 Ha       -4913.77989666 eV
  | XC energy correction          :         -42.63302495 Ha       -1160.10363421 eV
  | XC potential correction       :          54.81100419 Ha        1491.48330998 eV
  | Free-atom electrostatic energy:        -146.85585465 Ha       -3996.15112697 eV
  | Hartree energy correction     :          -8.24456466 Ha        -224.34601888 eV
  | vdW energy correction         :          -0.00309101 Ha          -0.08411074 eV
  | Entropy correction            :           0.00000000 Ha           0.00000000 eV
  | ---------------------------
  | Total energy                  :        -323.50362318 Ha       -8802.98147749 eV
  | Total energy, T -> 0          :        -323.50362318 Ha       -8802.98147749 eV  <-- do not rely on this value for anything but (periodic) metals
  | Electronic free energy        :        -323.50362318 Ha       -8802.98147749 eV

  Derived energy quantities:
  | Kinetic energy                :         322.55323255 Ha        8777.12003263 eV
  | Electrostatic energy          :        -603.42073977 Ha      -16419.91376517 eV
  | Energy correction for multipole
  | error in Hartree potential    :           0.04247943 Ha           1.15592406 eV
  | Sum of eigenvalues per atom                           :        -377.98306897 eV
  | Total energy (T->0) per atom                          :        -677.15242135 eV  <-- do not rely on this value for anything but (periodic) metals
  | Electronic free energy per atom                       :        -677.15242135 eV

  atomic forces [eV/Ang]:
  -----------------------
  atom #    1
   Hellmann-Feynman              :  0.132583E+01  0.291153E-01  0.498417E+00
   Ionic forces                  :  0.000000E+00  0.000000E+00  0.000000E+00
   Multipole                     :  0.182702E+00  0.339833E+00 -0.306184E+00
   Pulay + GGA                   : -0.157557E+01 -0.390782E+00 -0.927554E+00
   Van der Waals                 :  0.200596E-02  0.145865E-02 -0.158923E-02
   ----------------------------------------------------------------
   Total forces(   1)            : -0.650327E-01 -0.203757E-01 -0.736910E+00
  atom #    2
   Hellmann-Feynman              :  0.460040E+00 -0.618256E-02  0.413678E+00
   Ionic forces                  :  0.000000E+00  0.000000E+00  0.000000E+00
   Multipole                     :  0.147626E+00  0.224810E-01 -0.449962E-01
   Pulay + GGA                   : -0.116978E+00  0.606583E-02  0.446352E-02
   Van der Waals                 :  0.872193E-02 -0.373158E-02 -0.113627E-02
   ----------------------------------------------------------------
   Total forces(   2)            :  0.499411E+00  0.186327E-01  0.372009E+00
  atom #    3
   Hellmann-Feynman              : -0.124048E+02  0.166952E+01  0.868894E+00
   Ionic forces                  :  0.000000E+00  0.000000E+00  0.000000E+00
   Multipole                     : -0.903736E-01  0.138202E+00 -0.882155E+00
   Pulay + GGA                   :  0.121403E+02 -0.180821E+01  0.853765E+00
   Van der Waals                 :  0.256717E-02 -0.764070E-02 -0.616469E-02
   ----------------------------------------------------------------
   Total forces(   3)            : -0.352330E+00 -0.812685E-02  0.834339E+00
  atom #    4
   Hellmann-Feynman              :  0.202434E+00 -0.487652E-01 -0.882600E-01
   Ionic forces                  :  0.000000E+00  0.000000E+00  0.000000E+00
   Multipole                     :  0.383792E-01  0.165073E-01 -0.997325E-01
   Pulay + GGA                   : -0.164866E+00 -0.115092E+00  0.916908E-01
   Van der Waals                 : -0.263248E-02 -0.648371E-02 -0.571392E-02
   ----------------------------------------------------------------
   Total forces(   4)            :  0.733142E-01 -0.153834E+00 -0.102016E+00
  atom #    5
   Hellmann-Feynman              :  0.222829E+00 -0.761922E-01 -0.291486E+00
   Ionic forces                  :  0.000000E+00  0.000000E+00  0.000000E+00
   Multipole                     :  0.290918E-01 -0.574936E-01 -0.100169E+00
   Pulay + GGA                   : -0.153324E+00  0.164372E+00  0.843165E-01
   Van der Waals                 : -0.271360E-02  0.331016E-02 -0.150295E-02
   ----------------------------------------------------------------
   Total forces(   5)            :  0.958831E-01  0.339962E-01 -0.308841E+00
  atom #    6
   Hellmann-Feynman              : -0.307735E+00 -0.738407E+00  0.517593E+00
   Ionic forces                  :  0.000000E+00  0.000000E+00  0.000000E+00
   Multipole                     : -0.121130E+00  0.704513E+00  0.246835E+00
   Pulay + GGA                   :  0.470525E+00 -0.460424E+00 -0.660310E+00
   Van der Waals                 : -0.445175E-02  0.430093E-02  0.100441E-02
   ----------------------------------------------------------------
   Total forces(   6)            :  0.372073E-01 -0.490017E+00  0.105123E+00
  atom #    7
   Hellmann-Feynman              : -0.196041E+00 -0.324888E-01 -0.644838E-01
   Ionic forces                  :  0.000000E+00  0.000000E+00  0.000000E+00
   Multipole                     : -0.123566E+00  0.469209E-01  0.316104E-01
   Pulay + GGA                   :  0.117031E+00 -0.111592E-01 -0.364383E-01
   Van der Waals                 : -0.606020E-03  0.150255E-02  0.238984E-02
   ----------------------------------------------------------------
   Total forces(   7)            : -0.203182E+00  0.477542E-02 -0.669219E-01
  atom #    8
   Hellmann-Feynman              :  0.123783E+00 -0.319205E-01  0.118205E+00
   Ionic forces                  :  0.000000E+00  0.000000E+00  0.000000E+00
   Multipole                     :  0.121629E-01  0.640943E-01  0.127227E+00
   Pulay + GGA                   : -0.410806E-01 -0.385653E-01 -0.926545E-01
   Van der Waals                 : -0.255141E-02  0.114091E-01  0.130105E-02
   ----------------------------------------------------------------
   Total forces(   8)            :  0.923136E-01  0.501760E-02  0.154078E+00
  atom #    9
   Hellmann-Feynman              :  0.122506E+00  0.465898E-01 -0.206294E+00
   Ionic forces                  :  0.000000E+00  0.000000E+00  0.000000E+00
   Multipole                     :  0.170981E-01  0.129299E+00 -0.443561E-02
   Pulay + GGA                   : -0.523626E-01 -0.716821E-01  0.690371E-01
   Van der Waals                 : -0.220867E-02  0.685903E-02  0.861263E-02
   ----------------------------------------------------------------
   Total forces(   9)            :  0.850332E-01  0.111066E+00 -0.133080E+00
  atom #   10
   Hellmann-Feynman              :  0.276520E+01  0.526232E+01  0.304493E+00
   Ionic forces                  :  0.000000E+00  0.000000E+00  0.000000E+00
   Multipole                     :  0.353679E-01 -0.240365E+00  0.262638E+00
   Pulay + GGA                   : -0.139885E+01 -0.294437E+01 -0.240748E+00
   Van der Waals                 :  0.296268E-02 -0.103583E-01 -0.570910E-03
   ----------------------------------------------------------------
   Total forces(  10)            :  0.140468E+01  0.206722E+01  0.325812E+00
  atom #   11
   Hellmann-Feynman              :  0.410569E+01 -0.237709E+01  0.142394E+02
   Ionic forces                  :  0.000000E+00  0.000000E+00  0.000000E+00
   Multipole                     :  0.953578E-01 -0.556183E+00  0.816382E+00
   Pulay + GGA                   : -0.356176E+01  0.358497E+01 -0.134073E+02
   Van der Waals                 : -0.292908E-02 -0.120220E-01  0.143897E-02
   ----------------------------------------------------------------
   Total forces(  11)            :  0.636361E+00  0.639670E+00  0.164995E+01
  atom #   12
   Hellmann-Feynman              : -0.308940E+01 -0.990052E+00 -0.160913E+02
   Ionic forces                  :  0.000000E+00  0.000000E+00  0.000000E+00
   Multipole                     : -0.732802E+00 -0.109388E+01 -0.802980E+00
   Pulay + GGA                   :  0.170241E+01  0.997919E+00  0.148617E+02
   Van der Waals                 : -0.136723E-03  0.557612E-02  0.569920E-02
   ----------------------------------------------------------------
   Total forces(  12)            : -0.211993E+01 -0.108044E+01 -0.202687E+01
  atom #   13
   Hellmann-Feynman              : -0.334613E+00 -0.129318E+01  0.108072E+00
   Ionic forces                  :  0.000000E+00  0.000000E+00  0.000000E+00
   Multipole                     : -0.212906E-01 -0.348115E-01  0.822556E-01
   Pulay + GGA                   :  0.168628E+00  0.191287E+00 -0.254204E+00
   Van der Waals                 :  0.197201E-02  0.581976E-02 -0.376813E-02
   ----------------------------------------------------------------
   Total forces(  13)            : -0.185304E+00 -0.113088E+01 -0.676442E-01

  Timings for VdW correction (Tkatchenko-Scheffler 2009 or later):
  | CPU time:        0.088 s, Wall clock time:        0.089 s.
  Removing unitary transformations (pure translations, rotations) from forces on atoms.
  Atomic forces before filtering:
  | Net force on center of mass :  -0.157744E-02 -0.328656E-02 -0.976348E-03 eV/A
  | Net torque on center of mass:  -0.640018E-02  0.381529E-02  0.108669E-02 eV
  Atomic forces after filtering:
  | Net force on center of mass :  -0.289910E-15  0.000000E+00 -0.111504E-15 eV/A
  | Net torque on center of mass:  -0.132172E-14  0.188817E-15 -0.944085E-16 eV

  Energy and forces in a compact form:
  | Total energy uncorrected      :         -0.880298147749192E+04 eV
  | Total energy corrected        :         -0.880298147749192E+04 eV  <-- do not rely on this value for anything but (periodic) metals
  | Electronic free energy        :         -0.880298147749192E+04 eV
  Total atomic forces (unitary forces cleaned) [eV/Ang]:
  |   1         -0.648869795226407E-01         -0.201182948475388E-01         -0.736761554883007E+00
  |   2          0.499556371488838E+00          0.188501969008950E-01          0.372310216710513E+00
  |   3         -0.351987617475302E+00         -0.765922123508826E-02          0.834420446867493E+00
  |   4          0.737550228211820E-01         -0.153314048698565E+00         -0.101765307859298E+00
  |   5          0.962507228978483E-01          0.345129785829019E-01         -0.308854470345773E+00
  |   6          0.372973665798189E-01         -0.489841092080039E+00          0.105374460594666E+00
  |   7         -0.203092840920788E+00          0.498915997050004E-02         -0.668187470873608E-01
  |   8          0.922602918507566E-01          0.503974249681708E-02          0.154382242040515E+00
  |   9          0.852265497005599E-01          0.111297888912324E+00         -0.132654742525391E+00
  |  10          0.140467778168176E+01          0.206739485975028E+01          0.325730171544739E+00
  |  11          0.636186655506259E+00          0.639674461539111E+00          0.164986624337418E+01
  |  12         -0.211987662193062E+01         -0.108014782910860E+01         -0.202716671929903E+01
  |  13         -0.185366702677673E+00         -0.113067880218299E+01         -0.680622391322390E-01

  ------------------------------------ 
  Start decomposition of the XC Energy 
  ------------------------------------ 
  X and C from original XC functional choice 
  Hartree-Fock Energy :          0.000000000 Ha              0.000000000 eV
  X Energy            :        -41.033647863 Ha          -1116.582369440 eV
  C Energy            :         -1.599377083 Ha            -43.521264775 eV
  Total XC Energy     :        -42.633024946 Ha          -1160.103634214 eV
  ------------------------------------ 
  LDA X and C from self-consistent density 
  X Energy LDA        :        -37.251300409 Ha          -1013.659458564 eV
  C Energy LDA        :         -3.138145112 Ha            -85.393273254 eV
  ------------------------------------ 
  End decomposition of the XC Energy 
  ------------------------------------ 

------------------------------------------------------------

------------------------------------------------------------------------------
  Final output of selected total energy values:

  The following output summarizes some interesting total energy values
  at the end of a run (AFTER all relaxation, molecular dynamics, etc.).

  | Total energy of the DFT / Hartree-Fock s.c.f. calculation      :          -8802.981477492 eV
  | Final zero-broadening corrected energy (caution - metals only) :          -8802.981477492 eV
  | For reference only, the value of 1 Hartree used in FHI-aims is :             27.211384500 eV

  Before relying on these values, please be sure to understand exactly which
  total energy value is referred to by a given number. Different objects may
  all carry the same name 'total energy'. Definitions:

  Total energy of the DFT / Hartree-Fock s.c.f. calculation:
  | Note that this energy does not include ANY quantities calculated after the
  | s.c.f. cycle, in particular not ANY RPA, MP2, etc. many-body perturbation terms.

  Final zero-broadening corrected energy:
  | For metallic systems only, a broadening of the occupation numbers at the Fermi
  | level can be extrapolated back to zero broadening by an electron-gas inspired
  | formula. For all systems that are not real metals, this value can be
  | meaningless and should be avoided.

------------------------------------------------------------------------------
  Methods described in the following list of references were used in this FHI-aims run.
  If you publish the results, please make sure to cite these reference if they apply.
  FHI-aims is an academic code, and for our developers (often, Ph.D. students
  and postdocs), scientific credit in the community is essential.
  Thank you for helping us!

  For any use of FHI-aims, please cite:

    Volker Blum, Ralf Gehrke, Felix Hanke, Paula Havu, Ville Havu,
    Xinguo Ren, Karsten Reuter, and Matthias Scheffler
    'Ab initio molecular simulations with numeric atom-centered orbitals'
    Computer Physics Communications 180, 2175-2196 (2009)
    http://dx.doi.org/10.1016/j.cpc.2009.06.022


  The scalable eigensolver library ELPA was used in your run.
  ELPA is essential especially for large systems on hundreds or thousands of CPUs.
  For ELPA, please cite:

    Andreas Marek, Volker Blum, Rainer Johanni, Ville Havu, Bruno Lang,
    Thomas Auckenthaler, Alexander Heinecke, Hans-Joachim Bungartz, and Hermann Lederer,
    'The ELPA Library - Scalable Parallel Eigenvalue Solutions
    for Electronic Structure Theory and Computational Science'
    The Journal of Physics: Condensed Matter 26, 213201 (2014).
    http://dx.doi.org/10.1088/0953-8984/26/21/213201


  The ELSI infrastructure was used in your run to solve the Kohn-Sham electronic structure.
  Please check out http://elsi-interchange.org to learn more.
  If scalability is important for your project, please acknowledge ELSI by citing:

    V. W-z. Yu, F. Corsetti, A. Garcia, W. P. Huhn, M. Jacquelin, W. Jia,
    B. Lange, L. Lin, J. Lu, W. Mi, A. Seifitokaldani, A. Vazquez-Mayagoitia,
    C. Yang, H. Yang, and V. Blum
    'ELSI: A unified software interface for Kohn-Sham electronic structure solvers'
    Computer Physics Communications 222, 267-285 (2018).
    http://dx.doi.org/10.1016/j.cpc.2017.09.007


  For the real-space grid partitioning and parallelization used in this calculation, please cite:

    Ville Havu, Volker Blum, Paula Havu, and Matthias Scheffler,
    'Efficient O(N) integration for all-electron electronic structure calculation'
    'using numerically tabulated basis functions'
    Journal of Computational Physics 228, 8367-8379 (2009).
    http://dx.doi.org/10.1016/j.jcp.2009.08.008

  Of course, there are many other important community references, e.g., those cited in the
  above references. Our list is limited to references that describe implementations in the
  FHI-aims code. The reason is purely practical (length of this list) - please credit others as well.

------------------------------------------------------------
          Leaving FHI-aims.
          Date     :  20200710, Time     :  143550.022

          Computational steps:
          | Number of self-consistency cycles          :           15
          | Number of SCF (re)initializations          :            1

          Detailed time accounting                     :  max(cpu_time)    wall_clock(cpu1)
          | Total time                                 :       21.401 s          21.444 s
          | Preparation time                           :        0.147 s           0.148 s
          | Boundary condition initalization           :        0.000 s           0.000 s
          | Grid partitioning                          :        0.112 s           0.113 s
          | Preloading free-atom quantities on grid    :        0.002 s           0.003 s
          | Free-atom superposition energy             :        0.085 s           0.085 s
          | Total time for integrations                :        8.084 s           8.090 s
          | Total time for solution of K.-S. equations :        0.034 s           0.034 s
          | Total time for density & force components  :        6.716 s           6.734 s
          | Total time for mixing                      :        0.197 s           0.199 s
          | Total time for Hartree multipole update    :        0.130 s           0.132 s
          | Total time for Hartree multipole sum       :        5.496 s           5.498 s
          | Total time for total energy evaluation     :        0.002 s           0.005 s
          | Total time for vdW correction              :        0.088 s           0.089 s

          Partial memory accounting:
          | Residual value for overall tracked memory usage across tasks :           0.000 MB (should be 0.000 MB)
          | Peak values for overall tracked memory usage (after allocating hessian_basis_wave):
          |   Minimum:        1.622 MB (on task 1)
          |   Maximum:        1.622 MB (on task 1)
          |   Average:        1.622 MB
          | Largest tracked array allocation (hessian_basis_wave):
          |   Minimum:        0.794 MB (on task 1)
          |   Maximum:        0.794 MB (on task 1)
          |   Average:        0.794 MB
          Note:  These values currently only include a subset of arrays which are explicitly tracked.
          The "true" memory usage will be greater.

          Have a nice day.
------------------------------------------------------------
