  MPI-parallelism will be employed.
------------------------------------------------------------
          Invoking FHI-aims ...
          Version 171221_1
          Compiled on 2019/09/09 at 14:39:39 on host puhti-login2.bullx.

          When using FHI-aims, please cite the following reference:

          Volker Blum, Ralf Gehrke, Felix Hanke, Paula Havu,
          Ville Havu, Xinguo Ren, Karsten Reuter, and Matthias Scheffler,
          'Ab Initio Molecular Simulations with Numeric Atom-Centered Orbitals',
          Computer Physics Communications 180, 2175-2196 (2009)

          For any questions about FHI-aims, please visit the aimsclub website
          with its forums and wiki. Contributions to both the forums and the
          wiki are warmly encouraged - they are for you, and everyone is welcome there.

------------------------------------------------------------



  Date     :  20200601, Time     :  005823.503
  Time zero on CPU 1             :   0.278590000000000E-01  s.
  Internal wall clock time zero  :           360205103.503  s.

  FHI-aims created a unique identifier for this run for later identification
  aims_uuid : 90072988-A176-4664-A5EE-8E1CAE1A98BA

  Using       20 parallel tasks.
  Task        0 on host r01c30.bullx reporting.
  Task        1 on host r01c30.bullx reporting.
  Task        2 on host r01c30.bullx reporting.
  Task        3 on host r01c30.bullx reporting.
  Task        4 on host r01c30.bullx reporting.
  Task        5 on host r01c30.bullx reporting.
  Task        6 on host r01c30.bullx reporting.
  Task        7 on host r01c30.bullx reporting.
  Task        8 on host r01c30.bullx reporting.
  Task        9 on host r01c30.bullx reporting.
  Task       10 on host r01c30.bullx reporting.
  Task       11 on host r01c30.bullx reporting.
  Task       12 on host r01c30.bullx reporting.
  Task       13 on host r01c30.bullx reporting.
  Task       14 on host r01c30.bullx reporting.
  Task       15 on host r01c30.bullx reporting.
  Task       16 on host r01c30.bullx reporting.
  Task       17 on host r01c30.bullx reporting.
  Task       18 on host r01c30.bullx reporting.
  Task       19 on host r01c30.bullx reporting.

  Performing system and environment tests:
  | Environment variable OMP_NUM_THREADS correctly set to 1.
  | Stacksize not measured: no C compiler
  | Checking for scalapack...
  | Testing pdtran()...
  | All pdtran() tests passed.

  Obtaining array dimensions for all initial allocations:
  
  -----------------------------------------------------------------------
  Parsing control.in (first pass over file, find array dimensions only).
  The contents of control.in will be repeated verbatim below
  unless switched off by setting 'verbatim_writeout .false.' .
  in the first line of control.in .
  -----------------------------------------------------------------------
  
  #########################################################################################
  #
  #  Volker Blum, FHI 2009 : Test run input file control.in for simple H2O
  #
  #########################################################################################
  #
  #  Physical model
  #
    xc                 pbe
    vdw_correction_hirshfeld
    spin               none
    relativistic       none
    charge             0.
  #
  #  SCF convergence
  #
    occupation_type    gaussian 0.01
    mixer              pulay
      n_max_pulay        10
      charge_mix_param   0.2
    sc_accuracy_rho    1E-5
    sc_accuracy_eev    1E-3
    sc_accuracy_etot   1E-6
    sc_accuracy_forces 1E-4
    sc_iter_limit      100
  #
  #  Relaxation
  #
  #  relax_geometry   bfgs 1.e-3
  #
  ################################################################################
  #
  #  FHI-aims code project
  #  VB, Fritz-Haber Institut, 2009
  #
  #  Suggested "light" defaults for H atom (to be pasted into control.in file)
  #  Be sure to double-check any results obtained with these settings for post-processing,
  #  e.g., with the "tight" defaults and larger basis sets.
  #
  ################################################################################
    species        H
  #     global species definitions
      nucleus             1
      mass                1.00794
  #
      l_hartree           4
  #
      cut_pot             3.5  1.5  1.0
      basis_dep_cutoff    1e-4
  #
      radial_base         24 5.0
      radial_multiplier   1
      angular_grids       specified
        division   0.2421   50
        division   0.3822  110
        division   0.4799  194
        division   0.5341  302
  #      division   0.5626  434
  #      division   0.5922  590
  #      division   0.6542  770
  #      division   0.6868 1202
  #      outer_grid  770
        outer_grid  302
  ################################################################################
  #
  #  Definition of "minimal" basis
  #
  ################################################################################
  #     valence basis states
      valence      1  s   1.
  #     ion occupancy
      ion_occ      1  s   0.5
  ################################################################################
  #
  #  Suggested additional basis functions. For production calculations,
  #  uncomment them one after another (the most important basis functions are
  #  listed first).
  #
  #  Basis constructed for dimers: 0.5 A, 0.7 A, 1.0 A, 1.5 A, 2.5 A
  #
  ################################################################################
  #  "First tier" - improvements: -1014.90 meV to -62.69 meV
       hydro 2 s 2.1
       hydro 2 p 3.5
  #  "Second tier" - improvements: -12.89 meV to -1.83 meV
  #     hydro 1 s 0.85
  #     hydro 2 p 3.7
  #     hydro 2 s 1.2
  #     hydro 3 d 7
  #  "Third tier" - improvements: -0.25 meV to -0.12 meV
  #     hydro 4 f 11.2
  #     hydro 3 p 4.8
  #     hydro 4 d 9
  #     hydro 3 s 3.2
  ################################################################################
  #
  #  FHI-aims code project
  #  VB, Fritz-Haber Institut, 2009
  #
  #  Suggested "light" defaults for C atom (to be pasted into control.in file)
  #  Be sure to double-check any results obtained with these settings for post-processing,
  #  e.g., with the "tight" defaults and larger basis sets.
  #
  ################################################################################
    species        C
  #     global species definitions
      nucleus             6
      mass                12.0107
  #
      l_hartree           4
  #
      cut_pot             3.5  1.5  1.0
      basis_dep_cutoff    1e-4
  #
      radial_base         34 5.0
      radial_multiplier   1
      angular_grids specified
        division   0.3326   50
        division   0.5710  110
        division   0.7727  194
        division   0.8772  302
  #      division   0.9334  434
  #      division   0.9625  590
  #      division   0.9924  770
  #      division   1.0230  974
  #      division   1.4589 1202
  #     outer_grid  974
       outer_grid 302
  ################################################################################
  #
  #  Definition of "minimal" basis
  #
  ################################################################################
  #     valence basis states
      valence      2  s   2.
      valence      2  p   2.
  #     ion occupancy
      ion_occ      2  s   1.
      ion_occ      2  p   1.
  ################################################################################
  #
  #  Suggested additional basis functions. For production calculations,
  #  uncomment them one after another (the most important basis functions are
  #  listed first).
  #
  #  Constructed for dimers: 1.0 A, 1.25 A, 1.5 A, 2.0 A, 3.0 A
  #
  ################################################################################
  #  "First tier" - improvements: -1214.57 meV to -155.61 meV
       hydro 2 p 1.7
       hydro 3 d 6
       hydro 2 s 4.9
  #  "Second tier" - improvements: -67.75 meV to -5.23 meV
  #     hydro 4 f 9.8
  #     hydro 3 p 5.2
  #     hydro 3 s 4.3
  #     hydro 5 g 14.4
  #     hydro 3 d 6.2
  #  "Third tier" - improvements: -2.43 meV to -0.60 meV
  #     hydro 2 p 5.6
  #     hydro 2 s 1.4
  #     hydro 3 d 4.9
  #     hydro 4 f 11.2
  #  "Fourth tier" - improvements: -0.39 meV to -0.18 meV
  #     hydro 2 p 2.1
  #     hydro 5 g 16.4
  #     hydro 4 d 13.2
  #     hydro 3 s 13.6
  #     hydro 4 f 17.6
  #  Further basis functions - improvements: -0.08 meV and below
  #     hydro 3 s 2
  #     hydro 3 p 6
  #     hydro 4 d 20
  ################################################################################
  #
  #  FHI-aims code project
  #  VB, Fritz-Haber Institut, 2009
  #
  #  Suggested "light" defaults for N atom (to be pasted into control.in file)
  #  Be sure to double-check any results obtained with these settings for post-processing,
  #  e.g., with the "tight" defaults and larger basis sets.
  #
  ################################################################################
    species        N
  #     global species definitions
      nucleus             7
      mass                14.0067
  #
      l_hartree           4
  #
      cut_pot             3.5  1.5  1.0
      basis_dep_cutoff    1e-4
  #
      radial_base         35 5.0
      radial_multiplier   1
      angular_grids       specified
        division   0.2599   50
        division   0.4601  110
        division   0.5885  194
        division   0.6503  302
  #      division   0.6939  434
  #      division   0.7396  590
  #      division   0.7632  770
  #      division   0.8122  974
  #      division   1.1604 1202
  #      outer_grid  974
        outer_grid  302
  ################################################################################
  #
  #  Definition of "minimal" basis
  #
  ################################################################################
  #     valence basis states
      valence      2  s   2.
      valence      2  p   3.
  #     ion occupancy
      ion_occ      2  s   1.
      ion_occ      2  p   2.
  ################################################################################
  #
  #  Suggested additional basis functions. For production calculations,
  #  uncomment them one after another (the most important basis functions are
  #  listed first).
  #
  #  Constructed for dimers: 1.0 A, 1.1 A, 1.5 A, 2.0 A, 3.0 A
  #
  ################################################################################
  #  "First tier" - improvements: -1193.42 meV to -220.60 meV
       hydro 2 p 1.8
       hydro 3 d 6.8
       hydro 3 s 5.8
  #  "Second tier" - improvements: -80.21 meV to -6.86 meV
  #     hydro 4 f 10.8
  #     hydro 3 p 5.8
  #     hydro 1 s 0.8
  #     hydro 5 g 16
  #     hydro 3 d 4.9
  #  "Third tier" - improvements: -4.29 meV to -0.53 meV
  #     hydro 3 s 16
  #     ionic 2 p auto
  #     hydro 3 d 6.6
  #     hydro 4 f 11.6
  #  "Fourth tier" - improvements: -0.75 meV to -0.25 meV
  #     hydro 2 p 4.5
  #     hydro 2 s 2.4
  #     hydro 5 g 14.4
  #     hydro 4 d 14.4
  #     hydro 4 f 16.8
  # Further basis functions - -0.21 meV and below
  #     hydro 3 p 14.8
  #     hydro 3 s 4.4
  #     hydro 3 d 19.6
  #     hydro 5 g 12.8
  ################################################################################
  #
  #  FHI-aims code project
  #  VB, Fritz-Haber Institut, 2009
  #
  #  Suggested "light" defaults for O atom (to be pasted into control.in file)
  #  Be sure to double-check any results obtained with these settings for post-processing,
  #  e.g., with the "tight" defaults and larger basis sets.
  #
  ################################################################################
    species        O
  #     global species definitions
      nucleus             8
      mass                15.9994
  #
      l_hartree           4
  #
      cut_pot             3.5  1.5  1.0
      basis_dep_cutoff    1e-4
  #
      radial_base         36 5.0
      radial_multiplier   1
       angular_grids specified
        division   0.2659   50
        division   0.4451  110
        division   0.6052  194
        division   0.7543  302
  #      division   0.8014  434
  #      division   0.8507  590
  #      division   0.8762  770
  #      division   0.9023  974
  #      division   1.2339 1202
  #      outer_grid 974
        outer_grid 302
  ################################################################################
  #
  #  Definition of "minimal" basis
  #
  ################################################################################
  #     valence basis states
      valence      2  s   2.
      valence      2  p   4.
  #     ion occupancy
      ion_occ      2  s   1.
      ion_occ      2  p   3.
  ################################################################################
  #
  #  Suggested additional basis functions. For production calculations,
  #  uncomment them one after another (the most important basis functions are
  #  listed first).
  #
  #  Constructed for dimers: 1.0 A, 1.208 A, 1.5 A, 2.0 A, 3.0 A
  #
  ################################################################################
  #  "First tier" - improvements: -699.05 meV to -159.38 meV
       hydro 2 p 1.8
       hydro 3 d 7.6
       hydro 3 s 6.4
  #  "Second tier" - improvements: -49.91 meV to -5.39 meV
  #     hydro 4 f 11.6
  #     hydro 3 p 6.2
  #     hydro 3 d 5.6
  #     hydro 5 g 17.6
  #     hydro 1 s 0.75
  #  "Third tier" - improvements: -2.83 meV to -0.50 meV
  #     ionic 2 p auto
  #     hydro 4 f 10.8
  #     hydro 4 d 4.7
  #     hydro 2 s 6.8
  #  "Fourth tier" - improvements: -0.40 meV to -0.12 meV
  #     hydro 3 p 5
  #     hydro 3 s 3.3
  #     hydro 5 g 15.6
  #     hydro 4 f 17.6
  #     hydro 4 d 14
  # Further basis functions - -0.08 meV and below
  #     hydro 3 s 2.1
  #     hydro 4 d 11.6
  #     hydro 3 p 16
  #     hydro 2 s 17.2
  
  -----------------------------------------------------------------------
  Completed first pass over input file control.in .
  -----------------------------------------------------------------------
  
  
  -----------------------------------------------------------------------
  Parsing geometry.in (first pass over file, find array dimensions only).
  The contents of geometry.in will be repeated verbatim below
  unless switched off by setting 'verbatim_writeout .false.' .
  in the first line of geometry.in .
  -----------------------------------------------------------------------
  
  atom  0.00000 0.00000 0.00000 C
  atom  1.09300 0.00000 0.00000 H
  atom  -0.47961 0.00000 -1.41207 N
  atom  -0.85289 0.92449 -1.63072 H
  atom  0.30476 -0.21640 -2.02368 H
  atom  -0.49584 1.26211 0.72868 C
  atom  -0.14379 2.16093 0.21708 H
  atom  -1.58783 1.28330 0.75456 H
  atom  -0.12441 1.28008 1.75594 H
  atom  -0.39425 -1.28861 0.74398 C
  atom  0.15781 -1.73873 1.71963 O
  atom  -1.41097 -1.93047 0.26330 O
  atom  -1.44042 -1.51293 -0.61407 H
  
  -----------------------------------------------------------------------
  Completed first pass over input file geometry.in .
  -----------------------------------------------------------------------
  

  Basic array size parameters:
  | Number of species                 :        4
  | Number of atoms                   :       13
  | Max. basis fn. angular momentum   :        2
  | Max. atomic/ionic basis occupied n:        2
  | Max. number of basis fn. types    :        2
  | Max. radial fns per species/type  :        3
  | Max. logarithmic grid size        :     1301
  | Max. radial integration grid size :       36
  | Max. angular integration grid size:      302
  | Max. angular grid division number :        8
  | Radial grid for Hartree potential :     1301
  | Number of spin channels           :        1

------------------------------------------------------------
          Reading file control.in.
------------------------------------------------------------
  XC: Using PBE gradient-corrected functionals.
  Spin treatment: No spin polarisation.
  Non-relativistic treatment of kinetic energy.
  Charge =   0.000000E+00: Neutral system requested explicitly.
  Occupation type: Gaussian broadening, width =   0.100000E-01 eV.
  Using pulay charge density mixing.
  Pulay mixing - number of memorized iterations:   10
  Charge density mixing - mixing parameter:     0.2000
  Convergence accuracy of self-consistent charge density:  0.1000E-04
  Convergence accuracy of sum of eigenvalues:  0.1000E-02
  Convergence accuracy of total energy:  0.1000E-05
  Convergence accuracy of forces:  0.1000E-03
  Maximum number of s.-c. iterations  :   100
 
  Reading configuration options for species H                   .
  | Found nuclear charge :   1.0000
  | Found atomic mass :    1.00794000000000      amu
  | Found l_max for Hartree potential  :   4
  | Found cutoff potl. onset [A], width [A], scale factor :    3.50000    1.50000    1.00000
  | Threshold for basis-dependent cutoff potential is   0.100000E-03
  | Found data for basic radial integration grid :    24 points, outermost radius =    5.000 A
  | Found multiplier for basic radial grid :   1
  | Found angular grid specification: user-specified.
  | Specified grid contains     5 separate shells.
  | Check grid settings after all constraints further below.
  | Found free-atom valence shell :  1 s   1.000
  | No ionic wave fns used. Skipping ion_occ.
  | Found hydrogenic basis function :  2 s   2.100
  | Found hydrogenic basis function :  2 p   3.500
  Species H                   : Missing cutoff potential type.
  Defaulting to exp(1/x)/(1-x)^2 type cutoff potential.
  Species H : No 'logarithmic' tag. Using default grid for free atom:
  | Default logarithmic grid data [bohr] : 0.1000E-03 0.1000E+03 0.1012E+01
  Species H : On-site basis accuracy parameter (for Gram-Schmidt orthonormalisation) not specified.
  Using default value basis_acc =  0.1000000E-03.
  Species H                   : Using default innermost maximum threshold i_radial=  2 for radial functions.
  Species H                   : Default cutoff onset for free atom density etc. : 0.35000000E+01 AA.
  Species H                   : Basic radial grid will be enhanced according to radial_multiplier =   1, to contain    24 grid points.
 
  Reading configuration options for species C                   .
  | Found nuclear charge :   6.0000
  | Found atomic mass :    12.0107000000000      amu
  | Found l_max for Hartree potential  :   4
  | Found cutoff potl. onset [A], width [A], scale factor :    3.50000    1.50000    1.00000
  | Threshold for basis-dependent cutoff potential is   0.100000E-03
  | Found data for basic radial integration grid :    34 points, outermost radius =    5.000 A
  | Found multiplier for basic radial grid :   1
  | Found angular grid specification: user-specified.
  | Specified grid contains     5 separate shells.
  | Check grid settings after all constraints further below.
  | Found free-atom valence shell :  2 s   2.000
  | Found free-atom valence shell :  2 p   2.000
  | No ionic wave fns used. Skipping ion_occ.
  | No ionic wave fns used. Skipping ion_occ.
  | Found hydrogenic basis function :  2 p   1.700
  | Found hydrogenic basis function :  3 d   6.000
  | Found hydrogenic basis function :  2 s   4.900
  Species C                   : Missing cutoff potential type.
  Defaulting to exp(1/x)/(1-x)^2 type cutoff potential.
  Species C : No 'logarithmic' tag. Using default grid for free atom:
  | Default logarithmic grid data [bohr] : 0.1000E-03 0.1000E+03 0.1012E+01
  Species C : On-site basis accuracy parameter (for Gram-Schmidt orthonormalisation) not specified.
  Using default value basis_acc =  0.1000000E-03.
  Species C                   : Using default innermost maximum threshold i_radial=  2 for radial functions.
  Species C                   : Default cutoff onset for free atom density etc. : 0.35000000E+01 AA.
  Species C                   : Basic radial grid will be enhanced according to radial_multiplier =   1, to contain    34 grid points.
 
  Reading configuration options for species N                   .
  | Found nuclear charge :   7.0000
  | Found atomic mass :    14.0067000000000      amu
  | Found l_max for Hartree potential  :   4
  | Found cutoff potl. onset [A], width [A], scale factor :    3.50000    1.50000    1.00000
  | Threshold for basis-dependent cutoff potential is   0.100000E-03
  | Found data for basic radial integration grid :    35 points, outermost radius =    5.000 A
  | Found multiplier for basic radial grid :   1
  | Found angular grid specification: user-specified.
  | Specified grid contains     5 separate shells.
  | Check grid settings after all constraints further below.
  | Found free-atom valence shell :  2 s   2.000
  | Found free-atom valence shell :  2 p   3.000
  | No ionic wave fns used. Skipping ion_occ.
  | No ionic wave fns used. Skipping ion_occ.
  | Found hydrogenic basis function :  2 p   1.800
  | Found hydrogenic basis function :  3 d   6.800
  | Found hydrogenic basis function :  3 s   5.800
  Species N                   : Missing cutoff potential type.
  Defaulting to exp(1/x)/(1-x)^2 type cutoff potential.
  Species N : No 'logarithmic' tag. Using default grid for free atom:
  | Default logarithmic grid data [bohr] : 0.1000E-03 0.1000E+03 0.1012E+01
  Species N : On-site basis accuracy parameter (for Gram-Schmidt orthonormalisation) not specified.
  Using default value basis_acc =  0.1000000E-03.
  Species N                   : Using default innermost maximum threshold i_radial=  2 for radial functions.
  Species N                   : Default cutoff onset for free atom density etc. : 0.35000000E+01 AA.
  Species N                   : Basic radial grid will be enhanced according to radial_multiplier =   1, to contain    35 grid points.
 
  Reading configuration options for species O                   .
  | Found nuclear charge :   8.0000
  | Found atomic mass :    15.9994000000000      amu
  | Found l_max for Hartree potential  :   4
  | Found cutoff potl. onset [A], width [A], scale factor :    3.50000    1.50000    1.00000
  | Threshold for basis-dependent cutoff potential is   0.100000E-03
  | Found data for basic radial integration grid :    36 points, outermost radius =    5.000 A
  | Found multiplier for basic radial grid :   1
  | Found angular grid specification: user-specified.
  | Specified grid contains     5 separate shells.
  | Check grid settings after all constraints further below.
  | Found free-atom valence shell :  2 s   2.000
  | Found free-atom valence shell :  2 p   4.000
  | No ionic wave fns used. Skipping ion_occ.
  | No ionic wave fns used. Skipping ion_occ.
  | Found hydrogenic basis function :  2 p   1.800
  | Found hydrogenic basis function :  3 d   7.600
  | Found hydrogenic basis function :  3 s   6.400
  Species O                   : Missing cutoff potential type.
  Defaulting to exp(1/x)/(1-x)^2 type cutoff potential.
  Species O : No 'logarithmic' tag. Using default grid for free atom:
  | Default logarithmic grid data [bohr] : 0.1000E-03 0.1000E+03 0.1012E+01
  Species O : On-site basis accuracy parameter (for Gram-Schmidt orthonormalisation) not specified.
  Using default value basis_acc =  0.1000000E-03.
  Species O                   : Using default innermost maximum threshold i_radial=  2 for radial functions.
  Species O                   : Default cutoff onset for free atom density etc. : 0.35000000E+01 AA.
  Species O                   : Basic radial grid will be enhanced according to radial_multiplier =   1, to contain    36 grid points.
 
  Finished reading input file 'control.in'. Consistency checks are next.
 
  MPI_IN_PLACE appears to work with this MPI implementation.
  | Keeping use_mpi_in_place .true. (see manual).
  Target number of points in a grid batch is not set. Defaulting to  100
  Method for grid partitioning is not set. Defaulting to parallel hash+maxmin partitioning.
  Batch size limit is not set. Defaulting to    200
  By default, will store active basis functions for each batch.
  If in need of memory, prune_basis_once .false. can be used to disable this option.
  communication_type for Hartree potential was not specified.
  Defaulting to calc_hartree .
  Pulay mixer: Number of initial linear mixing iterations not set.
  Defaulting to    0 iterations.
  Work space size for distributed Hartree potential not set.
  Defaulting to   0.200000E+03 MB.
  Algorithm-dependent basis array size parameters:
  | n_max_pulay                         :       10
  Presetting      1001 iterations before the initial mixing cycle
  is restarted anyway using the sc_init_iter criterion / keyword.
  Presetting a factor      1.000 between actual scf density residual
  and density convergence criterion sc_accuracy_rho below which sc_init_iter
  takes no effect.
  Geometry relaxation not requested: no relaxation will be performed.
  Handling of forces: Unphysical translation and rotation will be removed from forces.
  No accuracy limit for integral partition fn. given. Defaulting to  0.1000E-14.
  No threshold value for u(r) in integrations given. Defaulting to  0.1000E-05.
  No accuracy for occupation numbers given. Defaulting to  0.1000E-12.
  No threshold value for occupation numbers given. Defaulting to  0.0000E+00.
  No accuracy for fermi level given. Defaulting to  0.1000E-19.
  Maximum # of iterations to find E_F not set. Defaulting to  200.
  Preferred method for the eigenvalue solver ('KS_method') not specified in 'control.in'.
  Calling BLACS routine to test compilation state
  Since ScaLAPACK support is enabled, defaulting to 'elsi'.
  Will not use alltoall communication since running on < 1024 CPUs.
  Threshold for basis singularities not set.
  Default threshold for basis singularities:  0.1000E-04
  partition_type (choice of integration weights) for integrals was not specified.
  | Using a version of the partition function of Stratmann and coworkers ('stratmann_smoother').
  | At each grid point, the set of atoms used to build the partition table is smoothly restricted to
  | only those atoms whose free-atom density would be non-zero at that grid point.
  Partitioning for Hartree potential was not defined. Using partition_type for integrals.
  | Adjusted default value of keyword multip_moments_threshold to:       0.10000000E-11
  | This value may affect high angular momentum components of the Hartree potential in periodic systems.
  No q(lm)/r^(l+1) cutoff set for long-range Hartree potential.
  | Using default value of  0.100000E-09 .
  | Verify using the multipole_threshold keyword.
  Defaulting to new monopole extrapolation.
  Density update method: automatic selection selected.
------------------------------------------------------------


------------------------------------------------------------
          Reading geometry description geometry.in.
------------------------------------------------------------
  Input structure read successfully.
  The structure contains       13 atoms,  and a total of         48.000 electrons.

  Input geometry:
  | No unit cell requested.
  | Atomic structure:
  |       Atom                x [A]            y [A]            z [A]
  |    1: Species C             0.00000000        0.00000000        0.00000000
  |    2: Species H             1.09300000        0.00000000        0.00000000
  |    3: Species N            -0.47961000        0.00000000       -1.41207000
  |    4: Species H            -0.85289000        0.92449000       -1.63072000
  |    5: Species H             0.30476000       -0.21640000       -2.02368000
  |    6: Species C            -0.49584000        1.26211000        0.72868000
  |    7: Species H            -0.14379000        2.16093000        0.21708000
  |    8: Species H            -1.58783000        1.28330000        0.75456000
  |    9: Species H            -0.12441000        1.28008000        1.75594000
  |   10: Species C            -0.39425000       -1.28861000        0.74398000
  |   11: Species O             0.15781000       -1.73873000        1.71963000
  |   12: Species O            -1.41097000       -1.93047000        0.26330000
  |   13: Species H            -1.44042000       -1.51293000       -0.61407000
  |

  | The smallest distance between any two atoms is         0.97210343 AA.
  |
  | The first atom of this pair is atom number                     12 .
  | The second atom of this pair is atom number                    13 .

  Number of empty states per atom not set in control.in - providing a guess from actual geometry.
  | Total number of empty states used during s.c.f. cycle:       29
  If you use a very high smearing, use empty_states (per atom!) in control.in to increase this value.

  Structure-dependent array size parameters: 
  | Maximum number of distinct radial functions  :       21
  | Maximum number of basis functions            :      119
  | Number of Kohn-Sham states (occupied + empty):       53
------------------------------------------------------------

------------------------------------------------------------
          Preparing all fixed parts of the calculation.
------------------------------------------------------------
  Determining machine precision:
    2.225073858507201E-308
  Setting up grids for atomic and cluster calculations.

  Creating wave function, potential, and density for free atoms.

  Species: H

  List of occupied orbitals and eigenvalues:
    n    l              occ      energy [Ha]    energy [eV]
    1    0           1.0000        -0.237589        -6.4651


  Species: C

  List of occupied orbitals and eigenvalues:
    n    l              occ      energy [Ha]    energy [eV]
    1    0           2.0000       -10.038835      -273.1706
    2    0           2.0000        -0.502696       -13.6791
    2    1           2.0000        -0.191971        -5.2238


  Species: N

  List of occupied orbitals and eigenvalues:
    n    l              occ      energy [Ha]    energy [eV]
    1    0           2.0000       -14.128000      -384.4424
    2    0           2.0000        -0.681077       -18.5330
    2    1           3.0000        -0.259788        -7.0692


  Species: O

  List of occupied orbitals and eigenvalues:
    n    l              occ      energy [Ha]    energy [eV]
    1    0           2.0000       -18.898188      -514.2459
    2    0           2.0000        -0.878505       -23.9053
    2    1           4.0000        -0.331779        -9.0282

  Creating fixed part of basis set: Ionic, confined, hydrogenic.
 
  H                    hydrogenic:
 
  List of hydrogenic basis orbitals: 
    n    l      effective z      eigenvalue [eV]  inner max. [A]     outer max. [A]     outer radius [A]   
    2    0         2.100000       -14.9728           0.193243           1.317208           4.583499
    2    1         3.500000       -41.6669           0.602369           0.602369           3.723403
 
 
  C                    hydrogenic:
 
  List of hydrogenic basis orbitals: 
    n    l      effective z      eigenvalue [eV]  inner max. [A]     outer max. [A]     outer radius [A]   
    2    1         1.700000        -9.7616           1.230570           1.230570           4.607917
    3    2         6.000000       -54.4224           0.792453           0.792453           3.883070
    2    0         4.900000       -81.6679           0.082559           0.562749           3.078220
 
 
  N                    hydrogenic:
 
  List of hydrogenic basis orbitals: 
    n    l      effective z      eigenvalue [eV]  inner max. [A]     outer max. [A]     outer radius [A]   
    2    1         1.800000       -10.9749           1.177451           1.177451           4.573712
    3    2         6.800000       -69.9026           0.704619           0.704619           3.538137
    3    0         5.800000       -50.8545           0.067388           1.191934           4.250239
 
 
  O                    hydrogenic:
 
  List of hydrogenic basis orbitals: 
    n    l      effective z      eigenvalue [eV]  inner max. [A]     outer max. [A]     outer radius [A]   
    2    1         1.800000       -10.9749           1.164242           1.164242           4.578029
    3    2         7.600000       -87.3180           0.624125           0.624125           3.251020
    3    0         6.400000       -61.9207           0.061167           1.081902           4.001998
 

  Adding cutoff potential to free-atom effective potential.
  Creating atomic-like basis functions for current effective potential.

  Species H                   :

  List of atomic basis orbitals and eigenvalues:
    n    l      energy [Ha]    energy [eV]    outer radius [A]
    1    0        -0.237589        -6.4651       4.527807


  Species C                   :

  List of atomic basis orbitals and eigenvalues:
    n    l      energy [Ha]    energy [eV]    outer radius [A]
    1    0       -10.038835      -273.1706       1.934409
    2    0        -0.502696       -13.6791       4.496620
    2    1        -0.191971        -5.2238       4.551928


  Species N                   :

  List of atomic basis orbitals and eigenvalues:
    n    l      energy [Ha]    energy [eV]    outer radius [A]
    1    0       -14.128000      -384.4424       1.637919
    2    0        -0.681077       -18.5330       4.463241
    2    1        -0.259788        -7.0692       4.518138


  Species O                   :

  List of atomic basis orbitals and eigenvalues:
    n    l      energy [Ha]    energy [eV]    outer radius [A]
    1    0       -18.898188      -514.2459       1.415765
    2    0        -0.878505       -23.9053       4.413171
    2    1        -0.331779        -9.0282       4.522403

  Assembling full basis from fixed parts.
  | Species H :   atomic orbital   1 s accepted.
  | Species H :    hydro orbital   2 s accepted.
  | Species H :    hydro orbital   2 p accepted.
  | Species C :   atomic orbital   1 s accepted.
  | Species C :    hydro orbital   2 s accepted.
  | Species C :   atomic orbital   2 s accepted.
  | Species C :   atomic orbital   2 p accepted.
  | Species C :    hydro orbital   2 p accepted.
  | Species C :    hydro orbital   3 d accepted.
  | Species N :   atomic orbital   1 s accepted.
  | Species N :    hydro orbital   3 s accepted.
  | Species N :   atomic orbital   2 s accepted.
  | Species N :   atomic orbital   2 p accepted.
  | Species N :    hydro orbital   2 p accepted.
  | Species N :    hydro orbital   3 d accepted.
  | Species O :   atomic orbital   1 s accepted.
  | Species O :    hydro orbital   3 s accepted.
  | Species O :   atomic orbital   2 s accepted.
  | Species O :   atomic orbital   2 p accepted.
  | Species O :    hydro orbital   2 p accepted.
  | Species O :    hydro orbital   3 d accepted.
 
  Basis size parameters after reduction:
  | Total number of radial functions:       21
  | Total number of basis functions :      119
 
  Per-task memory consumption for arrays in subroutine allocate_ext:
  |           5.250512MB.
  Testing on-site integration grid accuracy.
  |  Species  Function  <phi|h_atom|phi> (log., in eV)  <phi|h_atom|phi> (rad., in eV)
           1        1                 -6.4663192853                 -6.4651273558
           1        2                 13.7111246313                 13.7170609718
           1        3                 25.2673269279                 25.2674696378
           2        4               -273.1705927641               -273.1705631568
           2        5                -10.7109323383                -10.7107120029
           2        6                 17.4381822266                 17.4352413244
           2        7                 -5.2255326521                 -5.2270484734
           2        8                  8.6835629259                  8.6603288385
           2        9                 27.4952418996                 27.4953360207
           3       10               -384.4424306495               -384.4423701208
           3       11                 12.5842251816                 12.5842222903
           3       12                -15.7264628251                -15.7264433455
           3       13                 -7.0696854293                 -7.0701769954
           3       14                  8.8090390882                  8.7901077751
           3       15                 35.9586762123                 35.9588528632
           4       16               -514.2458688638               -514.2457643834
           4       17                 15.1795651126                 15.1795290741
           4       18                -21.5359799773                -21.5360846186
           4       19                 -9.0283069236                 -9.0284644067
           4       20                  8.3027758564                  8.2834874195
           4       21                 45.8339351984                 45.8338762259

  Preparing densities etc. for the partition functions (integrals / Hartree potential).

  Preparations completed.
  max(cpu_time)          :      0.166 s.
  Wall clock time (cpu1) :      0.166 s.
------------------------------------------------------------

------------------------------------------------------------
          Begin self-consistency loop: Initialization.

          Date     :  20200601, Time     :  005823.705
------------------------------------------------------------

  Initializing index lists of integration centers etc. from given atomic structure:
  | Number of centers in hartree potential         :        13
  | Number of centers in hartree multipole         :        13
  | Number of centers in electron density summation:        13
  | Number of centers in basis integrals           :        13
  | Number of centers in integrals                 :        13
  | Number of centers in hamiltonian               :        13
  * Using 20 tasks for Scalapack Eigenvalue solver.
  Detailed listing of tasks and assigned k-points:
  (for non-periodic systems, the "k-point" denotes an internal label only)
   Task     0 k-point     1 on r01c30.bullx
   Task     1 k-point     1 on r01c30.bullx
   Task     2 k-point     1 on r01c30.bullx
   Task     3 k-point     1 on r01c30.bullx
   Task     4 k-point     1 on r01c30.bullx
   Task     5 k-point     1 on r01c30.bullx
   Task     6 k-point     1 on r01c30.bullx
   Task     7 k-point     1 on r01c30.bullx
   Task     8 k-point     1 on r01c30.bullx
   Task     9 k-point     1 on r01c30.bullx
   Task    10 k-point     1 on r01c30.bullx
   Task    11 k-point     1 on r01c30.bullx
   Task    12 k-point     1 on r01c30.bullx
   Task    13 k-point     1 on r01c30.bullx
   Task    14 k-point     1 on r01c30.bullx
   Task    15 k-point     1 on r01c30.bullx
   Task    16 k-point     1 on r01c30.bullx
   Task    17 k-point     1 on r01c30.bullx
   Task    18 k-point     1 on r01c30.bullx
   Task    19 k-point     1 on r01c30.bullx
  Tasks:    20 split into      5 X      4 BLACS grid
  Calculating block size based on n_basis =          119  max_nprow =            5  max_npcol =            4
  ScaLAPACK block size set to:           16
  Allocating        0.008 MB for ovlp
  Allocating        0.008 MB for ham
  Allocating        0.008 MB for eigenvec
  Required Scalapack workspace - INTEGER:            1  REAL:             1
  Partitioning the integration grid into batches with parallel hashing+maxmin method.
  | Number of batches:      921
  | Maximal batch size:     181
  | Minimal batch size:      50
  | Average batch size:      75.620
  | Standard deviation of batch sizes:      20.992

  Integration load balanced across    20 MPI tasks.
  Work distribution over tasks is as follows:
  Task     0 has       3473 integration points.
  Task     1 has       3476 integration points.
  Task     2 has       3470 integration points.
  Task     3 has       3439 integration points.
  Task     4 has       3525 integration points.
  Task     5 has       3440 integration points.
  Task     6 has       3506 integration points.
  Task     7 has       3528 integration points.
  Task     8 has       3455 integration points.
  Task     9 has       3478 integration points.
  Task    10 has       3480 integration points.
  Task    11 has       3447 integration points.
  Task    12 has       3443 integration points.
  Task    13 has       3451 integration points.
  Task    14 has       3538 integration points.
  Task    15 has       3433 integration points.
  Task    16 has       3613 integration points.
  Task    17 has       3435 integration points.
  Task    18 has       3540 integration points.
  Task    19 has       3476 integration points.
  Initializing partition tables, free-atom densities, potentials, etc. across the integration grid (initialize_grid_storage).
  | initialize_grid_storage: Actual outermost partition radius vs. multipole_radius_free
  | (-- VB: in principle, multipole_radius_free should be larger, hence this output)
  | Species        1: Confinement radius =              4.999999999999999 AA, multipole_radius_free =              5.054417573612229 AA.
  | Species        1: outer_partition_radius set to              5.054417573612229 AA .
  | Species        2: Confinement radius =              4.999999999999999 AA, multipole_radius_free =              5.019602836301480 AA.
  | Species        2: outer_partition_radius set to              5.019602836301480 AA .
  | Species        3: Confinement radius =              4.999999999999999 AA, multipole_radius_free =              5.043624274424571 AA.
  | Species        3: outer_partition_radius set to              5.043624274424571 AA .
  | Species        4: Confinement radius =              4.999999999999999 AA, multipole_radius_free =              5.048384829883283 AA.
  | Species        4: outer_partition_radius set to              5.048384829883283 AA .
  | Original list of interatomic distances with          13 x         13 entries is created.
  | Net number of integration points:    69646
  | of which are non-zero points    :    59447
  Renormalizing the initial density to the exact electron count on the 3D integration grid.
  | Initial density: Formal number of electrons (from input files) :      48.0000000000
  | Integrated number of electrons on 3D grid     :      47.9998437983
  | Charge integration error                      :      -0.0001562017
  | Normalization factor for density and gradient :       1.0000032542
  Obtaining max. number of non-zero basis functions in each batch (get_n_compute_maxes).
  | Maximal number of non-zero basis functions:      118 in task     0
  | Maximal number of non-zero basis functions:      118 in task     1
  | Maximal number of non-zero basis functions:      118 in task     2
  | Maximal number of non-zero basis functions:      118 in task     3
  | Maximal number of non-zero basis functions:      118 in task     4
  | Maximal number of non-zero basis functions:      118 in task     5
  | Maximal number of non-zero basis functions:      118 in task     6
  | Maximal number of non-zero basis functions:      118 in task     7
  | Maximal number of non-zero basis functions:      119 in task     8
  | Maximal number of non-zero basis functions:      118 in task     9
  | Maximal number of non-zero basis functions:      117 in task    10
  | Maximal number of non-zero basis functions:      119 in task    11
  | Maximal number of non-zero basis functions:      118 in task    12
  | Maximal number of non-zero basis functions:      118 in task    13
  | Maximal number of non-zero basis functions:      119 in task    14
  | Maximal number of non-zero basis functions:      118 in task    15
  | Maximal number of non-zero basis functions:      117 in task    16
  | Maximal number of non-zero basis functions:      118 in task    17
  | Maximal number of non-zero basis functions:      117 in task    18
  | Maximal number of non-zero basis functions:      119 in task    19
  Selecting the method for density update.
  Loop over occupied states selected for charge density update.
  Allocating        0.050 MB for KS_eigenvector
  Integrating Hamiltonian matrix: batch-based integration.
  Time summed over all CPUs for integration: real work        0.517 s, elapsed        0.546 s
  Integrating overlap matrix.
  Time summed over all CPUs for integration: real work        0.217 s, elapsed        0.239 s
  Deallocating overlap matrix.

  Updating Kohn-Sham eigenvalues and eigenvectors using ELSI and the ELPA eigensolver.
  ELPA settings:
  | ELPA solver          1
  | Time full => band           :     0.001 s
  | Time band => tridiagonal    :     0.001 s
  | Time solve tridiagonal      :     0.001 s
  Overlap matrix is nonsingular
  | Lowest eigenvalue of overlap  :  0.44E-02
  | Highest eigenvalue of overlap :  0.63E+01
  Finished singularity check of overlap matrix
  | Time :     0.003 s
  Finished Cholesky decomposition
  | Time :     0.002 s
  Finished transformation to standard eigenproblem
  | Time :     0.001 s
  Starting ELPA eigensolver
  | Time full => tridiagonal    :     0.002 s
  | Time solve tridiagonal      :     0.000 s
  | Time ev tridiagonal => full :     0.000 s
  Finished solving standard eigenproblem
  | Time :     0.003 s
  Finished back-transformation of eigenvectors
  | Time :     0.000 s

  Obtaining occupation numbers and chemical potential using ELSI.
  | Chemical potential (Fermi level):    -9.87226808eV
  Writing Kohn-Sham eigenvalues.

  State    Occupation    Eigenvalue [Ha]    Eigenvalue [eV]
      1       2.00000         -19.007463         -517.21939
      2       2.00000         -18.977105         -516.39329
      3       2.00000         -14.247353         -387.69019
      4       2.00000         -10.166891         -276.65518
      5       2.00000         -10.141973         -275.97712
      6       2.00000         -10.131887         -275.70267
      7       2.00000          -1.181226          -32.14279
      8       2.00000          -1.101068          -29.96158
      9       2.00000          -0.993592          -27.03702
     10       2.00000          -0.860044          -23.40298
     11       2.00000          -0.755705          -20.56378
     12       2.00000          -0.680524          -18.51801
     13       2.00000          -0.622065          -16.92725
     14       2.00000          -0.620240          -16.87759
     15       2.00000          -0.592255          -16.11607
     16       2.00000          -0.561419          -15.27699
     17       2.00000          -0.551379          -15.00378
     18       2.00000          -0.520810          -14.17196
     19       2.00000          -0.517309          -14.07669
     20       2.00000          -0.502817          -13.68235
     21       2.00000          -0.471331          -12.82558
     22       2.00000          -0.428732          -11.66639
     23       2.00000          -0.418974          -11.40086
     24       2.00000          -0.385203          -10.48190
     25       0.00000          -0.152701           -4.15522
     26       0.00000          -0.063000           -1.71432
     27       0.00000          -0.026780           -0.72872
     28       0.00000          -0.004132           -0.11244
     29       0.00000           0.003186            0.08670
     30       0.00000           0.008013            0.21806
     31       0.00000           0.020890            0.56844
     32       0.00000           0.030259            0.82338
     33       0.00000           0.034886            0.94931
     34       0.00000           0.071195            1.93733
     35       0.00000           0.092711            2.52279
     36       0.00000           0.130495            3.55094
     37       0.00000           0.172260            4.68744
     38       0.00000           0.195393            5.31691
     39       0.00000           0.204887            5.57525
     40       0.00000           0.223637            6.08548
     41       0.00000           0.241315            6.56652
     42       0.00000           0.265706            7.23024
     43       0.00000           0.290096            7.89390
     44       0.00000           0.318278            8.66080
     45       0.00000           0.339980            9.25134
     46       0.00000           0.357246            9.72115
     47       0.00000           0.363095            9.88032
     48       0.00000           0.386820           10.52591
     49       0.00000           0.420250           11.43558
     50       0.00000           0.479158           13.03856
     51       0.00000           0.498976           13.57783
     52       0.00000           0.541585           14.73727
     53       0.00000           0.554152           15.07923

  Highest occupied state (VBM) at    -10.48189505 eV
  | Occupation number:      2.00000000

  Lowest unoccupied state (CBM) at    -4.15521731 eV
  | Occupation number:      0.00000000

  Overall HOMO-LUMO gap:      6.32667773 eV.
  Calculating total energy contributions from superposition of free atom densities.

  Total energy components:
  | Sum of eigenvalues            :        -188.87472739 Ha       -5139.54282947 eV
  | XC energy correction          :         -41.79954992 Ha       -1137.42362490 eV
  | XC potential correction       :          53.73494338 Ha        1462.20220552 eV
  | Free-atom electrostatic energy:        -146.83212687 Ha       -3995.50546125 eV
  | Hartree energy correction     :           0.00000000 Ha           0.00000000 eV
  | vdW energy correction         :           0.00000000 Ha           0.00000000 eV
  | Entropy correction            :           0.00000000 Ha           0.00000000 eV
  | ---------------------------
  | Total energy                  :        -323.77146081 Ha       -8810.26971010 eV
  | Total energy, T -> 0          :        -323.77146081 Ha       -8810.26971010 eV  <-- do not rely on this value for anything but (periodic) metals
  | Electronic free energy        :        -323.77146081 Ha       -8810.26971010 eV

  Derived energy quantities:
  | Kinetic energy                :         320.50736551 Ha        8721.44915797 eV
  | Electrostatic energy          :        -602.47927639 Ha      -16394.29524317 eV
  | Energy correction for multipole
  | error in Hartree potential    :           0.00000000 Ha           0.00000000 eV
  | Sum of eigenvalues per atom                           :        -395.34944842 eV
  | Total energy (T->0) per atom                          :        -677.71305462 eV  <-- do not rely on this value for anything but (periodic) metals
  | Electronic free energy per atom                       :        -677.71305462 eV
  Initialize hartree_potential_storage
  Max. number of atoms included in rho_multipole:           13

  End scf initialization - timings             :  max(cpu_time)    wall_clock(cpu1)
  | Time for scf. initialization               :        0.098 s           0.099 s
  | Boundary condition initialization          :        0.000 s           0.000 s
  | Integration                                :        0.040 s           0.041 s
  | Solution of K.-S. eqns.                    :        0.010 s           0.009 s
  | Grid partitioning                          :        0.025 s           0.025 s
  | Preloading free-atom quantities on grid    :        0.003 s           0.002 s
  | Free-atom superposition energy             :        0.005 s           0.005 s
  | Total energy evaluation                    :        0.000 s           0.000 s

  Partial memory accounting:
  | Current value for overall tracked memory usage on task 0  :           0.133 MB
  | Peak value for overall tracked memory usage on task 0     :           0.817 MB after allocating wave
  | Largest tracked array allocation on task 0 so far         :           0.171 MB  when allocating H_times_psi
  Note:  These values currently only include a subset of arrays which are explicitly tracked.
  The "true" memory usage will be greater.
------------------------------------------------------------

------------------------------------------------------------
          Begin self-consistency iteration #    1

  Date     :  20200601, Time     :  005823.804
------------------------------------------------------------
  Evaluating new KS density.
  Integration grid: deviation in total charge (<rho> - N_e) =   1.421085E-14
  Pulay mixing of updated and previous charge densities.

  Evaluating partitioned Hartree potential by multipole expansion.
  | Analytical far-field extrapolation by fixed multipoles:
  | Hartree multipole sum: apparent total charge =  -0.256938E-03
  Summing up the Hartree potential.
  Time summed over all CPUs for potential: real work        0.421 s, elapsed        0.438 s
  | RMS charge density error from multipole expansion :   0.585572E-02

  Integrating Hamiltonian matrix: batch-based integration.
  Time summed over all CPUs for integration: real work        0.505 s, elapsed        0.534 s

  Updating Kohn-Sham eigenvalues and eigenvectors using ELSI and the ELPA eigensolver.
  ELPA settings:
  | ELPA solver          1
  Finished transformation to standard eigenproblem
  | Time :     0.000 s
  Starting ELPA eigensolver
  | Time full => tridiagonal    :     0.002 s
  | Time solve tridiagonal      :     0.000 s
  | Time ev tridiagonal => full :     0.000 s
  Finished solving standard eigenproblem
  | Time :     0.003 s
  Finished back-transformation of eigenvectors
  | Time :     0.000 s

  Obtaining occupation numbers and chemical potential using ELSI.
  | Chemical potential (Fermi level):    -4.79224048eV
  Writing Kohn-Sham eigenvalues.

  State    Occupation    Eigenvalue [Ha]    Eigenvalue [eV]
      1       2.00000         -18.899651         -514.28568
      2       2.00000         -18.828204         -512.34150
      3       2.00000         -14.114004         -384.06158
      4       2.00000         -10.109710         -275.09919
      5       2.00000         -10.068480         -273.97728
      6       2.00000         -10.037429         -273.13234
      7       2.00000          -1.126846          -30.66305
      8       2.00000          -1.031919          -28.07994
      9       2.00000          -0.933033          -25.38912
     10       2.00000          -0.799417          -21.75326
     11       2.00000          -0.705398          -19.19484
     12       2.00000          -0.630637          -17.16050
     13       2.00000          -0.573054          -15.59360
     14       2.00000          -0.566340          -15.41089
     15       2.00000          -0.533771          -14.52464
     16       2.00000          -0.503143          -13.69121
     17       2.00000          -0.487409          -13.26308
     18       2.00000          -0.465801          -12.67509
     19       2.00000          -0.458599          -12.47912
     20       2.00000          -0.444102          -12.08462
     21       2.00000          -0.416729          -11.33977
     22       2.00000          -0.361260           -9.83037
     23       2.00000          -0.350870           -9.54765
     24       2.00000          -0.316063           -8.60052
     25       0.00000          -0.110400           -3.00414
     26       0.00000          -0.040825           -1.11092
     27       0.00000           0.008618            0.23452
     28       0.00000           0.023193            0.63112
     29       0.00000           0.033568            0.91343
     30       0.00000           0.041377            1.12594
     31       0.00000           0.055144            1.50054
     32       0.00000           0.064589            1.75754
     33       0.00000           0.070394            1.91552
     34       0.00000           0.109279            2.97364
     35       0.00000           0.130154            3.54166
     36       0.00000           0.161377            4.39129
     37       0.00000           0.202172            5.50139
     38       0.00000           0.222303            6.04917
     39       0.00000           0.233909            6.36498
     40       0.00000           0.256561            6.98139
     41       0.00000           0.271507            7.38809
     42       0.00000           0.299593            8.15234
     43       0.00000           0.325129            8.84721
     44       0.00000           0.356572            9.70281
     45       0.00000           0.380036           10.34130
     46       0.00000           0.394465           10.73395
     47       0.00000           0.406419           11.05922
     48       0.00000           0.422414           11.49448
     49       0.00000           0.453304           12.33503
     50       0.00000           0.509340           13.85984
     51       0.00000           0.531322           14.45801
     52       0.00000           0.582553           15.85208
     53       0.00000           0.585008           15.91887

  Highest occupied state (VBM) at     -8.60051523 eV
  | Occupation number:      2.00000000

  Lowest unoccupied state (CBM) at    -3.00413951 eV
  | Occupation number:      0.00000000

  Overall HOMO-LUMO gap:      5.59637573 eV.

  Total energy components:
  | Sum of eigenvalues            :        -185.52373601 Ha       -5048.35771440 eV
  | XC energy correction          :         -42.12424860 Ha       -1146.25912538 eV
  | XC potential correction       :          54.15720869 Ha        1473.69262907 eV
  | Free-atom electrostatic energy:        -146.83212687 Ha       -3995.50546125 eV
  | Hartree energy correction     :          -3.27529057 Ha         -89.12519096 eV
  | vdW energy correction         :           0.00000000 Ha           0.00000000 eV
  | Entropy correction            :           0.00000000 Ha           0.00000000 eV
  | ---------------------------
  | Total energy                  :        -323.59819336 Ha       -8805.55486292 eV
  | Total energy, T -> 0          :        -323.59819336 Ha       -8805.55486292 eV  <-- do not rely on this value for anything but (periodic) metals
  | Electronic free energy        :        -323.59819336 Ha       -8805.55486292 eV

  Derived energy quantities:
  | Kinetic energy                :         322.27259860 Ha        8769.48359441 eV
  | Electrostatic energy          :        -603.74654336 Ha      -16428.77933195 eV
  | Energy correction for multipole
  | error in Hartree potential    :           0.01147077 Ha           0.31213561 eV
  | Sum of eigenvalues per atom                           :        -388.33520880 eV
  | Total energy (T->0) per atom                          :        -677.35037407 eV  <-- do not rely on this value for anything but (periodic) metals
  | Electronic free energy per atom                       :        -677.35037407 eV

  Self-consistency convergence accuracy:
  | Change of charge density      :  0.5753E+00
  | Change of sum of eigenvalues  :  0.9119E+02 eV
  | Change of total energy        :  0.4715E+01 eV

  End self-consistency iteration #     1       :  max(cpu_time)    wall_clock(cpu1)
  | Time for this iteration                    :        0.078 s           0.077 s
  | Charge density update                      :        0.022 s           0.021 s
  | Density mixing                             :        0.000 s           0.001 s
  | Hartree multipole update                   :        0.001 s           0.001 s
  | Hartree multipole summation                :        0.022 s           0.023 s
  | Integration                                :        0.027 s           0.027 s
  | Solution of K.-S. eqns.                    :        0.004 s           0.004 s
  | Total energy evaluation                    :        0.000 s           0.000 s

  Partial memory accounting:
  | Current value for overall tracked memory usage on task 0  :           0.133 MB
  | Peak value for overall tracked memory usage on task 0     :           0.817 MB after allocating wave
  | Largest tracked array allocation on task 0 so far         :           0.513 MB  when allocating gradient_basis_wave
  Note:  These values currently only include a subset of arrays which are explicitly tracked.
  The "true" memory usage will be greater.
------------------------------------------------------------

------------------------------------------------------------
          Begin self-consistency iteration #    2

  Date     :  20200601, Time     :  005823.887
------------------------------------------------------------
  Evaluating new KS density.
  Integration grid: deviation in total charge (<rho> - N_e) =   7.105427E-15
  Pulay mixing of updated and previous charge densities.

  Evaluating partitioned Hartree potential by multipole expansion.
  | Analytical far-field extrapolation by fixed multipoles:
  | Hartree multipole sum: apparent total charge =  -0.387496E-03
  Summing up the Hartree potential.
  Time summed over all CPUs for potential: real work        0.419 s, elapsed        0.436 s
  | RMS charge density error from multipole expansion :   0.140141E-01

  Integrating Hamiltonian matrix: batch-based integration.
  Time summed over all CPUs for integration: real work        0.505 s, elapsed        0.535 s

  Updating Kohn-Sham eigenvalues and eigenvectors using ELSI and the ELPA eigensolver.
  ELPA settings:
  | ELPA solver          1
  Finished transformation to standard eigenproblem
  | Time :     0.000 s
  Starting ELPA eigensolver
  | Time full => tridiagonal    :     0.002 s
  | Time solve tridiagonal      :     0.000 s
  | Time ev tridiagonal => full :     0.000 s
  Finished solving standard eigenproblem
  | Time :     0.003 s
  Finished back-transformation of eigenvectors
  | Time :     0.000 s

  Obtaining occupation numbers and chemical potential using ELSI.
  | Chemical potential (Fermi level):    -3.49199526eV
  Highest occupied state (VBM) at     -6.66129960 eV
  | Occupation number:      2.00000000

  Lowest unoccupied state (CBM) at    -1.55610176 eV
  | Occupation number:      0.00000000

  Overall HOMO-LUMO gap:      5.10519784 eV.

  Checking to see if s.c.f. parameters should be adjusted.

  Total energy components:
  | Sum of eigenvalues            :        -181.95315114 Ha       -4951.19715676 eV
  | XC energy correction          :         -42.48298791 Ha       -1156.02091872 eV
  | XC potential correction       :          54.62220122 Ha        1486.34571963 eV
  | Free-atom electrostatic energy:        -146.83212687 Ha       -3995.50546125 eV
  | Hartree energy correction     :          -6.87614730 Ha        -187.10948808 eV
  | vdW energy correction         :           0.00000000 Ha           0.00000000 eV
  | Entropy correction            :           0.00000000 Ha           0.00000000 eV
  | ---------------------------
  | Total energy                  :        -323.52221201 Ha       -8803.48730518 eV
  | Total energy, T -> 0          :        -323.52221201 Ha       -8803.48730518 eV  <-- do not rely on this value for anything but (periodic) metals
  | Electronic free energy        :        -323.52221201 Ha       -8803.48730518 eV

  Derived energy quantities:
  | Kinetic energy                :         323.59254161 Ha        8805.40107115 eV
  | Electrostatic energy          :        -604.63176571 Ha      -16452.86745760 eV
  | Energy correction for multipole
  | error in Hartree potential    :           0.02520567 Ha           0.68588108 eV
  | Sum of eigenvalues per atom                           :        -380.86131975 eV
  | Total energy (T->0) per atom                          :        -677.19133117 eV  <-- do not rely on this value for anything but (periodic) metals
  | Electronic free energy per atom                       :        -677.19133117 eV

  Self-consistency convergence accuracy:
  | Change of charge density      :  0.3595E+00
  | Change of sum of eigenvalues  :  0.9716E+02 eV
  | Change of total energy        :  0.2068E+01 eV

  End self-consistency iteration #     2       :  max(cpu_time)    wall_clock(cpu1)
  | Time for this iteration                    :        0.081 s           0.079 s
  | Charge density update                      :        0.026 s           0.024 s
  | Density mixing                             :        0.001 s           0.000 s
  | Hartree multipole update                   :        0.001 s           0.002 s
  | Hartree multipole summation                :        0.022 s           0.022 s
  | Integration                                :        0.027 s           0.027 s
  | Solution of K.-S. eqns.                    :        0.004 s           0.004 s
  | Total energy evaluation                    :        0.000 s           0.000 s

  Partial memory accounting:
  | Current value for overall tracked memory usage on task 0  :           0.134 MB
  | Peak value for overall tracked memory usage on task 0     :           0.817 MB after allocating wave
  | Largest tracked array allocation on task 0 so far         :           0.513 MB  when allocating gradient_basis_wave
  Note:  These values currently only include a subset of arrays which are explicitly tracked.
  The "true" memory usage will be greater.
------------------------------------------------------------

------------------------------------------------------------
          Begin self-consistency iteration #    3

  Date     :  20200601, Time     :  005823.975
------------------------------------------------------------
  Evaluating new KS density.
  Integration grid: deviation in total charge (<rho> - N_e) =  -7.105427E-15
  Pulay mixing of updated and previous charge densities.

  Evaluating partitioned Hartree potential by multipole expansion.
  | Analytical far-field extrapolation by fixed multipoles:
  | Hartree multipole sum: apparent total charge =  -0.483015E-03
  Summing up the Hartree potential.
  Time summed over all CPUs for potential: real work        0.421 s, elapsed        0.463 s
  | RMS charge density error from multipole expansion :   0.222355E-01

  Integrating Hamiltonian matrix: batch-based integration.
  Time summed over all CPUs for integration: real work        0.505 s, elapsed        0.535 s

  Updating Kohn-Sham eigenvalues and eigenvectors using ELSI and the ELPA eigensolver.
  ELPA settings:
  | ELPA solver          1
  Finished transformation to standard eigenproblem
  | Time :     0.000 s
  Starting ELPA eigensolver
  | Time full => tridiagonal    :     0.002 s
  | Time solve tridiagonal      :     0.000 s
  | Time ev tridiagonal => full :     0.000 s
  Finished solving standard eigenproblem
  | Time :     0.003 s
  Finished back-transformation of eigenvectors
  | Time :     0.000 s

  Obtaining occupation numbers and chemical potential using ELSI.
  | Chemical potential (Fermi level):    -2.84648995eV
  Highest occupied state (VBM) at     -5.99752736 eV
  | Occupation number:      2.00000000

  Lowest unoccupied state (CBM) at    -0.78206707 eV
  | Occupation number:      0.00000000

  Overall HOMO-LUMO gap:      5.21546029 eV.

  Total energy components:
  | Sum of eigenvalues            :        -180.60155259 Ha       -4914.41828881 eV
  | XC energy correction          :         -42.63680667 Ha       -1160.20654018 eV
  | XC potential correction       :          54.81839736 Ha        1491.68448823 eV
  | Free-atom electrostatic energy:        -146.83212687 Ha       -3995.50546125 eV
  | Hartree energy correction     :          -8.25793909 Ha        -224.70995587 eV
  | vdW energy correction         :           0.00000000 Ha           0.00000000 eV
  | Entropy correction            :           0.00000000 Ha           0.00000000 eV
  | ---------------------------
  | Total energy                  :        -323.51002787 Ha       -8803.15575788 eV
  | Total energy, T -> 0          :        -323.51002787 Ha       -8803.15575788 eV  <-- do not rely on this value for anything but (periodic) metals
  | Electronic free energy        :        -323.51002787 Ha       -8803.15575788 eV

  Derived energy quantities:
  | Kinetic energy                :         323.18949779 Ha        8794.43369082 eV
  | Electrostatic energy          :        -604.06271899 Ha      -16437.38290852 eV
  | Energy correction for multipole
  | error in Hartree potential    :           0.03532970 Ha           0.96137000 eV
  | Sum of eigenvalues per atom                           :        -378.03217606 eV
  | Total energy (T->0) per atom                          :        -677.16582753 eV  <-- do not rely on this value for anything but (periodic) metals
  | Electronic free energy per atom                       :        -677.16582753 eV

  Self-consistency convergence accuracy:
  | Change of charge density      :  0.1994E+00
  | Change of sum of eigenvalues  :  0.3678E+02 eV
  | Change of total energy        :  0.3315E+00 eV

  End self-consistency iteration #     3       :  max(cpu_time)    wall_clock(cpu1)
  | Time for this iteration                    :        0.082 s           0.077 s
  | Charge density update                      :        0.026 s           0.020 s
  | Density mixing                             :        0.001 s           0.001 s
  | Hartree multipole update                   :        0.001 s           0.001 s
  | Hartree multipole summation                :        0.023 s           0.024 s
  | Integration                                :        0.027 s           0.027 s
  | Solution of K.-S. eqns.                    :        0.004 s           0.004 s
  | Total energy evaluation                    :        0.000 s           0.000 s

  Partial memory accounting:
  | Current value for overall tracked memory usage on task 0  :           0.134 MB
  | Peak value for overall tracked memory usage on task 0     :           0.817 MB after allocating gradient_basis_wave
  | Largest tracked array allocation on task 0 so far         :           0.513 MB  when allocating gradient_basis_wave
  Note:  These values currently only include a subset of arrays which are explicitly tracked.
  The "true" memory usage will be greater.
------------------------------------------------------------

------------------------------------------------------------
          Begin self-consistency iteration #    4

  Date     :  20200601, Time     :  005824.057
------------------------------------------------------------
  Evaluating new KS density.
  Integration grid: deviation in total charge (<rho> - N_e) =  -7.105427E-15
  Pulay mixing of updated and previous charge densities.

  Evaluating partitioned Hartree potential by multipole expansion.
  | Analytical far-field extrapolation by fixed multipoles:
  | Hartree multipole sum: apparent total charge =  -0.513915E-03
  Summing up the Hartree potential.
  Time summed over all CPUs for potential: real work        0.413 s, elapsed        0.435 s
  | RMS charge density error from multipole expansion :   0.256598E-01

  Integrating Hamiltonian matrix: batch-based integration.
  Time summed over all CPUs for integration: real work        0.504 s, elapsed        0.534 s

  Updating Kohn-Sham eigenvalues and eigenvectors using ELSI and the ELPA eigensolver.
  ELPA settings:
  | ELPA solver          1
  Finished transformation to standard eigenproblem
  | Time :     0.000 s
  Starting ELPA eigensolver
  | Time full => tridiagonal    :     0.002 s
  | Time solve tridiagonal      :     0.000 s
  | Time ev tridiagonal => full :     0.000 s
  Finished solving standard eigenproblem
  | Time :     0.002 s
  Finished back-transformation of eigenvectors
  | Time :     0.000 s

  Obtaining occupation numbers and chemical potential using ELSI.
  | Chemical potential (Fermi level):    -2.75437354eV
  Highest occupied state (VBM) at     -5.71763880 eV
  | Occupation number:      2.00000000

  Lowest unoccupied state (CBM) at    -0.71316636 eV
  | Occupation number:      0.00000000

  Overall HOMO-LUMO gap:      5.00447244 eV.

  Total energy components:
  | Sum of eigenvalues            :        -180.52150741 Ha       -4912.24014873 eV
  | XC energy correction          :         -42.66903237 Ha       -1161.08344617 eV
  | XC potential correction       :          54.85866741 Ha        1492.78029204 eV
  | Free-atom electrostatic energy:        -146.83212687 Ha       -3995.50546125 eV
  | Hartree energy correction     :          -8.34510354 Ha        -227.08182109 eV
  | vdW energy correction         :           0.00000000 Ha           0.00000000 eV
  | Entropy correction            :           0.00000000 Ha           0.00000000 eV
  | ---------------------------
  | Total energy                  :        -323.50910279 Ha       -8803.13058520 eV
  | Total energy, T -> 0          :        -323.50910279 Ha       -8803.13058520 eV  <-- do not rely on this value for anything but (periodic) metals
  | Electronic free energy        :        -323.50910279 Ha       -8803.13058520 eV

  Derived energy quantities:
  | Kinetic energy                :         322.77641765 Ha        8783.19320808 eV
  | Electrostatic energy          :        -603.61648806 Ha      -16425.24034711 eV
  | Energy correction for multipole
  | error in Hartree potential    :           0.03890599 Ha           1.05868593 eV
  | Sum of eigenvalues per atom                           :        -377.86462683 eV
  | Total energy (T->0) per atom                          :        -677.16389117 eV  <-- do not rely on this value for anything but (periodic) metals
  | Electronic free energy per atom                       :        -677.16389117 eV

  Self-consistency convergence accuracy:
  | Change of charge density      :  0.6351E-01
  | Change of sum of eigenvalues  :  0.2178E+01 eV
  | Change of total energy        :  0.2517E-01 eV

  End self-consistency iteration #     4       :  max(cpu_time)    wall_clock(cpu1)
  | Time for this iteration                    :        0.081 s           0.079 s
  | Charge density update                      :        0.026 s           0.024 s
  | Density mixing                             :        0.001 s           0.001 s
  | Hartree multipole update                   :        0.001 s           0.001 s
  | Hartree multipole summation                :        0.022 s           0.022 s
  | Integration                                :        0.027 s           0.027 s
  | Solution of K.-S. eqns.                    :        0.004 s           0.004 s
  | Total energy evaluation                    :        0.000 s           0.000 s

  Partial memory accounting:
  | Current value for overall tracked memory usage on task 0  :           0.134 MB
  | Peak value for overall tracked memory usage on task 0     :           0.817 MB after allocating gradient_basis_wave
  | Largest tracked array allocation on task 0 so far         :           0.513 MB  when allocating gradient_basis_wave
  Note:  These values currently only include a subset of arrays which are explicitly tracked.
  The "true" memory usage will be greater.
------------------------------------------------------------

------------------------------------------------------------
          Begin self-consistency iteration #    5

  Date     :  20200601, Time     :  005824.145
------------------------------------------------------------
  Evaluating new KS density.
  Integration grid: deviation in total charge (<rho> - N_e) =   0.000000E+00
  Pulay mixing of updated and previous charge densities.

  Evaluating partitioned Hartree potential by multipole expansion.
  | Analytical far-field extrapolation by fixed multipoles:
  | Hartree multipole sum: apparent total charge =  -0.509405E-03
  Summing up the Hartree potential.
  Time summed over all CPUs for potential: real work        0.413 s, elapsed        0.436 s
  | RMS charge density error from multipole expansion :   0.254009E-01

  Integrating Hamiltonian matrix: batch-based integration.
  Time summed over all CPUs for integration: real work        0.505 s, elapsed        0.535 s

  Updating Kohn-Sham eigenvalues and eigenvectors using ELSI and the ELPA eigensolver.
  ELPA settings:
  | ELPA solver          1
  Finished transformation to standard eigenproblem
  | Time :     0.000 s
  Starting ELPA eigensolver
  | Time full => tridiagonal    :     0.002 s
  | Time solve tridiagonal      :     0.000 s
  | Time ev tridiagonal => full :     0.000 s
  Finished solving standard eigenproblem
  | Time :     0.003 s
  Finished back-transformation of eigenvectors
  | Time :     0.000 s

  Obtaining occupation numbers and chemical potential using ELSI.
  | Chemical potential (Fermi level):    -2.80469671eV
  Highest occupied state (VBM) at     -5.83968666 eV
  | Occupation number:      2.00000000

  Lowest unoccupied state (CBM) at    -0.77995689 eV
  | Occupation number:      0.00000000

  Overall HOMO-LUMO gap:      5.05972977 eV.

  Total energy components:
  | Sum of eigenvalues            :        -180.65530031 Ha       -4915.88083874 eV
  | XC energy correction          :         -42.65141629 Ha       -1160.60408807 eV
  | XC potential correction       :          54.83585126 Ha        1492.15943315 eV
  | Free-atom electrostatic energy:        -146.83212687 Ha       -3995.50546125 eV
  | Hartree energy correction     :          -8.20582281 Ha        -223.29179955 eV
  | vdW energy correction         :           0.00000000 Ha           0.00000000 eV
  | Entropy correction            :           0.00000000 Ha           0.00000000 eV
  | ---------------------------
  | Total energy                  :        -323.50881501 Ha       -8803.12275446 eV
  | Total energy, T -> 0          :        -323.50881501 Ha       -8803.12275446 eV  <-- do not rely on this value for anything but (periodic) metals
  | Electronic free energy        :        -323.50881501 Ha       -8803.12275446 eV

  Derived energy quantities:
  | Kinetic energy                :         322.70824887 Ha        8781.33824125 eV
  | Electrostatic energy          :        -603.56564759 Ha      -16423.85690764 eV
  | Energy correction for multipole
  | error in Hartree potential    :           0.03834922 Ha           1.04353533 eV
  | Sum of eigenvalues per atom                           :        -378.14467990 eV
  | Total energy (T->0) per atom                          :        -677.16328880 eV  <-- do not rely on this value for anything but (periodic) metals
  | Electronic free energy per atom                       :        -677.16328880 eV

  Self-consistency convergence accuracy:
  | Change of charge density      :  0.2172E-01
  | Change of sum of eigenvalues  : -0.3641E+01 eV
  | Change of total energy        :  0.7831E-02 eV

  End self-consistency iteration #     5       :  max(cpu_time)    wall_clock(cpu1)
  | Time for this iteration                    :        0.081 s           0.076 s
  | Charge density update                      :        0.026 s           0.020 s
  | Density mixing                             :        0.001 s           0.001 s
  | Hartree multipole update                   :        0.001 s           0.001 s
  | Hartree multipole summation                :        0.022 s           0.022 s
  | Integration                                :        0.027 s           0.027 s
  | Solution of K.-S. eqns.                    :        0.004 s           0.004 s
  | Total energy evaluation                    :        0.000 s           0.000 s

  Partial memory accounting:
  | Current value for overall tracked memory usage on task 0  :           0.134 MB
  | Peak value for overall tracked memory usage on task 0     :           0.817 MB after allocating gradient_basis_wave
  | Largest tracked array allocation on task 0 so far         :           0.513 MB  when allocating gradient_basis_wave
  Note:  These values currently only include a subset of arrays which are explicitly tracked.
  The "true" memory usage will be greater.
------------------------------------------------------------

------------------------------------------------------------
          Begin self-consistency iteration #    6

  Date     :  20200601, Time     :  005824.231
------------------------------------------------------------
  Evaluating new KS density.
  Integration grid: deviation in total charge (<rho> - N_e) =   1.421085E-14
  Pulay mixing of updated and previous charge densities.

  Evaluating partitioned Hartree potential by multipole expansion.
[...]
  |   Hirshfeld dipole moment :      0.06550867
  |   Hirshfeld second moments:     -0.02206508      -0.02617523      -0.01848170
  |                                 -0.02617523      -0.02492294       0.01344306
  |                                 -0.01848170       0.01344306      -0.01641160
  ----------------------------------------------------------------------
  | Atom    12: O
  |   Hirshfeld charge        :     -0.15397665
  |   Free atom volume        :     23.61338643
  |   Hirshfeld volume        :     21.26793707
  |   Hirshfeld dipole vector :      0.02253513       0.03392335      -0.01520507
  |   Hirshfeld dipole moment :      0.04347206
  |   Hirshfeld second moments:      0.04737647      -0.01114207       0.01496086
  |                                 -0.01114207       0.02748210       0.01339673
  |                                  0.01496086       0.01339673       0.07267038
  ----------------------------------------------------------------------
  | Atom    13: H
  |   Hirshfeld charge        :      0.11984264
  |   Free atom volume        :      9.95071624
  |   Hirshfeld volume        :      7.24192236
  |   Hirshfeld dipole vector :     -0.02383486      -0.00076918      -0.06245077
  |   Hirshfeld dipole moment :      0.06684901
  |   Hirshfeld second moments:      0.10118737      -0.01151957       0.00977086
  |                                 -0.01151957       0.07156224       0.03354740
  |                                  0.00977086       0.03354740       0.06603102
  ----------------------------------------------------------------------


  Total energy components:
  | Sum of eigenvalues            :        -180.70046971 Ha       -4917.10996073 eV
  | XC energy correction          :         -42.64189408 Ha       -1160.34497570 eV
  | XC potential correction       :          54.82357007 Ha        1491.82524476 eV
  | Free-atom electrostatic energy:        -146.83212687 Ha       -3995.50546125 eV
  | Hartree energy correction     :          -8.15780277 Ha        -221.98510796 eV
  | vdW energy correction         :          -0.00355511 Ha          -0.09673943 eV
  | Entropy correction            :           0.00000000 Ha           0.00000000 eV
  | ---------------------------
  | Total energy                  :        -323.51227848 Ha       -8803.21700031 eV
  | Total energy, T -> 0          :        -323.51227848 Ha       -8803.21700031 eV  <-- do not rely on this value for anything but (periodic) metals
  | Electronic free energy        :        -323.51227848 Ha       -8803.21700031 eV

  Derived energy quantities:
  | Kinetic energy                :         322.57460033 Ha        8777.70147947 eV
  | Electrostatic energy          :        -603.44142962 Ha      -16420.47676465 eV
  | Energy correction for multipole
  | error in Hartree potential    :           0.03837794 Ha           1.04431697 eV
  | Sum of eigenvalues per atom                           :        -378.23922775 eV
  | Total energy (T->0) per atom                          :        -677.17053849 eV  <-- do not rely on this value for anything but (periodic) metals
  | Electronic free energy per atom                       :        -677.17053849 eV

  atomic forces [eV/Ang]:
  -----------------------
  atom #    1
   Hellmann-Feynman              :  0.157441E+01 -0.145906E+00  0.155821E+01
   Ionic forces                  :  0.000000E+00  0.000000E+00  0.000000E+00
   Multipole                     :  0.659597E-01  0.406572E+00 -0.320169E+00
   Pulay + GGA                   : -0.128722E+01  0.272069E+00 -0.148308E+01
   Van der Waals                 :  0.209460E-02  0.724433E-03 -0.112036E-02
   ----------------------------------------------------------------
   Total forces(   1)            :  0.355249E+00  0.533460E+00 -0.246158E+00
  atom #    2
   Hellmann-Feynman              :  0.241895E+00  0.314414E-01  0.120180E+00
   Ionic forces                  :  0.000000E+00  0.000000E+00  0.000000E+00
   Multipole                     :  0.187313E+00  0.357459E-01  0.277002E-02
   Pulay + GGA                   : -0.129697E+00 -0.537014E-02  0.576430E-01
   Van der Waals                 :  0.309246E-02 -0.653545E-02 -0.367441E-02
   ----------------------------------------------------------------
   Total forces(   2)            :  0.302604E+00  0.552817E-01  0.176919E+00
  atom #    3
   Hellmann-Feynman              : -0.755956E+01 -0.781207E+01  0.777939E+00
   Ionic forces                  :  0.000000E+00  0.000000E+00  0.000000E+00
   Multipole                     : -0.173699E+00  0.126240E+00 -0.840035E+00
   Pulay + GGA                   :  0.749313E+01  0.723241E+01  0.838650E+00
   Van der Waals                 :  0.502488E-02 -0.537037E-02 -0.101320E-01
   ----------------------------------------------------------------
   Total forces(   3)            : -0.235102E+00 -0.458789E+00  0.766423E+00
  atom #    4
   Hellmann-Feynman              :  0.101504E+00  0.748962E-01 -0.236867E+00
   Ionic forces                  :  0.000000E+00  0.000000E+00  0.000000E+00
   Multipole                     : -0.588347E-01  0.671686E-01 -0.852194E-01
   Pulay + GGA                   :  0.166423E-01 -0.230904E+00  0.578062E-01
   Van der Waals                 : -0.697027E-03 -0.414414E-02 -0.725627E-02
   ----------------------------------------------------------------
   Total forces(   4)            :  0.586148E-01 -0.929837E-01 -0.271537E+00
  atom #    5
   Hellmann-Feynman              :  0.733673E-01  0.135295E+00 -0.278738E+00
   Ionic forces                  :  0.000000E+00  0.000000E+00  0.000000E+00
   Multipole                     :  0.357686E-01 -0.219420E-01 -0.128739E+00
   Pulay + GGA                   : -0.194663E+00 -0.950010E-02  0.143965E+00
   Van der Waals                 : -0.295638E-03  0.436957E-02  0.166720E-02
   ----------------------------------------------------------------
   Total forces(   5)            : -0.858227E-01  0.108222E+00 -0.261845E+00
  atom #    6
   Hellmann-Feynman              : -0.195167E+00 -0.500143E+00  0.135868E+00
   Ionic forces                  :  0.000000E+00  0.000000E+00  0.000000E+00
   Multipole                     : -0.754746E-01  0.602570E+00  0.260671E+00
   Pulay + GGA                   :  0.371442E+00 -0.611516E+00 -0.323237E+00
   Van der Waals                 : -0.156074E-02  0.559808E-02 -0.155514E-02
   ----------------------------------------------------------------
   Total forces(   6)            :  0.992400E-01 -0.503491E+00  0.717470E-01
  atom #    7
   Hellmann-Feynman              :  0.135124E+00  0.696205E-01 -0.179972E+00
   Ionic forces                  :  0.000000E+00  0.000000E+00  0.000000E+00
   Multipole                     :  0.182862E-01  0.132162E+00 -0.111130E-01
   Pulay + GGA                   : -0.236675E-01 -0.689655E-01  0.775549E-01
   Van der Waals                 : -0.721520E-03  0.563835E-02  0.704971E-02
   ----------------------------------------------------------------
   Total forces(   7)            :  0.129021E+00  0.138455E+00 -0.106480E+00
  atom #    8
   Hellmann-Feynman              : -0.249895E+00 -0.379455E-01 -0.188082E-01
   Ionic forces                  :  0.000000E+00  0.000000E+00  0.000000E+00
   Multipole                     : -0.115810E+00  0.484008E-01  0.284544E-01
   Pulay + GGA                   :  0.107747E+00 -0.478301E-02  0.191178E-01
   Van der Waals                 : -0.392986E-02  0.988854E-03  0.808407E-02
   ----------------------------------------------------------------
   Total forces(   8)            : -0.261888E+00  0.666114E-02  0.368481E-01
  atom #    9
   Hellmann-Feynman              :  0.431594E-01 -0.399041E-01  0.160341E+00
   Ionic forces                  :  0.000000E+00  0.000000E+00  0.000000E+00
   Multipole                     :  0.175109E-01  0.702250E-01  0.120559E+00
   Pulay + GGA                   : -0.467364E-01 -0.371087E-01 -0.124422E+00
   Van der Waals                 : -0.314221E-02  0.548645E-02  0.817914E-03
   ----------------------------------------------------------------
   Total forces(   9)            :  0.107917E-01 -0.130143E-02  0.157296E+00
  atom #   10
   Hellmann-Feynman              :  0.300571E+01  0.248933E+01  0.900099E+00
   Ionic forces                  :  0.000000E+00  0.000000E+00  0.000000E+00
   Multipole                     :  0.631661E-01 -0.898216E-01  0.200551E+00
   Pulay + GGA                   : -0.179293E+01 -0.212240E+01  0.246124E+00
   Van der Waals                 :  0.154841E-02 -0.111543E-01 -0.114274E-02
   ----------------------------------------------------------------
   Total forces(  10)            :  0.127750E+01  0.265952E+00  0.134563E+01
  atom #   11
   Hellmann-Feynman              :  0.758869E+01 -0.463539E+01  0.121074E+02
   Ionic forces                  :  0.000000E+00  0.000000E+00  0.000000E+00
   Multipole                     :  0.431519E+00 -0.768411E+00  0.715647E+00
   Pulay + GGA                   : -0.689467E+01  0.597794E+01 -0.117651E+02
   Van der Waals                 :  0.121406E-02 -0.442656E-02  0.467966E-02
   ----------------------------------------------------------------
   Total forces(  11)            :  0.112675E+01  0.569712E+00  0.106259E+01
  atom #   12
   Hellmann-Feynman              : -0.905609E+01 -0.104621E+02  0.342491E+01
   Ionic forces                  :  0.000000E+00  0.000000E+00  0.000000E+00
   Multipole                     : -0.104040E+01 -0.130230E+01  0.115476E+00
   Pulay + GGA                   :  0.837323E+01  0.108595E+02 -0.485806E+01
   Van der Waals                 :  0.243729E-02  0.779923E-02  0.855899E-03
   ----------------------------------------------------------------
   Total forces(  12)            : -0.172082E+01 -0.897073E+00 -0.131682E+01
  atom #   13
   Hellmann-Feynman              : -0.110427E+01  0.380277E+00 -0.170108E+01
   Ionic forces                  :  0.000000E+00  0.000000E+00  0.000000E+00
   Multipole                     :  0.812380E-02  0.599475E-01 -0.820507E-01
   Pulay + GGA                   :  0.452310E-01 -0.164435E+00  0.358615E+00
   Van der Waals                 : -0.506471E-02  0.102581E-02  0.172648E-02
   ----------------------------------------------------------------
   Total forces(  13)            : -0.105598E+01  0.276816E+00 -0.142279E+01

  Timings for VdW correction (Tkatchenko-Scheffler 2009 or later):
  | CPU time:        0.011 s, Wall clock time:        0.008 s.
  Removing unitary transformations (pure translations, rotations) from forces on atoms.
  Atomic forces before filtering:
  | Net force on center of mass :   0.150400E-03  0.921839E-03 -0.817358E-02 eV/A
  | Net torque on center of mass:   0.102612E-01 -0.533169E-02 -0.433792E-02 eV
  Atomic forces after filtering:
  | Net force on center of mass :   0.356812E-15  0.000000E+00  0.356812E-15 eV/A
  | Net torque on center of mass:   0.708063E-16 -0.188817E-15  0.132172E-14 eV

  Energy and forces in a compact form:
  | Total energy uncorrected      :         -0.880321700030919E+04 eV
  | Total energy corrected        :         -0.880321700030919E+04 eV  <-- do not rely on this value for anything but (periodic) metals
  | Electronic free energy        :         -0.880321700030919E+04 eV
  Total atomic forces (unitary forces cleaned) [eV/Ang]:
  |   1          0.355232337596619E+00          0.533441630734308E+00         -0.245610766479112E+00
  |   2          0.302586608696057E+00          0.554274974700540E-01          0.177237676161854E+00
  |   3         -0.235413776776267E+00         -0.459249649038086E+00          0.767070023237070E+00
  |   4          0.581182158716637E-01         -0.935572408169929E-01         -0.271053488151617E+00
  |   5         -0.862294959565065E-01          0.107720344253635E+00         -0.261304700910306E+00
  |   6          0.991850525633189E-01         -0.503393945730384E+00          0.720675109122253E-01
  |   7          0.128723622289576E+00          0.138471550479407E+00         -0.106468058489880E+00
  |   8         -0.261940373549377E+00          0.660056552334577E-02          0.373909394997057E-01
  |   9          0.109483691870197E-01         -0.879873444495961E-03          0.157534539218376E+00
  |  10          0.127783140861538E+01          0.266068311163501E+00          0.134659760404717E+01
  |  11          0.112735511211703E+01          0.570166717160256E+00          0.106356354814017E+01
  |  12         -0.172049578208520E+01         -0.897235692565980E+00         -0.131547846055759E+01
  |  13         -0.105590129856932E+01          0.276419784811432E+00         -0.142154636662806E+01

  ------------------------------------ 
  Start decomposition of the XC Energy 
  ------------------------------------ 
  X and C from original XC functional choice 
  Hartree-Fock Energy :          0.000000000 Ha              0.000000000 eV
  X Energy            :        -41.039566055 Ha          -1116.743411641 eV
  C Energy            :         -1.602328028 Ha            -43.601564061 eV
  Total XC Energy     :        -42.641894083 Ha          -1160.344975701 eV
  ------------------------------------ 
  LDA X and C from self-consistent density 
  X Energy LDA        :        -37.260888865 Ha          -1013.920373718 eV
  C Energy LDA        :         -3.139060515 Ha            -85.418182647 eV
  ------------------------------------ 
  End decomposition of the XC Energy 
  ------------------------------------ 

------------------------------------------------------------

------------------------------------------------------------------------------
  Final output of selected total energy values:

  The following output summarizes some interesting total energy values
  at the end of a run (AFTER all relaxation, molecular dynamics, etc.).

  | Total energy of the DFT / Hartree-Fock s.c.f. calculation      :          -8803.217000309 eV
  | Final zero-broadening corrected energy (caution - metals only) :          -8803.217000309 eV
  | For reference only, the value of 1 Hartree used in FHI-aims is :             27.211384500 eV

  Before relying on these values, please be sure to understand exactly which
  total energy value is referred to by a given number. Different objects may
  all carry the same name 'total energy'. Definitions:

  Total energy of the DFT / Hartree-Fock s.c.f. calculation:
  | Note that this energy does not include ANY quantities calculated after the
  | s.c.f. cycle, in particular not ANY RPA, MP2, etc. many-body perturbation terms.

  Final zero-broadening corrected energy:
  | For metallic systems only, a broadening of the occupation numbers at the Fermi
  | level can be extrapolated back to zero broadening by an electron-gas inspired
  | formula. For all systems that are not real metals, this value can be
  | meaningless and should be avoided.

------------------------------------------------------------------------------
  Methods described in the following list of references were used in this FHI-aims run.
  If you publish the results, please make sure to cite these reference if they apply.
  FHI-aims is an academic code, and for our developers (often, Ph.D. students
  and postdocs), scientific credit in the community is essential.
  Thank you for helping us!

  For any use of FHI-aims, please cite:

    Volker Blum, Ralf Gehrke, Felix Hanke, Paula Havu, Ville Havu,
    Xinguo Ren, Karsten Reuter, and Matthias Scheffler
    'Ab initio molecular simulations with numeric atom-centered orbitals'
    Computer Physics Communications 180, 2175-2196 (2009)
    http://dx.doi.org/10.1016/j.cpc.2009.06.022


  The scalable eigensolver library ELPA was used in your run.
  ELPA is essential especially for large systems on hundreds or thousands of CPUs.
  For ELPA, please cite:

    Andreas Marek, Volker Blum, Rainer Johanni, Ville Havu, Bruno Lang,
    Thomas Auckenthaler, Alexander Heinecke, Hans-Joachim Bungartz, and Hermann Lederer,
    'The ELPA Library - Scalable Parallel Eigenvalue Solutions
    for Electronic Structure Theory and Computational Science'
    The Journal of Physics: Condensed Matter 26, 213201 (2014).
    http://dx.doi.org/10.1088/0953-8984/26/21/213201


  The ELSI infrastructure was used in your run to solve the Kohn-Sham electronic structure.
  Please check out http://elsi-interchange.org to learn more.
  If scalability is important for your project, please acknowledge ELSI by citing:

    V. W-z. Yu, F. Corsetti, A. Garcia, W. P. Huhn, M. Jacquelin, W. Jia,
    B. Lange, L. Lin, J. Lu, W. Mi, A. Seifitokaldani, A. Vazquez-Mayagoitia,
    C. Yang, H. Yang, and V. Blum
    'ELSI: A unified software interface for Kohn-Sham electronic structure solvers'
    Computer Physics Communications 222, 267-285 (2018).
    http://dx.doi.org/10.1016/j.cpc.2017.09.007


  For the real-space grid partitioning and parallelization used in this calculation, please cite:

    Ville Havu, Volker Blum, Paula Havu, and Matthias Scheffler,
    'Efficient O(N) integration for all-electron electronic structure calculation'
    'using numerically tabulated basis functions'
    Journal of Computational Physics 228, 8367-8379 (2009).
    http://dx.doi.org/10.1016/j.jcp.2009.08.008

  Of course, there are many other important community references, e.g., those cited in the
  above references. Our list is limited to references that describe implementations in the
  FHI-aims code. The reason is purely practical (length of this list) - please credit others as well.

------------------------------------------------------------
          Leaving FHI-aims.
          Date     :  20200601, Time     :  005825.334

          Computational steps:
          | Number of self-consistency cycles          :           16
          | Number of SCF (re)initializations          :            1

          Detailed time accounting                     :  max(cpu_time)    wall_clock(cpu1)
          | Total time                                 :        1.755 s           1.831 s
          | Preparation time                           :        0.166 s           0.166 s
          | Boundary condition initalization           :        0.000 s           0.000 s
          | Grid partitioning                          :        0.025 s           0.025 s
          | Preloading free-atom quantities on grid    :        0.003 s           0.002 s
          | Free-atom superposition energy             :        0.005 s           0.005 s
          | Total time for integrations                :        0.475 s           0.474 s
          | Total time for solution of K.-S. equations :        0.067 s           0.070 s
          | Total time for density & force components  :        0.486 s           0.403 s
          | Total time for mixing                      :        0.019 s           0.018 s
          | Total time for Hartree multipole update    :        0.019 s           0.022 s
          | Total time for Hartree multipole sum       :        0.435 s           0.435 s
          | Total time for total energy evaluation     :        0.003 s           0.002 s
          | Total time for vdW correction              :        0.011 s           0.008 s

          Partial memory accounting:
          | Residual value for overall tracked memory usage across tasks :           0.000 MB (should be 0.000 MB)
          | Peak values for overall tracked memory usage (after allocating hessian_basis_wave):
          |   Minimum:        1.988 MB (on task 17)
          |   Maximum:        2.022 MB (on task  9)
          |   Average:        2.008 MB
          | Largest tracked array allocation (hessian_basis_wave):
          |   Minimum:        1.016 MB (on task 11)
          |   Maximum:        1.034 MB (on task  9)
          |   Average:        1.026 MB
          Note:  These values currently only include a subset of arrays which are explicitly tracked.
          The "true" memory usage will be greater.

          Have a nice day.
------------------------------------------------------------
