  MPI-parallelism will be employed.
------------------------------------------------------------
          Invoking FHI-aims ...
          Version 171221_1
          Compiled on 2019/09/09 at 14:39:39 on host puhti-login2.bullx.

          When using FHI-aims, please cite the following reference:

          Volker Blum, Ralf Gehrke, Felix Hanke, Paula Havu,
          Ville Havu, Xinguo Ren, Karsten Reuter, and Matthias Scheffler,
          'Ab Initio Molecular Simulations with Numeric Atom-Centered Orbitals',
          Computer Physics Communications 180, 2175-2196 (2009)

          For any questions about FHI-aims, please visit the aimsclub website
          with its forums and wiki. Contributions to both the forums and the
          wiki are warmly encouraged - they are for you, and everyone is welcome there.

------------------------------------------------------------



  Date     :  20200801, Time     :  171526.471
  Time zero on CPU 1             :   0.116450000000000E-01  s.
  Internal wall clock time zero  :           365534126.471  s.

  FHI-aims created a unique identifier for this run for later identification
  aims_uuid : AEC8AF19-1CF8-4856-AAB1-CB2B224050FE

  Using        1 parallel tasks.
  Task        0 on host r18c46.bullx reporting.

  Performing system and environment tests:
  | Environment variable OMP_NUM_THREADS correctly set to 1.
  | Stacksize not measured: no C compiler
  | Checking for scalapack...
  | Testing pdtran()...
  | All pdtran() tests passed.

  Obtaining array dimensions for all initial allocations:
  
  -----------------------------------------------------------------------
  Parsing control.in (first pass over file, find array dimensions only).
  The contents of control.in will be repeated verbatim below
  unless switched off by setting 'verbatim_writeout .false.' .
  in the first line of control.in .
  -----------------------------------------------------------------------
  
  #########################################################################################
  #
  #  Volker Blum, FHI 2009 : Test run input file control.in for simple H2O
  #
  #########################################################################################
  #
  #  Physical model
  #
    xc                 pbe
    vdw_correction_hirshfeld
    spin               none
    relativistic       none
    charge             0.
  #
  #  SCF convergence
  #
    occupation_type    gaussian 0.01
    mixer              pulay
      n_max_pulay        10
      charge_mix_param   0.2
    sc_accuracy_rho    1E-5
    sc_accuracy_eev    1E-3
    sc_accuracy_etot   1E-6
    sc_accuracy_forces 1E-4
    sc_iter_limit      100
  #
  #  Relaxation
  #
  #  relax_geometry   bfgs 1.e-3
  #
  ################################################################################
  #
  #  FHI-aims code project
  #  VB, Fritz-Haber Institut, 2009
  #
  #  Suggested "light" defaults for H atom (to be pasted into control.in file)
  #  Be sure to double-check any results obtained with these settings for post-processing,
  #  e.g., with the "tight" defaults and larger basis sets.
  #
  ################################################################################
    species        H
  #     global species definitions
      nucleus             1
      mass                1.00794
  #
      l_hartree           4
  #
      cut_pot             3.5  1.5  1.0
      basis_dep_cutoff    1e-4
  #
      radial_base         24 5.0
      radial_multiplier   1
      angular_grids       specified
        division   0.2421   50
        division   0.3822  110
        division   0.4799  194
        division   0.5341  302
  #      division   0.5626  434
  #      division   0.5922  590
  #      division   0.6542  770
  #      division   0.6868 1202
  #      outer_grid  770
        outer_grid  302
  ################################################################################
  #
  #  Definition of "minimal" basis
  #
  ################################################################################
  #     valence basis states
      valence      1  s   1.
  #     ion occupancy
      ion_occ      1  s   0.5
  ################################################################################
  #
  #  Suggested additional basis functions. For production calculations,
  #  uncomment them one after another (the most important basis functions are
  #  listed first).
  #
  #  Basis constructed for dimers: 0.5 A, 0.7 A, 1.0 A, 1.5 A, 2.5 A
  #
  ################################################################################
  #  "First tier" - improvements: -1014.90 meV to -62.69 meV
       hydro 2 s 2.1
       hydro 2 p 3.5
  #  "Second tier" - improvements: -12.89 meV to -1.83 meV
  #     hydro 1 s 0.85
  #     hydro 2 p 3.7
  #     hydro 2 s 1.2
  #     hydro 3 d 7
  #  "Third tier" - improvements: -0.25 meV to -0.12 meV
  #     hydro 4 f 11.2
  #     hydro 3 p 4.8
  #     hydro 4 d 9
  #     hydro 3 s 3.2
  ################################################################################
  #
  #  FHI-aims code project
  #  VB, Fritz-Haber Institut, 2009
  #
  #  Suggested "light" defaults for C atom (to be pasted into control.in file)
  #  Be sure to double-check any results obtained with these settings for post-processing,
  #  e.g., with the "tight" defaults and larger basis sets.
  #
  ################################################################################
    species        C
  #     global species definitions
      nucleus             6
      mass                12.0107
  #
      l_hartree           4
  #
      cut_pot             3.5  1.5  1.0
      basis_dep_cutoff    1e-4
  #
      radial_base         34 5.0
      radial_multiplier   1
      angular_grids specified
        division   0.3326   50
        division   0.5710  110
        division   0.7727  194
        division   0.8772  302
  #      division   0.9334  434
  #      division   0.9625  590
  #      division   0.9924  770
  #      division   1.0230  974
  #      division   1.4589 1202
  #     outer_grid  974
       outer_grid 302
  ################################################################################
  #
  #  Definition of "minimal" basis
  #
  ################################################################################
  #     valence basis states
      valence      2  s   2.
      valence      2  p   2.
  #     ion occupancy
      ion_occ      2  s   1.
      ion_occ      2  p   1.
  ################################################################################
  #
  #  Suggested additional basis functions. For production calculations,
  #  uncomment them one after another (the most important basis functions are
  #  listed first).
  #
  #  Constructed for dimers: 1.0 A, 1.25 A, 1.5 A, 2.0 A, 3.0 A
  #
  ################################################################################
  #  "First tier" - improvements: -1214.57 meV to -155.61 meV
       hydro 2 p 1.7
       hydro 3 d 6
       hydro 2 s 4.9
  #  "Second tier" - improvements: -67.75 meV to -5.23 meV
  #     hydro 4 f 9.8
  #     hydro 3 p 5.2
  #     hydro 3 s 4.3
  #     hydro 5 g 14.4
  #     hydro 3 d 6.2
  #  "Third tier" - improvements: -2.43 meV to -0.60 meV
  #     hydro 2 p 5.6
  #     hydro 2 s 1.4
  #     hydro 3 d 4.9
  #     hydro 4 f 11.2
  #  "Fourth tier" - improvements: -0.39 meV to -0.18 meV
  #     hydro 2 p 2.1
  #     hydro 5 g 16.4
  #     hydro 4 d 13.2
  #     hydro 3 s 13.6
  #     hydro 4 f 17.6
  #  Further basis functions - improvements: -0.08 meV and below
  #     hydro 3 s 2
  #     hydro 3 p 6
  #     hydro 4 d 20
  ################################################################################
  #
  #  FHI-aims code project
  #  VB, Fritz-Haber Institut, 2009
  #
  #  Suggested "light" defaults for N atom (to be pasted into control.in file)
  #  Be sure to double-check any results obtained with these settings for post-processing,
  #  e.g., with the "tight" defaults and larger basis sets.
  #
  ################################################################################
    species        N
  #     global species definitions
      nucleus             7
      mass                14.0067
  #
      l_hartree           4
  #
      cut_pot             3.5  1.5  1.0
      basis_dep_cutoff    1e-4
  #
      radial_base         35 5.0
      radial_multiplier   1
      angular_grids       specified
        division   0.2599   50
        division   0.4601  110
        division   0.5885  194
        division   0.6503  302
  #      division   0.6939  434
  #      division   0.7396  590
  #      division   0.7632  770
  #      division   0.8122  974
  #      division   1.1604 1202
  #      outer_grid  974
        outer_grid  302
  ################################################################################
  #
  #  Definition of "minimal" basis
  #
  ################################################################################
  #     valence basis states
      valence      2  s   2.
      valence      2  p   3.
  #     ion occupancy
      ion_occ      2  s   1.
      ion_occ      2  p   2.
  ################################################################################
  #
  #  Suggested additional basis functions. For production calculations,
  #  uncomment them one after another (the most important basis functions are
  #  listed first).
  #
  #  Constructed for dimers: 1.0 A, 1.1 A, 1.5 A, 2.0 A, 3.0 A
  #
  ################################################################################
  #  "First tier" - improvements: -1193.42 meV to -220.60 meV
       hydro 2 p 1.8
       hydro 3 d 6.8
       hydro 3 s 5.8
  #  "Second tier" - improvements: -80.21 meV to -6.86 meV
  #     hydro 4 f 10.8
  #     hydro 3 p 5.8
  #     hydro 1 s 0.8
  #     hydro 5 g 16
  #     hydro 3 d 4.9
  #  "Third tier" - improvements: -4.29 meV to -0.53 meV
  #     hydro 3 s 16
  #     ionic 2 p auto
  #     hydro 3 d 6.6
  #     hydro 4 f 11.6
  #  "Fourth tier" - improvements: -0.75 meV to -0.25 meV
  #     hydro 2 p 4.5
  #     hydro 2 s 2.4
  #     hydro 5 g 14.4
  #     hydro 4 d 14.4
  #     hydro 4 f 16.8
  # Further basis functions - -0.21 meV and below
  #     hydro 3 p 14.8
  #     hydro 3 s 4.4
  #     hydro 3 d 19.6
  #     hydro 5 g 12.8
  ################################################################################
  #
  #  FHI-aims code project
  #  VB, Fritz-Haber Institut, 2009
  #
  #  Suggested "light" defaults for O atom (to be pasted into control.in file)
  #  Be sure to double-check any results obtained with these settings for post-processing,
  #  e.g., with the "tight" defaults and larger basis sets.
  #
  ################################################################################
    species        O
  #     global species definitions
      nucleus             8
      mass                15.9994
  #
      l_hartree           4
  #
      cut_pot             3.5  1.5  1.0
      basis_dep_cutoff    1e-4
  #
      radial_base         36 5.0
      radial_multiplier   1
       angular_grids specified
        division   0.2659   50
        division   0.4451  110
        division   0.6052  194
        division   0.7543  302
  #      division   0.8014  434
  #      division   0.8507  590
  #      division   0.8762  770
  #      division   0.9023  974
  #      division   1.2339 1202
  #      outer_grid 974
        outer_grid 302
  ################################################################################
  #
  #  Definition of "minimal" basis
  #
  ################################################################################
  #     valence basis states
      valence      2  s   2.
      valence      2  p   4.
  #     ion occupancy
      ion_occ      2  s   1.
      ion_occ      2  p   3.
  ################################################################################
  #
  #  Suggested additional basis functions. For production calculations,
  #  uncomment them one after another (the most important basis functions are
  #  listed first).
  #
  #  Constructed for dimers: 1.0 A, 1.208 A, 1.5 A, 2.0 A, 3.0 A
  #
  ################################################################################
  #  "First tier" - improvements: -699.05 meV to -159.38 meV
       hydro 2 p 1.8
       hydro 3 d 7.6
       hydro 3 s 6.4
  #  "Second tier" - improvements: -49.91 meV to -5.39 meV
  #     hydro 4 f 11.6
  #     hydro 3 p 6.2
  #     hydro 3 d 5.6
  #     hydro 5 g 17.6
  #     hydro 1 s 0.75
  #  "Third tier" - improvements: -2.83 meV to -0.50 meV
  #     ionic 2 p auto
  #     hydro 4 f 10.8
  #     hydro 4 d 4.7
  #     hydro 2 s 6.8
  #  "Fourth tier" - improvements: -0.40 meV to -0.12 meV
  #     hydro 3 p 5
  #     hydro 3 s 3.3
  #     hydro 5 g 15.6
  #     hydro 4 f 17.6
  #     hydro 4 d 14
  # Further basis functions - -0.08 meV and below
  #     hydro 3 s 2.1
  #     hydro 4 d 11.6
  #     hydro 3 p 16
  #     hydro 2 s 17.2
  
  -----------------------------------------------------------------------
  Completed first pass over input file control.in .
  -----------------------------------------------------------------------
  
  
  -----------------------------------------------------------------------
  Parsing geometry.in (first pass over file, find array dimensions only).
  The contents of geometry.in will be repeated verbatim below
  unless switched off by setting 'verbatim_writeout .false.' .
  in the first line of geometry.in .
  -----------------------------------------------------------------------
  
  atom  0.00000 0.00000 0.00000 C
  atom  1.09300 0.00000 0.00000 H
  atom  -0.47961 0.00000 -1.41207 N
  atom  -1.49903 -0.05106 -1.41126 H
  atom  -0.17072 0.85913 -1.86218 H
  atom  -0.49584 1.26211 0.72868 C
  atom  -1.58789 1.28919 0.74431 H
  atom  -0.13407 1.27425 1.75947 H
  atom  -0.13407 2.16087 0.22380 H
  atom  -0.39425 -1.28861 0.74398 C
  atom  -0.10189 -1.56493 1.88303 O
  atom  -1.10210 -2.13717 0.06896 O
  atom  -0.41025 -2.44641 -0.53989 H
  
  -----------------------------------------------------------------------
  Completed first pass over input file geometry.in .
  -----------------------------------------------------------------------
  

  Basic array size parameters:
  | Number of species                 :        4
  | Number of atoms                   :       13
  | Max. basis fn. angular momentum   :        2
  | Max. atomic/ionic basis occupied n:        2
  | Max. number of basis fn. types    :        2
  | Max. radial fns per species/type  :        3
  | Max. logarithmic grid size        :     1301
  | Max. radial integration grid size :       36
  | Max. angular integration grid size:      302
  | Max. angular grid division number :        8
  | Radial grid for Hartree potential :     1301
  | Number of spin channels           :        1

------------------------------------------------------------
          Reading file control.in.
------------------------------------------------------------
  XC: Using PBE gradient-corrected functionals.
  Spin treatment: No spin polarisation.
  Non-relativistic treatment of kinetic energy.
  Charge =   0.000000E+00: Neutral system requested explicitly.
  Occupation type: Gaussian broadening, width =   0.100000E-01 eV.
  Using pulay charge density mixing.
  Pulay mixing - number of memorized iterations:   10
  Charge density mixing - mixing parameter:     0.2000
  Convergence accuracy of self-consistent charge density:  0.1000E-04
  Convergence accuracy of sum of eigenvalues:  0.1000E-02
  Convergence accuracy of total energy:  0.1000E-05
  Convergence accuracy of forces:  0.1000E-03
  Maximum number of s.-c. iterations  :   100
 
  Reading configuration options for species H                   .
  | Found nuclear charge :   1.0000
  | Found atomic mass :    1.00794000000000      amu
  | Found l_max for Hartree potential  :   4
  | Found cutoff potl. onset [A], width [A], scale factor :    3.50000    1.50000    1.00000
  | Threshold for basis-dependent cutoff potential is   0.100000E-03
  | Found data for basic radial integration grid :    24 points, outermost radius =    5.000 A
  | Found multiplier for basic radial grid :   1
  | Found angular grid specification: user-specified.
  | Specified grid contains     5 separate shells.
  | Check grid settings after all constraints further below.
  | Found free-atom valence shell :  1 s   1.000
  | No ionic wave fns used. Skipping ion_occ.
  | Found hydrogenic basis function :  2 s   2.100
  | Found hydrogenic basis function :  2 p   3.500
  Species H                   : Missing cutoff potential type.
  Defaulting to exp(1/x)/(1-x)^2 type cutoff potential.
  Species H : No 'logarithmic' tag. Using default grid for free atom:
  | Default logarithmic grid data [bohr] : 0.1000E-03 0.1000E+03 0.1012E+01
  Species H : On-site basis accuracy parameter (for Gram-Schmidt orthonormalisation) not specified.
  Using default value basis_acc =  0.1000000E-03.
  Species H                   : Using default innermost maximum threshold i_radial=  2 for radial functions.
  Species H                   : Default cutoff onset for free atom density etc. : 0.35000000E+01 AA.
  Species H                   : Basic radial grid will be enhanced according to radial_multiplier =   1, to contain    24 grid points.
 
  Reading configuration options for species C                   .
  | Found nuclear charge :   6.0000
  | Found atomic mass :    12.0107000000000      amu
  | Found l_max for Hartree potential  :   4
  | Found cutoff potl. onset [A], width [A], scale factor :    3.50000    1.50000    1.00000
  | Threshold for basis-dependent cutoff potential is   0.100000E-03
  | Found data for basic radial integration grid :    34 points, outermost radius =    5.000 A
  | Found multiplier for basic radial grid :   1
  | Found angular grid specification: user-specified.
  | Specified grid contains     5 separate shells.
  | Check grid settings after all constraints further below.
  | Found free-atom valence shell :  2 s   2.000
  | Found free-atom valence shell :  2 p   2.000
  | No ionic wave fns used. Skipping ion_occ.
  | No ionic wave fns used. Skipping ion_occ.
  | Found hydrogenic basis function :  2 p   1.700
  | Found hydrogenic basis function :  3 d   6.000
  | Found hydrogenic basis function :  2 s   4.900
  Species C                   : Missing cutoff potential type.
  Defaulting to exp(1/x)/(1-x)^2 type cutoff potential.
  Species C : No 'logarithmic' tag. Using default grid for free atom:
  | Default logarithmic grid data [bohr] : 0.1000E-03 0.1000E+03 0.1012E+01
  Species C : On-site basis accuracy parameter (for Gram-Schmidt orthonormalisation) not specified.
  Using default value basis_acc =  0.1000000E-03.
  Species C                   : Using default innermost maximum threshold i_radial=  2 for radial functions.
  Species C                   : Default cutoff onset for free atom density etc. : 0.35000000E+01 AA.
  Species C                   : Basic radial grid will be enhanced according to radial_multiplier =   1, to contain    34 grid points.
 
  Reading configuration options for species N                   .
  | Found nuclear charge :   7.0000
  | Found atomic mass :    14.0067000000000      amu
  | Found l_max for Hartree potential  :   4
  | Found cutoff potl. onset [A], width [A], scale factor :    3.50000    1.50000    1.00000
  | Threshold for basis-dependent cutoff potential is   0.100000E-03
  | Found data for basic radial integration grid :    35 points, outermost radius =    5.000 A
  | Found multiplier for basic radial grid :   1
  | Found angular grid specification: user-specified.
  | Specified grid contains     5 separate shells.
  | Check grid settings after all constraints further below.
  | Found free-atom valence shell :  2 s   2.000
  | Found free-atom valence shell :  2 p   3.000
  | No ionic wave fns used. Skipping ion_occ.
  | No ionic wave fns used. Skipping ion_occ.
  | Found hydrogenic basis function :  2 p   1.800
  | Found hydrogenic basis function :  3 d   6.800
  | Found hydrogenic basis function :  3 s   5.800
  Species N                   : Missing cutoff potential type.
  Defaulting to exp(1/x)/(1-x)^2 type cutoff potential.
  Species N : No 'logarithmic' tag. Using default grid for free atom:
  | Default logarithmic grid data [bohr] : 0.1000E-03 0.1000E+03 0.1012E+01
  Species N : On-site basis accuracy parameter (for Gram-Schmidt orthonormalisation) not specified.
  Using default value basis_acc =  0.1000000E-03.
  Species N                   : Using default innermost maximum threshold i_radial=  2 for radial functions.
  Species N                   : Default cutoff onset for free atom density etc. : 0.35000000E+01 AA.
  Species N                   : Basic radial grid will be enhanced according to radial_multiplier =   1, to contain    35 grid points.
 
  Reading configuration options for species O                   .
  | Found nuclear charge :   8.0000
  | Found atomic mass :    15.9994000000000      amu
  | Found l_max for Hartree potential  :   4
  | Found cutoff potl. onset [A], width [A], scale factor :    3.50000    1.50000    1.00000
  | Threshold for basis-dependent cutoff potential is   0.100000E-03
  | Found data for basic radial integration grid :    36 points, outermost radius =    5.000 A
  | Found multiplier for basic radial grid :   1
  | Found angular grid specification: user-specified.
  | Specified grid contains     5 separate shells.
  | Check grid settings after all constraints further below.
  | Found free-atom valence shell :  2 s   2.000
  | Found free-atom valence shell :  2 p   4.000
  | No ionic wave fns used. Skipping ion_occ.
  | No ionic wave fns used. Skipping ion_occ.
  | Found hydrogenic basis function :  2 p   1.800
  | Found hydrogenic basis function :  3 d   7.600
  | Found hydrogenic basis function :  3 s   6.400
  Species O                   : Missing cutoff potential type.
  Defaulting to exp(1/x)/(1-x)^2 type cutoff potential.
  Species O : No 'logarithmic' tag. Using default grid for free atom:
  | Default logarithmic grid data [bohr] : 0.1000E-03 0.1000E+03 0.1012E+01
  Species O : On-site basis accuracy parameter (for Gram-Schmidt orthonormalisation) not specified.
  Using default value basis_acc =  0.1000000E-03.
  Species O                   : Using default innermost maximum threshold i_radial=  2 for radial functions.
  Species O                   : Default cutoff onset for free atom density etc. : 0.35000000E+01 AA.
  Species O                   : Basic radial grid will be enhanced according to radial_multiplier =   1, to contain    36 grid points.
 
  Finished reading input file 'control.in'. Consistency checks are next.
 
  MPI_IN_PLACE appears to work with this MPI implementation.
  | Keeping use_mpi_in_place .true. (see manual).
  Target number of points in a grid batch is not set. Defaulting to  100
  Method for grid partitioning is not set. Defaulting to parallel hash+maxmin partitioning.
  Batch size limit is not set. Defaulting to    200
  By default, will store active basis functions for each batch.
  If in need of memory, prune_basis_once .false. can be used to disable this option.
  communication_type for Hartree potential was not specified.
  Defaulting to calc_hartree .
  Pulay mixer: Number of initial linear mixing iterations not set.
  Defaulting to    0 iterations.
  Work space size for distributed Hartree potential not set.
  Defaulting to   0.200000E+03 MB.
  Algorithm-dependent basis array size parameters:
  | n_max_pulay                         :       10
  Presetting      1001 iterations before the initial mixing cycle
  is restarted anyway using the sc_init_iter criterion / keyword.
  Presetting a factor      1.000 between actual scf density residual
  and density convergence criterion sc_accuracy_rho below which sc_init_iter
  takes no effect.
  Geometry relaxation not requested: no relaxation will be performed.
  Handling of forces: Unphysical translation and rotation will be removed from forces.
  No accuracy limit for integral partition fn. given. Defaulting to  0.1000E-14.
  No threshold value for u(r) in integrations given. Defaulting to  0.1000E-05.
  No accuracy for occupation numbers given. Defaulting to  0.1000E-12.
  No threshold value for occupation numbers given. Defaulting to  0.0000E+00.
  No accuracy for fermi level given. Defaulting to  0.1000E-19.
  Maximum # of iterations to find E_F not set. Defaulting to  200.
  Preferred method for the eigenvalue solver ('KS_method') not specified in 'control.in'.
  Defaulting to serial version, 'lapack_fast'.
  Will not use alltoall communication since running on < 1024 CPUs.
  Threshold for basis singularities not set.
  Default threshold for basis singularities:  0.1000E-04
  partition_type (choice of integration weights) for integrals was not specified.
  | Using a version of the partition function of Stratmann and coworkers ('stratmann_smoother').
  | At each grid point, the set of atoms used to build the partition table is smoothly restricted to
  | only those atoms whose free-atom density would be non-zero at that grid point.
  Partitioning for Hartree potential was not defined. Using partition_type for integrals.
  | Adjusted default value of keyword multip_moments_threshold to:       0.10000000E-11
  | This value may affect high angular momentum components of the Hartree potential in periodic systems.
  No q(lm)/r^(l+1) cutoff set for long-range Hartree potential.
  | Using default value of  0.100000E-09 .
  | Verify using the multipole_threshold keyword.
  Defaulting to new monopole extrapolation.
  Density update method: automatic selection selected.
------------------------------------------------------------


------------------------------------------------------------
          Reading geometry description geometry.in.
------------------------------------------------------------
  Input structure read successfully.
  The structure contains       13 atoms,  and a total of         48.000 electrons.

  Input geometry:
  | No unit cell requested.
  | Atomic structure:
  |       Atom                x [A]            y [A]            z [A]
  |    1: Species C             0.00000000        0.00000000        0.00000000
  |    2: Species H             1.09300000        0.00000000        0.00000000
  |    3: Species N            -0.47961000        0.00000000       -1.41207000
  |    4: Species H            -1.49903000       -0.05106000       -1.41126000
  |    5: Species H            -0.17072000        0.85913000       -1.86218000
  |    6: Species C            -0.49584000        1.26211000        0.72868000
  |    7: Species H            -1.58789000        1.28919000        0.74431000
  |    8: Species H            -0.13407000        1.27425000        1.75947000
  |    9: Species H            -0.13407000        2.16087000        0.22380000
  |   10: Species C            -0.39425000       -1.28861000        0.74398000
  |   11: Species O            -0.10189000       -1.56493000        1.88303000
  |   12: Species O            -1.10210000       -2.13717000        0.06896000
  |   13: Species H            -0.41025000       -2.44641000       -0.53989000
  |

  | The smallest distance between any two atoms is         0.97210294 AA.
  |
  | The first atom of this pair is atom number                     12 .
  | The second atom of this pair is atom number                    13 .

  Number of empty states per atom not set in control.in - providing a guess from actual geometry.
  | Total number of empty states used during s.c.f. cycle:       29
  If you use a very high smearing, use empty_states (per atom!) in control.in to increase this value.

  Structure-dependent array size parameters: 
  | Maximum number of distinct radial functions  :       21
  | Maximum number of basis functions            :      119
  | Number of Kohn-Sham states (occupied + empty):       53
------------------------------------------------------------

------------------------------------------------------------
          Preparing all fixed parts of the calculation.
------------------------------------------------------------
  Determining machine precision:
    2.225073858507201E-308
  Setting up grids for atomic and cluster calculations.

  Creating wave function, potential, and density for free atoms.

  Species: H

  List of occupied orbitals and eigenvalues:
    n    l              occ      energy [Ha]    energy [eV]
    1    0           1.0000        -0.237589        -6.4651


  Species: C

  List of occupied orbitals and eigenvalues:
    n    l              occ      energy [Ha]    energy [eV]
    1    0           2.0000       -10.038835      -273.1706
    2    0           2.0000        -0.502696       -13.6791
    2    1           2.0000        -0.191971        -5.2238


  Species: N

  List of occupied orbitals and eigenvalues:
    n    l              occ      energy [Ha]    energy [eV]
    1    0           2.0000       -14.128000      -384.4424
    2    0           2.0000        -0.681077       -18.5330
    2    1           3.0000        -0.259788        -7.0692


  Species: O

  List of occupied orbitals and eigenvalues:
    n    l              occ      energy [Ha]    energy [eV]
    1    0           2.0000       -18.898188      -514.2459
    2    0           2.0000        -0.878505       -23.9053
    2    1           4.0000        -0.331779        -9.0282

  Creating fixed part of basis set: Ionic, confined, hydrogenic.
 
  H                    hydrogenic:
 
  List of hydrogenic basis orbitals: 
    n    l      effective z      eigenvalue [eV]  inner max. [A]     outer max. [A]     outer radius [A]   
    2    0         2.100000       -14.9728           0.193243           1.317208           4.583499
    2    1         3.500000       -41.6669           0.602369           0.602369           3.723403
 
 
  C                    hydrogenic:
 
  List of hydrogenic basis orbitals: 
    n    l      effective z      eigenvalue [eV]  inner max. [A]     outer max. [A]     outer radius [A]   
    2    1         1.700000        -9.7616           1.230570           1.230570           4.607917
    3    2         6.000000       -54.4224           0.792453           0.792453           3.883070
    2    0         4.900000       -81.6679           0.082559           0.562749           3.078220
 
 
  N                    hydrogenic:
 
  List of hydrogenic basis orbitals: 
    n    l      effective z      eigenvalue [eV]  inner max. [A]     outer max. [A]     outer radius [A]   
    2    1         1.800000       -10.9749           1.177451           1.177451           4.573712
    3    2         6.800000       -69.9026           0.704619           0.704619           3.538137
    3    0         5.800000       -50.8545           0.067388           1.191934           4.250239
 
 
  O                    hydrogenic:
 
  List of hydrogenic basis orbitals: 
    n    l      effective z      eigenvalue [eV]  inner max. [A]     outer max. [A]     outer radius [A]   
    2    1         1.800000       -10.9749           1.164242           1.164242           4.578029
    3    2         7.600000       -87.3180           0.624125           0.624125           3.251020
    3    0         6.400000       -61.9207           0.061167           1.081902           4.001998
 

  Adding cutoff potential to free-atom effective potential.
  Creating atomic-like basis functions for current effective potential.

  Species H                   :

  List of atomic basis orbitals and eigenvalues:
    n    l      energy [Ha]    energy [eV]    outer radius [A]
    1    0        -0.237589        -6.4651       4.527807


  Species C                   :

  List of atomic basis orbitals and eigenvalues:
    n    l      energy [Ha]    energy [eV]    outer radius [A]
    1    0       -10.038835      -273.1706       1.934409
    2    0        -0.502696       -13.6791       4.496620
    2    1        -0.191971        -5.2238       4.551928


  Species N                   :

  List of atomic basis orbitals and eigenvalues:
    n    l      energy [Ha]    energy [eV]    outer radius [A]
    1    0       -14.128000      -384.4424       1.637919
    2    0        -0.681077       -18.5330       4.463241
    2    1        -0.259788        -7.0692       4.518138


  Species O                   :

  List of atomic basis orbitals and eigenvalues:
    n    l      energy [Ha]    energy [eV]    outer radius [A]
    1    0       -18.898188      -514.2459       1.415765
    2    0        -0.878505       -23.9053       4.413171
    2    1        -0.331779        -9.0282       4.522403

  Assembling full basis from fixed parts.
  | Species H :   atomic orbital   1 s accepted.
  | Species H :    hydro orbital   2 s accepted.
  | Species H :    hydro orbital   2 p accepted.
  | Species C :   atomic orbital   1 s accepted.
  | Species C :    hydro orbital   2 s accepted.
  | Species C :   atomic orbital   2 s accepted.
  | Species C :   atomic orbital   2 p accepted.
  | Species C :    hydro orbital   2 p accepted.
  | Species C :    hydro orbital   3 d accepted.
  | Species N :   atomic orbital   1 s accepted.
  | Species N :    hydro orbital   3 s accepted.
  | Species N :   atomic orbital   2 s accepted.
  | Species N :   atomic orbital   2 p accepted.
  | Species N :    hydro orbital   2 p accepted.
  | Species N :    hydro orbital   3 d accepted.
  | Species O :   atomic orbital   1 s accepted.
  | Species O :    hydro orbital   3 s accepted.
  | Species O :   atomic orbital   2 s accepted.
  | Species O :   atomic orbital   2 p accepted.
  | Species O :    hydro orbital   2 p accepted.
  | Species O :    hydro orbital   3 d accepted.
 
  Basis size parameters after reduction:
  | Total number of radial functions:       21
  | Total number of basis functions :      119
 
  Per-task memory consumption for arrays in subroutine allocate_ext:
  |           5.250512MB.
  Testing on-site integration grid accuracy.
  |  Species  Function  <phi|h_atom|phi> (log., in eV)  <phi|h_atom|phi> (rad., in eV)
           1        1                 -6.4663192853                 -6.4651273558
           1        2                 13.7111246313                 13.7170609718
           1        3                 25.2673269279                 25.2674696378
           2        4               -273.1705927641               -273.1705631568
           2        5                -10.7109323383                -10.7107120029
           2        6                 17.4381822266                 17.4352413244
           2        7                 -5.2255326521                 -5.2270484734
           2        8                  8.6835629259                  8.6603288385
           2        9                 27.4952418996                 27.4953360207
           3       10               -384.4424306495               -384.4423701208
           3       11                 12.5842251816                 12.5842222903
           3       12                -15.7264628251                -15.7264433455
           3       13                 -7.0696854293                 -7.0701769954
           3       14                  8.8090390882                  8.7901077751
           3       15                 35.9586762123                 35.9588528632
           4       16               -514.2458688638               -514.2457643834
           4       17                 15.1795651126                 15.1795290741
           4       18                -21.5359799773                -21.5360846186
           4       19                 -9.0283069236                 -9.0284644067
           4       20                  8.3027758564                  8.2834874195
           4       21                 45.8339351984                 45.8338762259

  Preparing densities etc. for the partition functions (integrals / Hartree potential).

  Preparations completed.
  max(cpu_time)          :      0.144 s.
  Wall clock time (cpu1) :      0.145 s.
------------------------------------------------------------

------------------------------------------------------------
          Begin self-consistency loop: Initialization.

          Date     :  20200801, Time     :  171526.634
------------------------------------------------------------

  Initializing index lists of integration centers etc. from given atomic structure:
  | Number of centers in hartree potential         :        13
  | Number of centers in hartree multipole         :        13
  | Number of centers in electron density summation:        13
  | Number of centers in basis integrals           :        13
  | Number of centers in integrals                 :        13
  | Number of centers in hamiltonian               :        13
  Partitioning the integration grid into batches with parallel hashing+maxmin method.
  | Number of batches:      958
  | Maximal batch size:     138
  | Minimal batch size:      66
  | Average batch size:      72.699
  | Standard deviation of batch sizes:      17.216

  Integration load balanced across     1 MPI tasks.
  Work distribution over tasks is as follows:
  Task     0 has      69646 integration points.
  Initializing partition tables, free-atom densities, potentials, etc. across the integration grid (initialize_grid_storage).
  | initialize_grid_storage: Actual outermost partition radius vs. multipole_radius_free
  | (-- VB: in principle, multipole_radius_free should be larger, hence this output)
  | Species        1: Confinement radius =              4.999999999999999 AA, multipole_radius_free =              5.054417573612229 AA.
  | Species        1: outer_partition_radius set to              5.054417573612229 AA .
  | Species        2: Confinement radius =              4.999999999999999 AA, multipole_radius_free =              5.019602836301480 AA.
  | Species        2: outer_partition_radius set to              5.019602836301480 AA .
  | Species        3: Confinement radius =              4.999999999999999 AA, multipole_radius_free =              5.043624274424571 AA.
  | Species        3: outer_partition_radius set to              5.043624274424571 AA .
  | Species        4: Confinement radius =              4.999999999999999 AA, multipole_radius_free =              5.048384829883283 AA.
  | Species        4: outer_partition_radius set to              5.048384829883283 AA .
  | Original list of interatomic distances with          13 x         13 entries is created.
  | Net number of integration points:    69646
  | of which are non-zero points    :    59424
  Renormalizing the initial density to the exact electron count on the 3D integration grid.
  | Initial density: Formal number of electrons (from input files) :      48.0000000000
  | Integrated number of electrons on 3D grid     :      47.9999360907
  | Charge integration error                      :      -0.0000639093
  | Normalization factor for density and gradient :       1.0000013314
  Obtaining max. number of non-zero basis functions in each batch (get_n_compute_maxes).
  | Maximal number of non-zero basis functions:      119 in task     0
  Selecting the method for density update.
  Loop over occupied states selected for charge density update.
  Allocating        0.050 MB for KS_eigenvector
  Integrating Hamiltonian matrix: batch-based integration.
  Time summed over all CPUs for integration: real work        0.491 s, elapsed        0.491 s
  Integrating overlap matrix.
  Time summed over all CPUs for integration: real work        0.210 s, elapsed        0.210 s

  Updating Kohn-Sham eigenvalues and eigenvectors using ELSI and the ELPA eigensolver.
  Overlap matrix is nonsingular
  | Lowest eigenvalue of overlap  :  0.55E-02
  | Highest eigenvalue of overlap :  0.62E+01
  Finished singularity check of overlap matrix
  | Time :     0.002 s
  Finished Cholesky decomposition
  | Time :     0.000 s
  Finished transformation to standard eigenproblem
  | Time :     0.000 s
  Starting LAPACK eigensolver
  Finished solving standard eigenproblem
  | Time :     0.002 s
  Finished back-transformation of eigenvectors
  | Time :     0.000 s

  Obtaining occupation numbers and chemical potential using ELSI.
  | Chemical potential (Fermi level):    -8.97187170eV
  Writing Kohn-Sham eigenvalues.

  State    Occupation    Eigenvalue [Ha]    Eigenvalue [eV]
      1       2.00000         -19.007634         -517.22403
      2       2.00000         -18.977216         -516.39631
      3       2.00000         -14.245942         -387.65180
      4       2.00000         -10.166790         -276.65243
      5       2.00000         -10.141419         -275.96206
      6       2.00000         -10.131958         -275.70460
      7       2.00000          -1.182474          -32.17674
      8       2.00000          -1.098431          -29.88983
      9       2.00000          -0.991918          -26.99145
     10       2.00000          -0.858303          -23.35562
     11       2.00000          -0.756590          -20.58786
     12       2.00000          -0.682608          -18.57471
     13       2.00000          -0.633118          -17.22803
     14       2.00000          -0.601696          -16.37299
     15       2.00000          -0.580085          -15.78492
     16       2.00000          -0.564266          -15.35447
     17       2.00000          -0.555385          -15.11279
     18       2.00000          -0.539862          -14.69039
     19       2.00000          -0.522739          -14.22445
     20       2.00000          -0.499186          -13.58353
     21       2.00000          -0.457728          -12.45540
     22       2.00000          -0.424661          -11.55560
     23       2.00000          -0.403159          -10.97051
     24       2.00000          -0.390302          -10.62065
     25       0.00000          -0.161100           -4.38376
     26       0.00000          -0.063675           -1.73268
     27       0.00000          -0.026676           -0.72589
     28       0.00000          -0.024319           -0.66176
     29       0.00000          -0.006525           -0.17755
     30       0.00000           0.007565            0.20584
     31       0.00000           0.026778            0.72868
     32       0.00000           0.043858            1.19343
     33       0.00000           0.047750            1.29934
     34       0.00000           0.053321            1.45094
     35       0.00000           0.073663            2.00447
     36       0.00000           0.133232            3.62542
     37       0.00000           0.158158            4.30370
     38       0.00000           0.202826            5.51918
     39       0.00000           0.219361            5.96912
     40       0.00000           0.227835            6.19970
     41       0.00000           0.253635            6.90177
     42       0.00000           0.274233            7.46225
     43       0.00000           0.281497            7.65993
     44       0.00000           0.311857            8.48607
     45       0.00000           0.330146            8.98373
     46       0.00000           0.345628            9.40501
     47       0.00000           0.359011            9.76920
     48       0.00000           0.372924           10.14777
     49       0.00000           0.447200           12.16893
     50       0.00000           0.475007           12.92561
     51       0.00000           0.516153           14.04523
     52       0.00000           0.540441           14.70614
     53       0.00000           0.588876           16.02414

  Highest occupied state (VBM) at    -10.62065254 eV
  | Occupation number:      2.00000000

  Lowest unoccupied state (CBM) at    -4.38375524 eV
  | Occupation number:      0.00000000

  Overall HOMO-LUMO gap:      6.23689730 eV.
  Calculating total energy contributions from superposition of free atom densities.

  Total energy components:
  | Sum of eigenvalues            :        -188.82693566 Ha       -5138.24235022 eV
  | XC energy correction          :         -41.78640510 Ha       -1137.06593617 eV
  | XC potential correction       :          53.71694315 Ha        1461.71239422 eV
  | Free-atom electrostatic energy:        -146.86263264 Ha       -3996.33556553 eV
  | Hartree energy correction     :           0.00000000 Ha           0.00000000 eV
  | vdW energy correction         :           0.00000000 Ha           0.00000000 eV
  | Entropy correction            :           0.00000000 Ha           0.00000000 eV
  | ---------------------------
  | Total energy                  :        -323.75903026 Ha       -8809.93145771 eV
  | Total energy, T -> 0          :        -323.75903026 Ha       -8809.93145771 eV  <-- do not rely on this value for anything but (periodic) metals
  | Electronic free energy        :        -323.75903026 Ha       -8809.93145771 eV

  Derived energy quantities:
  | Kinetic energy                :         320.49203588 Ha        8721.03201760 eV
  | Electrostatic energy          :        -602.46466104 Ha      -16393.89753914 eV
  | Energy correction for multipole
  | error in Hartree potential    :           0.00000000 Ha           0.00000000 eV
  | Sum of eigenvalues per atom                           :        -395.24941156 eV
  | Total energy (T->0) per atom                          :        -677.68703521 eV  <-- do not rely on this value for anything but (periodic) metals
  | Electronic free energy per atom                       :        -677.68703521 eV
  Initialize hartree_potential_storage
  Max. number of atoms included in rho_multipole:           13

  End scf initialization - timings             :  max(cpu_time)    wall_clock(cpu1)
  | Time for scf. initialization               :        1.141 s           1.143 s
  | Boundary condition initialization          :        0.000 s           0.000 s
  | Integration                                :        0.701 s           0.702 s
  | Solution of K.-S. eqns.                    :        0.004 s           0.004 s
  | Grid partitioning                          :        0.110 s           0.110 s
  | Preloading free-atom quantities on grid    :        0.002 s           0.002 s
  | Free-atom superposition energy             :        0.084 s           0.085 s
  | Total energy evaluation                    :        0.000 s           0.000 s

  Partial memory accounting:
  | Current value for overall tracked memory usage on task 0  :           0.165 MB
  | Peak value for overall tracked memory usage on task 0     :           0.676 MB after allocating wave
  | Largest tracked array allocation on task 0 so far         :           0.131 MB  when allocating H_times_psi
  Note:  These values currently only include a subset of arrays which are explicitly tracked.
  The "true" memory usage will be greater.
------------------------------------------------------------

------------------------------------------------------------
          Begin self-consistency iteration #    1

  Date     :  20200801, Time     :  171527.777
------------------------------------------------------------
  Evaluating new KS density.
  Integration grid: deviation in total charge (<rho> - N_e) =  -1.421085E-14
  Pulay mixing of updated and previous charge densities.

  Evaluating partitioned Hartree potential by multipole expansion.
  | Analytical far-field extrapolation by fixed multipoles:
  | Hartree multipole sum: apparent total charge =  -0.171684E-03
  Summing up the Hartree potential.
  Time summed over all CPUs for potential: real work        0.285 s, elapsed        0.285 s
  | RMS charge density error from multipole expansion :   0.591054E-02

  Integrating Hamiltonian matrix: batch-based integration.
  Time summed over all CPUs for integration: real work        0.502 s, elapsed        0.502 s

  Updating Kohn-Sham eigenvalues and eigenvectors using ELSI and the ELPA eigensolver.
  Finished Cholesky decomposition
  | Time :     0.000 s
  Finished transformation to standard eigenproblem
  | Time :     0.000 s
  Starting LAPACK eigensolver
  Finished solving standard eigenproblem
  | Time :     0.001 s
  Finished back-transformation of eigenvectors
  | Time :     0.000 s

  Obtaining occupation numbers and chemical potential using ELSI.
  | Chemical potential (Fermi level):    -7.90115774eV
  Writing Kohn-Sham eigenvalues.

  State    Occupation    Eigenvalue [Ha]    Eigenvalue [eV]
      1       2.00000         -18.895277         -514.16666
      2       2.00000         -18.837891         -512.60510
      3       2.00000         -14.099754         -383.67383
      4       2.00000         -10.116944         -275.29606
      5       2.00000         -10.064560         -273.87061
      6       2.00000         -10.031973         -272.98388
      7       2.00000          -1.130549          -30.76379
      8       2.00000          -1.034279          -28.14416
      9       2.00000          -0.923942          -25.14175
     10       2.00000          -0.793433          -21.59041
     11       2.00000          -0.704734          -19.17679
     12       2.00000          -0.636832          -17.32908
     13       2.00000          -0.579710          -15.77472
     14       2.00000          -0.541244          -14.72800
     15       2.00000          -0.525199          -14.29138
     16       2.00000          -0.498412          -13.56249
     17       2.00000          -0.497020          -13.52460
     18       2.00000          -0.475626          -12.94244
     19       2.00000          -0.463771          -12.61984
     20       2.00000          -0.443763          -12.07540
     21       2.00000          -0.396841          -10.79860
     22       2.00000          -0.367462           -9.99914
     23       2.00000          -0.331001           -9.00699
     24       2.00000          -0.316723           -8.61847
     25       0.00000          -0.124948           -3.40000
     26       0.00000          -0.040096           -1.09107
     27       0.00000          -0.004470           -0.12164
     28       0.00000           0.015553            0.42321
     29       0.00000           0.022791            0.62019
     30       0.00000           0.045016            1.22494
     31       0.00000           0.059519            1.61960
     32       0.00000           0.081470            2.21691
     33       0.00000           0.089913            2.44665
     34       0.00000           0.093415            2.54195
     35       0.00000           0.112838            3.07048
     36       0.00000           0.162526            4.42254
     37       0.00000           0.182445            4.96458
     38       0.00000           0.230651            6.27635
     39       0.00000           0.253567            6.89990
     40       0.00000           0.261635            7.11946
     41       0.00000           0.290794            7.91290
     42       0.00000           0.306573            8.34228
     43       0.00000           0.315536            8.58617
     44       0.00000           0.345507            9.40173
     45       0.00000           0.369783           10.06232
     46       0.00000           0.382885           10.41882
     47       0.00000           0.394879           10.74521
     48       0.00000           0.417012           11.34746
     49       0.00000           0.484170           13.17494
     50       0.00000           0.511644           13.92253
     51       0.00000           0.551459           15.00597
     52       0.00000           0.575187           15.65165
     53       0.00000           0.624634           16.99715

  Highest occupied state (VBM) at     -8.61846522 eV
  | Occupation number:      2.00000000

  Lowest unoccupied state (CBM) at    -3.40000050 eV
  | Occupation number:      0.00000000

  Overall HOMO-LUMO gap:      5.21846472 eV.

  Total energy components:
  | Sum of eigenvalues            :        -185.41387861 Ha       -5045.36834251 eV
  | XC energy correction          :         -42.11632020 Ha       -1146.04338268 eV
  | XC potential correction       :          54.14605545 Ha        1473.38913403 eV
  | Free-atom electrostatic energy:        -146.86263264 Ha       -3996.33556553 eV
  | Hartree energy correction     :          -3.32872933 Ha         -90.57933363 eV
  | vdW energy correction         :           0.00000000 Ha           0.00000000 eV
  | Entropy correction            :           0.00000000 Ha           0.00000000 eV
  | ---------------------------
  | Total energy                  :        -323.57550533 Ha       -8804.93749033 eV
  | Total energy, T -> 0          :        -323.57550533 Ha       -8804.93749033 eV  <-- do not rely on this value for anything but (periodic) metals
  | Electronic free energy        :        -323.57550533 Ha       -8804.93749033 eV

  Derived energy quantities:
  | Kinetic energy                :         322.29221819 Ha        8770.01747050 eV
  | Electrostatic energy          :        -603.75140332 Ha      -16428.91157814 eV
  | Energy correction for multipole
  | error in Hartree potential    :           0.01173271 Ha           0.31926320 eV
  | Sum of eigenvalues per atom                           :        -388.10525712 eV
  | Total energy (T->0) per atom                          :        -677.30288387 eV  <-- do not rely on this value for anything but (periodic) metals
  | Electronic free energy per atom                       :        -677.30288387 eV

  Self-consistency convergence accuracy:
  | Change of charge density      :  0.5883E+00
  | Change of sum of eigenvalues  :  0.9287E+02 eV
  | Change of total energy        :  0.4994E+01 eV

  End self-consistency iteration #     1       :  max(cpu_time)    wall_clock(cpu1)
  | Time for this iteration                    :        1.193 s           1.199 s
  | Charge density update                      :        0.392 s           0.392 s
  | Density mixing                             :        0.006 s           0.006 s
  | Hartree multipole update                   :        0.009 s           0.009 s
  | Hartree multipole summation                :        0.285 s           0.286 s
  | Integration                                :        0.499 s           0.503 s
  | Solution of K.-S. eqns.                    :        0.002 s           0.002 s
  | Total energy evaluation                    :        0.000 s           0.000 s

  Partial memory accounting:
  | Current value for overall tracked memory usage on task 0  :           0.165 MB
  | Peak value for overall tracked memory usage on task 0     :           0.691 MB after allocating gradient_basis_wave
  | Largest tracked array allocation on task 0 so far         :           0.394 MB  when allocating gradient_basis_wave
  Note:  These values currently only include a subset of arrays which are explicitly tracked.
  The "true" memory usage will be greater.
------------------------------------------------------------

------------------------------------------------------------
          Begin self-consistency iteration #    2

  Date     :  20200801, Time     :  171528.978
------------------------------------------------------------
  Evaluating new KS density.
  Integration grid: deviation in total charge (<rho> - N_e) =   7.105427E-15
  Pulay mixing of updated and previous charge densities.

  Evaluating partitioned Hartree potential by multipole expansion.
  | Analytical far-field extrapolation by fixed multipoles:
  | Hartree multipole sum: apparent total charge =  -0.308715E-03
  Summing up the Hartree potential.
  Time summed over all CPUs for potential: real work        0.281 s, elapsed        0.281 s
  | RMS charge density error from multipole expansion :   0.139876E-01

  Integrating Hamiltonian matrix: batch-based integration.
  Time summed over all CPUs for integration: real work        0.498 s, elapsed        0.498 s

  Updating Kohn-Sham eigenvalues and eigenvectors using ELSI and the ELPA eigensolver.
  Finished Cholesky decomposition
  | Time :     0.000 s
  Finished transformation to standard eigenproblem
  | Time :     0.000 s
  Starting LAPACK eigensolver
  Finished solving standard eigenproblem
  | Time :     0.001 s
  Finished back-transformation of eigenvectors
  | Time :     0.000 s

  Obtaining occupation numbers and chemical potential using ELSI.
  | Chemical potential (Fermi level):    -2.45181812eV
  Highest occupied state (VBM) at     -6.62377665 eV
  | Occupation number:      2.00000000

  Lowest unoccupied state (CBM) at    -2.16048403 eV
  | Occupation number:      0.00000000

  Overall HOMO-LUMO gap:      4.46329262 eV.

  Checking to see if s.c.f. parameters should be adjusted.

  Total energy components:
  | Sum of eigenvalues            :        -181.84419304 Ha       -4948.23225583 eV
  | XC energy correction          :         -42.47471557 Ha       -1155.79581696 eV
  | XC potential correction       :          54.61066373 Ha        1486.03176847 eV
  | Free-atom electrostatic energy:        -146.86263264 Ha       -3996.33556553 eV
  | Hartree energy correction     :          -6.92546124 Ha        -188.45138876 eV
  | vdW energy correction         :           0.00000000 Ha           0.00000000 eV
  | Entropy correction            :           0.00000000 Ha           0.00000000 eV
  | ---------------------------
  | Total energy                  :        -323.49633877 Ha       -8802.78325861 eV
  | Total energy, T -> 0          :        -323.49633877 Ha       -8802.78325861 eV  <-- do not rely on this value for anything but (periodic) metals
  | Electronic free energy        :        -323.49633877 Ha       -8802.78325861 eV

  Derived energy quantities:
  | Kinetic energy                :         323.60533072 Ha        8805.74908051 eV
  | Electrostatic energy          :        -604.62695392 Ha      -16452.73652216 eV
  | Energy correction for multipole
  | error in Hartree potential    :           0.02575879 Ha           0.70093243 eV
  | Sum of eigenvalues per atom                           :        -380.63325045 eV
  | Total energy (T->0) per atom                          :        -677.13717374 eV  <-- do not rely on this value for anything but (periodic) metals
  | Electronic free energy per atom                       :        -677.13717374 eV

  Self-consistency convergence accuracy:
  | Change of charge density      :  0.3680E+00
  | Change of sum of eigenvalues  :  0.9714E+02 eV
  | Change of total energy        :  0.2154E+01 eV

  End self-consistency iteration #     2       :  max(cpu_time)    wall_clock(cpu1)
  | Time for this iteration                    :        1.183 s           1.185 s
  | Charge density update                      :        0.386 s           0.387 s
  | Density mixing                             :        0.007 s           0.007 s
  | Hartree multipole update                   :        0.009 s           0.009 s
  | Hartree multipole summation                :        0.281 s           0.281 s
  | Integration                                :        0.497 s           0.498 s
  | Solution of K.-S. eqns.                    :        0.002 s           0.003 s
  | Total energy evaluation                    :        0.000 s           0.000 s

  Partial memory accounting:
  | Current value for overall tracked memory usage on task 0  :           0.166 MB
  | Peak value for overall tracked memory usage on task 0     :           0.691 MB after allocating gradient_basis_wave
  | Largest tracked array allocation on task 0 so far         :           0.394 MB  when allocating gradient_basis_wave
  Note:  These values currently only include a subset of arrays which are explicitly tracked.
  The "true" memory usage will be greater.
------------------------------------------------------------

------------------------------------------------------------
          Begin self-consistency iteration #    3

  Date     :  20200801, Time     :  171530.164
------------------------------------------------------------
  Evaluating new KS density.
  Integration grid: deviation in total charge (<rho> - N_e) =   2.131628E-14
  Pulay mixing of updated and previous charge densities.

  Evaluating partitioned Hartree potential by multipole expansion.
  | Analytical far-field extrapolation by fixed multipoles:
  | Hartree multipole sum: apparent total charge =  -0.405433E-03
  Summing up the Hartree potential.
  Time summed over all CPUs for potential: real work        0.284 s, elapsed        0.284 s
  | RMS charge density error from multipole expansion :   0.219309E-01

  Integrating Hamiltonian matrix: batch-based integration.
  Time summed over all CPUs for integration: real work        0.496 s, elapsed        0.496 s

  Updating Kohn-Sham eigenvalues and eigenvectors using ELSI and the ELPA eigensolver.
  Finished Cholesky decomposition
  | Time :     0.000 s
  Finished transformation to standard eigenproblem
  | Time :     0.000 s
  Starting LAPACK eigensolver
  Finished solving standard eigenproblem
  | Time :     0.001 s
  Finished back-transformation of eigenvectors
  | Time :     0.000 s

  Obtaining occupation numbers and chemical potential using ELSI.
  | Chemical potential (Fermi level):    -5.86976786eV
  Highest occupied state (VBM) at     -5.94693195 eV
  | Occupation number:      2.00000000

  Lowest unoccupied state (CBM) at    -1.48758004 eV
  | Occupation number:      0.00000000

  Overall HOMO-LUMO gap:      4.45935191 eV.

  Total energy components:
  | Sum of eigenvalues            :        -180.53755966 Ha       -4912.67695252 eV
  | XC energy correction          :         -42.62566449 Ha       -1159.90334600 eV
  | XC potential correction       :          54.80323378 Ha        1491.27186636 eV
  | Free-atom electrostatic energy:        -146.86263264 Ha       -3996.33556553 eV
  | Hartree energy correction     :          -8.26077099 Ha        -224.78701568 eV
  | vdW energy correction         :           0.00000000 Ha           0.00000000 eV
  | Entropy correction            :          -0.00000000 Ha          -0.00000000 eV
  | ---------------------------
  | Total energy                  :        -323.48339400 Ha       -8802.43101338 eV
  | Total energy, T -> 0          :        -323.48339400 Ha       -8802.43101338 eV  <-- do not rely on this value for anything but (periodic) metals
  | Electronic free energy        :        -323.48339400 Ha       -8802.43101338 eV

  Derived energy quantities:
  | Kinetic energy                :         323.20571304 Ha        8794.87492999 eV
  | Electrostatic energy          :        -604.06344254 Ha      -16437.40259737 eV
  | Energy correction for multipole
  | error in Hartree potential    :           0.03639174 Ha           0.99026962 eV
  | Sum of eigenvalues per atom                           :        -377.89822712 eV
  | Total energy (T->0) per atom                          :        -677.11007795 eV  <-- do not rely on this value for anything but (periodic) metals
  | Electronic free energy per atom                       :        -677.11007795 eV

  Self-consistency convergence accuracy:
  | Change of charge density      :  0.2065E+00
  | Change of sum of eigenvalues  :  0.3556E+02 eV
  | Change of total energy        :  0.3522E+00 eV

  End self-consistency iteration #     3       :  max(cpu_time)    wall_clock(cpu1)
  | Time for this iteration                    :        1.189 s           1.191 s
  | Charge density update                      :        0.389 s           0.389 s
  | Density mixing                             :        0.009 s           0.009 s
  | Hartree multipole update                   :        0.009 s           0.009 s
  | Hartree multipole summation                :        0.285 s           0.284 s
  | Integration                                :        0.496 s           0.496 s
  | Solution of K.-S. eqns.                    :        0.002 s           0.002 s
  | Total energy evaluation                    :        0.000 s           0.001 s

  Partial memory accounting:
  | Current value for overall tracked memory usage on task 0  :           0.166 MB
  | Peak value for overall tracked memory usage on task 0     :           0.692 MB after allocating gradient_basis_wave
  | Largest tracked array allocation on task 0 so far         :           0.394 MB  when allocating gradient_basis_wave
  Note:  These values currently only include a subset of arrays which are explicitly tracked.
  The "true" memory usage will be greater.
------------------------------------------------------------

------------------------------------------------------------
          Begin self-consistency iteration #    4

  Date     :  20200801, Time     :  171531.357
------------------------------------------------------------
  Evaluating new KS density.
  Integration grid: deviation in total charge (<rho> - N_e) =   2.842171E-14
  Pulay mixing of updated and previous charge densities.

  Evaluating partitioned Hartree potential by multipole expansion.
  | Analytical far-field extrapolation by fixed multipoles:
  | Hartree multipole sum: apparent total charge =  -0.438823E-03
  Summing up the Hartree potential.
  Time summed over all CPUs for potential: real work        0.280 s, elapsed        0.280 s
  | RMS charge density error from multipole expansion :   0.254292E-01

  Integrating Hamiltonian matrix: batch-based integration.
  Time summed over all CPUs for integration: real work        0.492 s, elapsed        0.492 s

  Updating Kohn-Sham eigenvalues and eigenvectors using ELSI and the ELPA eigensolver.
  Finished Cholesky decomposition
  | Time :     0.000 s
  Finished transformation to standard eigenproblem
  | Time :     0.000 s
  Starting LAPACK eigensolver
  Finished solving standard eigenproblem
  | Time :     0.002 s
  Finished back-transformation of eigenvectors
  | Time :     0.000 s

  Obtaining occupation numbers and chemical potential using ELSI.
  | Chemical potential (Fermi level):    -1.63310416eV
  Highest occupied state (VBM) at     -5.79493780 eV
  | Occupation number:      2.00000000

  Lowest unoccupied state (CBM) at    -1.38537024 eV
  | Occupation number:      0.00000000

  Overall HOMO-LUMO gap:      4.40956756 eV.

  Total energy components:
  | Sum of eigenvalues            :        -180.39467847 Ha       -4908.78895770 eV
  | XC energy correction          :         -42.66384301 Ha       -1160.94223632 eV
  | XC potential correction       :          54.85124051 Ha        1492.57819593 eV
  | Free-atom electrostatic energy:        -146.86263264 Ha       -3996.33556553 eV
  | Hartree energy correction     :          -8.41244636 Ha        -228.91431243 eV
  | vdW energy correction         :           0.00000000 Ha           0.00000000 eV
  | Entropy correction            :          -0.00000000 Ha          -0.00000000 eV
  | ---------------------------
  | Total energy                  :        -323.48235997 Ha       -8802.40287606 eV
  | Total energy, T -> 0          :        -323.48235997 Ha       -8802.40287606 eV  <-- do not rely on this value for anything but (periodic) metals
  | Electronic free energy        :        -323.48235997 Ha       -8802.40287606 eV

  Derived energy quantities:
  | Kinetic energy                :         322.80542043 Ha        8783.98241403 eV
  | Electrostatic energy          :        -603.62393739 Ha      -16425.44305376 eV
  | Energy correction for multipole
  | error in Hartree potential    :           0.04062450 Ha           1.10544894 eV
  | Sum of eigenvalues per atom                           :        -377.59915059 eV
  | Total energy (T->0) per atom                          :        -677.10791354 eV  <-- do not rely on this value for anything but (periodic) metals
  | Electronic free energy per atom                       :        -677.10791354 eV

  Self-consistency convergence accuracy:
  | Change of charge density      :  0.6807E-01
  | Change of sum of eigenvalues  :  0.3888E+01 eV
  | Change of total energy        :  0.2814E-01 eV

  End self-consistency iteration #     4       :  max(cpu_time)    wall_clock(cpu1)
  | Time for this iteration                    :        1.176 s           1.178 s
  | Charge density update                      :        0.383 s           0.384 s
  | Density mixing                             :        0.009 s           0.010 s
  | Hartree multipole update                   :        0.009 s           0.009 s
  | Hartree multipole summation                :        0.281 s           0.280 s
  | Integration                                :        0.491 s           0.492 s
  | Solution of K.-S. eqns.                    :        0.002 s           0.003 s
  | Total energy evaluation                    :        0.000 s           0.000 s

  Partial memory accounting:
  | Current value for overall tracked memory usage on task 0  :           0.166 MB
  | Peak value for overall tracked memory usage on task 0     :           0.692 MB after allocating gradient_basis_wave
  | Largest tracked array allocation on task 0 so far         :           0.394 MB  when allocating gradient_basis_wave
  Note:  These values currently only include a subset of arrays which are explicitly tracked.
  The "true" memory usage will be greater.
------------------------------------------------------------

------------------------------------------------------------
          Begin self-consistency iteration #    5

  Date     :  20200801, Time     :  171532.537
------------------------------------------------------------
  Evaluating new KS density.
  Integration grid: deviation in total charge (<rho> - N_e) =   2.131628E-14
  Pulay mixing of updated and previous charge densities.

  Evaluating partitioned Hartree potential by multipole expansion.
  | Analytical far-field extrapolation by fixed multipoles:
  | Hartree multipole sum: apparent total charge =  -0.432598E-03
  Summing up the Hartree potential.
  Time summed over all CPUs for potential: real work        0.280 s, elapsed        0.280 s
  | RMS charge density error from multipole expansion :   0.251909E-01

  Integrating Hamiltonian matrix: batch-based integration.
  Time summed over all CPUs for integration: real work        0.492 s, elapsed        0.492 s

  Updating Kohn-Sham eigenvalues and eigenvectors using ELSI and the ELPA eigensolver.
  Finished Cholesky decomposition
  | Time :     0.000 s
  Finished transformation to standard eigenproblem
  | Time :     0.000 s
  Starting LAPACK eigensolver
  Finished solving standard eigenproblem
  | Time :     0.002 s
  Finished back-transformation of eigenvectors
  | Time :     0.000 s

  Obtaining occupation numbers and chemical potential using ELSI.
  | Chemical potential (Fermi level):    -1.70989946eV
  Highest occupied state (VBM) at     -5.88360010 eV
  | Occupation number:      2.00000000

  Lowest unoccupied state (CBM) at    -1.48422748 eV
  | Occupation number:      0.00000000

  Overall HOMO-LUMO gap:      4.39937262 eV.

  Total energy components:
  | Sum of eigenvalues            :        -180.60478912 Ha       -4914.50635924 eV
  | XC energy correction          :         -42.63816796 Ha       -1160.24358283 eV
  | XC potential correction       :          54.81792425 Ha        1491.67161436 eV
  | Free-atom electrostatic energy:        -146.86263264 Ha       -3996.33556553 eV
  | Hartree energy correction     :          -8.19440716 Ha        -222.98116385 eV
  | vdW energy correction         :           0.00000000 Ha           0.00000000 eV
  | Entropy correction            :          -0.00000000 Ha          -0.00000000 eV
  | ---------------------------
  | Total energy                  :        -323.48207263 Ha       -8802.39505709 eV
  | Total energy, T -> 0          :        -323.48207263 Ha       -8802.39505709 eV  <-- do not rely on this value for anything but (periodic) metals
  | Electronic free energy        :        -323.48207263 Ha       -8802.39505709 eV

  Derived energy quantities:
  | Kinetic energy                :         322.68083513 Ha        8780.59227547 eV
  | Electrostatic energy          :        -603.52473979 Ha      -16422.74374973 eV
  | Energy correction for multipole
  | error in Hartree potential    :           0.03999242 Ha           1.08824903 eV
  | Sum of eigenvalues per atom                           :        -378.03895071 eV
  | Total energy (T->0) per atom                          :        -677.10731208 eV  <-- do not rely on this value for anything but (periodic) metals
  | Electronic free energy per atom                       :        -677.10731208 eV

  Self-consistency convergence accuracy:
  | Change of charge density      :  0.2035E-01
  | Change of sum of eigenvalues  : -0.5717E+01 eV
  | Change of total energy        :  0.7819E-02 eV

  End self-consistency iteration #     5       :  max(cpu_time)    wall_clock(cpu1)
  | Time for this iteration                    :        1.176 s           1.177 s
  | Charge density update                      :        0.382 s           0.383 s
  | Density mixing                             :        0.011 s           0.011 s
  | Hartree multipole update                   :        0.009 s           0.009 s
  | Hartree multipole summation                :        0.280 s           0.280 s
  | Integration                                :        0.492 s           0.492 s
  | Solution of K.-S. eqns.                    :        0.002 s           0.002 s
  | Total energy evaluation                    :        0.000 s           0.000 s

  Partial memory accounting:
  | Current value for overall tracked memory usage on task 0  :           0.166 MB
  | Peak value for overall tracked memory usage on task 0     :           0.692 MB after allocating gradient_basis_wave
  | Largest tracked array allocation on task 0 so far         :           0.394 MB  when allocating gradient_basis_wave
  Note:  These values currently only include a subset of arrays which are explicitly tracked.
  The "true" memory usage will be greater.
------------------------------------------------------------

------------------------------------------------------------
          Begin self-consistency iteration #    6

  Date     :  20200801, Time     :  171533.716
------------------------------------------------------------
  Evaluating new KS density.
  Integration grid: deviation in total charge (<rho> - N_e) =   7.105427E-14
  Pulay mixing of updated and previous charge densities.

  Evaluating partitioned Hartree potential by multipole expansion.
  | Analytical far-field extrapolation by fixed multipoles:
  | Hartree multipole sum: apparent total charge =  -0.437022E-03
  Summing up the Hartree potential.
  Time summed over all CPUs for potential: real work        0.284 s, elapsed        0.284 s
  | RMS charge density error from multipole expansion :   0.256535E-01

  Integrating Hamiltonian matrix: batch-based integration.
  Time summed over all CPUs for integration: real work        0.497 s, elapsed        0.497 s

  Updating Kohn-Sham eigenvalues and eigenvectors using ELSI and the ELPA eigensolver.
  Finished Cholesky decomposition
  | Time :     0.000 s
  Finished transformation to standard eigenproblem
  | Time :     0.000 s
  Starting LAPACK eigensolver
  Finished solving standard eigenproblem
  | Time :     0.002 s
  Finished back-transformation of eigenvectors
  | Time :     0.000 s

  Obtaining occupation numbers and chemical potential using ELSI.
  | Chemical potential (Fermi level):    -1.70499775eV
  Highest occupied state (VBM) at     -5.84225347 eV
  | Occupation number:      2.00000000

  Lowest unoccupied state (CBM) at    -1.48656621 eV
  | Occupation number:      0.00000000

  Overall HOMO-LUMO gap:      4.35568725 eV.

  Total energy components:
  | Sum of eigenvalues            :        -180.58100668 Ha       -4913.85920612 eV
  | XC energy correction          :         -42.64036696 Ha       -1160.30342048 eV
  | XC potential correction       :          54.82074989 Ha        1491.74850383 eV
  | Free-atom electrostatic energy:        -146.86263264 Ha       -3996.33556553 eV
  | Hartree energy correction     :          -8.21877476 Ha        -223.64424015 eV
  | vdW energy correction         :           0.00000000 Ha           0.00000000 eV
  | Entropy correction            :          -0.00000000 Ha          -0.00000000 eV
  | ---------------------------
  | Total energy                  :        -323.48203115 Ha       -8802.39392845 eV
  | Total energy, T -> 0          :        -323.48203115 Ha       -8802.39392845 eV  <-- do not rely on this value for anything but (periodic) metals
  | Electronic free energy        :        -323.48203115 Ha       -8802.39392845 eV

  Derived energy quantities:
  | Kinetic energy                :         322.61451196 Ha        8778.78753032 eV
  | Electrostatic energy          :        -603.45617616 Ha      -16420.87803830 eV
  | Energy correction for multipole
  | error in Hartree potential    :           0.04045080 Ha           1.10072220 eV
  | Sum of eigenvalues per atom                           :        -377.98916970 eV
  | Total energy (T->0) per atom                          :        -677.10722527 eV  <-- do not rely on this value for anything but (periodic) metals
  | Electronic free energy per atom                       :        -677.10722527 eV

  Self-consistency convergence accuracy:
  | Change of charge density      :  0.1060E-01
  | Change of sum of eigenvalues  :  0.6472E+00 eV
  | Change of total energy        :  0.1129E-02 eV

  End self-consistency iteration #     6       :  max(cpu_time)    wall_clock(cpu1)
  | Time for this iteration                    :        1.192 s           1.194 s
  | Charge density update                      :        0.387 s           0.387 s
  | Density mixing                             :        0.012 s           0.013 s
  | Hartree multipole update                   :        0.009 s           0.009 s
  | Hartree multipole summation                :        0.284 s           0.285 s
  | Integration                                :        0.497 s           0.497 s
  | Solution of K.-S. eqns.                    :        0.002 s           0.002 s
  | Total energy evaluation                    :        0.000 s           0.001 s

  Partial memory accounting:
  | Current value for overall tracked memory usage on task 0  :           0.166 MB
  | Peak value for overall tracked memory usage on task 0     :           0.692 MB after allocating gradient_basis_wave
  | Largest tracked array allocation on task 0 so far         :           0.394 MB  when allocating gradient_basis_wave
  Note:  These values currently only include a subset of arrays which are explicitly tracked.
  The "true" memory usage will be greater.
------------------------------------------------------------

------------------------------------------------------------
          Begin self-consistency iteration #    7

  Date     :  20200801, Time     :  171534.912
------------------------------------------------------------
  Evaluating new KS density.
  Integration grid: deviation in total charge (<rho> - N_e) =   2.842171E-14
  Pulay mixing of updated and previous charge densities.

  Evaluating partitioned Hartree potential by multipole expansion.
  | Analytical far-field extrapolation by fixed multipoles:
  | Hartree multipole sum: apparent total charge =  -0.437557E-03
  Summing up the Hartree potential.
  Time summed over all CPUs for potential: real work        0.285 s, elapsed        0.285 s
  | RMS charge density error from multipole expansion :   0.257409E-01

  Integrating Hamiltonian matrix: batch-based integration.
  Time summed over all CPUs for integration: real work        0.496 s, elapsed        0.496 s

  Updating Kohn-Sham eigenvalues and eigenvectors using ELSI and the ELPA eigensolver.
  Finished Cholesky decomposition
  | Time :     0.000 s
  Finished transformation to standard eigenproblem
  | Time :     0.000 s
  Starting LAPACK eigensolver
  Finished solving standard eigenproblem
  | Time :     0.002 s
  Finished back-transformation of eigenvectors
  | Time :     0.000 s

[...]
  |   Hirshfeld dipole moment :      0.05677470
  |   Hirshfeld second moments:      0.01611161      -0.03140718      -0.01782423
  |                                 -0.03140718      -0.02263415       0.00611134
  |                                 -0.01782423       0.00611134      -0.01682971
  ----------------------------------------------------------------------
  | Atom    12: O
  |   Hirshfeld charge        :     -0.16484606
  |   Free atom volume        :     23.61338643
  |   Hirshfeld volume        :     21.01121554
  |   Hirshfeld dipole vector :      0.03383487       0.02918133      -0.00595174
  |   Hirshfeld dipole moment :      0.04507518
  |   Hirshfeld second moments:      0.05408634      -0.02490977      -0.01561378
  |                                 -0.02490977       0.05489048       0.03998586
  |                                 -0.01561378       0.03998586       0.05335433
  ----------------------------------------------------------------------
  | Atom    13: H
  |   Hirshfeld charge        :      0.18031805
  |   Free atom volume        :      9.95071624
  |   Hirshfeld volume        :      6.40648940
  |   Hirshfeld dipole vector :      0.08305026      -0.05957066      -0.06835539
  |   Hirshfeld dipole moment :      0.12295719
  |   Hirshfeld second moments:      0.11889453      -0.00659715       0.00777034
  |                                 -0.00659715       0.11103933       0.01914494
  |                                  0.00777034       0.01914494       0.09798441
  ----------------------------------------------------------------------


  Total energy components:
  | Sum of eigenvalues            :        -180.58412462 Ha       -4913.94404958 eV
  | XC energy correction          :         -42.63668273 Ha       -1160.20316747 eV
  | XC potential correction       :          54.81606542 Ha        1491.62103303 eV
  | Free-atom electrostatic energy:        -146.86263264 Ha       -3996.33556553 eV
  | Hartree energy correction     :          -8.21463096 Ha        -223.53148170 eV
  | vdW energy correction         :          -0.00322365 Ha          -0.08772004 eV
  | Entropy correction            :          -0.00000000 Ha          -0.00000000 eV
  | ---------------------------
  | Total energy                  :        -323.48522918 Ha       -8802.48095130 eV
  | Total energy, T -> 0          :        -323.48522918 Ha       -8802.48095130 eV  <-- do not rely on this value for anything but (periodic) metals
  | Electronic free energy        :        -323.48522918 Ha       -8802.48095130 eV

  Derived energy quantities:
  | Kinetic energy                :         322.57623367 Ha        8777.74592509 eV
  | Electrostatic energy          :        -603.42155648 Ha      -16419.93598887 eV
  | Energy correction for multipole
  | error in Hartree potential    :           0.04048350 Ha           1.10161206 eV
  | Sum of eigenvalues per atom                           :        -377.99569612 eV
  | Total energy (T->0) per atom                          :        -677.11391933 eV  <-- do not rely on this value for anything but (periodic) metals
  | Electronic free energy per atom                       :        -677.11391933 eV

  atomic forces [eV/Ang]:
  -----------------------
  atom #    1
   Hellmann-Feynman              :  0.262202E+00  0.658115E+00  0.120889E+01
   Ionic forces                  :  0.000000E+00  0.000000E+00  0.000000E+00
   Multipole                     :  0.511623E-02  0.313116E+00 -0.276407E+00
   Pulay + GGA                   : -0.862559E+00 -0.298353E+00 -0.140706E+01
   Van der Waals                 :  0.241732E-02  0.366129E-02 -0.712876E-03
   ----------------------------------------------------------------
   Total forces(   1)            : -0.592823E+00  0.676539E+00 -0.475289E+00
  atom #    2
   Hellmann-Feynman              :  0.305401E+00  0.554576E-01 -0.107844E+00
   Ionic forces                  :  0.000000E+00  0.000000E+00  0.000000E+00
   Multipole                     :  0.171479E+00  0.116942E-01 -0.199040E-01
   Pulay + GGA                   : -0.145960E+00  0.494881E-02  0.253244E-01
   Van der Waals                 :  0.402777E-02 -0.745348E-02 -0.588299E-02
   ----------------------------------------------------------------
   Total forces(   2)            :  0.334947E+00  0.646471E-01 -0.108306E+00
  atom #    3
   Hellmann-Feynman              :  0.456946E+01 -0.102174E+02 -0.439930E+01
   Ionic forces                  :  0.000000E+00  0.000000E+00  0.000000E+00
   Multipole                     : -0.158800E+00  0.387638E-01 -0.903251E+00
   Pulay + GGA                   : -0.376542E+01  0.928223E+01  0.583256E+01
   Van der Waals                 :  0.334163E-02 -0.603292E-03 -0.997110E-02
   ----------------------------------------------------------------
   Total forces(   3)            :  0.648582E+00 -0.896973E+00  0.520039E+00
  atom #    4
   Hellmann-Feynman              : -0.178305E+00  0.261346E+00 -0.478604E-01
   Ionic forces                  :  0.000000E+00  0.000000E+00  0.000000E+00
   Multipole                     : -0.981397E-01  0.146274E-01 -0.523564E-01
   Pulay + GGA                   :  0.228671E+00 -0.896323E-01 -0.330617E-01
   Van der Waals                 : -0.152731E-02  0.354196E-02 -0.125576E-01
   ----------------------------------------------------------------
   Total forces(   4)            : -0.493016E-01  0.189883E+00 -0.145836E+00
  atom #    5
   Hellmann-Feynman              : -0.101617E+00  0.299810E+00 -0.376131E-01
   Ionic forces                  :  0.000000E+00  0.000000E+00  0.000000E+00
   Multipole                     : -0.223859E-01  0.625217E-01 -0.812709E-01
   Pulay + GGA                   : -0.271779E-01 -0.237076E+00  0.486709E-01
   Van der Waals                 : -0.391979E-02 -0.704121E-02 -0.486594E-02
   ----------------------------------------------------------------
   Total forces(   5)            : -0.155100E+00  0.118215E+00 -0.750791E-01
  atom #    6
   Hellmann-Feynman              :  0.320743E+00 -0.838290E+00  0.750549E+00
   Ionic forces                  :  0.000000E+00  0.000000E+00  0.000000E+00
   Multipole                     : -0.122494E+00  0.620855E+00  0.192759E+00
   Pulay + GGA                   :  0.743193E-01 -0.190410E+00 -0.492240E+00
   Van der Waals                 : -0.120774E-02  0.958108E-02  0.725872E-02
   ----------------------------------------------------------------
   Total forces(   6)            :  0.271360E+00 -0.398264E+00  0.458327E+00
  atom #    7
   Hellmann-Feynman              : -0.226163E+00 -0.599952E-01 -0.502385E-01
   Ionic forces                  :  0.000000E+00  0.000000E+00  0.000000E+00
   Multipole                     : -0.121933E+00  0.478598E-01  0.330331E-01
   Pulay + GGA                   :  0.114960E+00  0.132164E-01  0.195002E-01
   Van der Waals                 : -0.117275E-02  0.544137E-02  0.717807E-02
   ----------------------------------------------------------------
   Total forces(   7)            : -0.234308E+00  0.652238E-02  0.947287E-02
  atom #    8
   Hellmann-Feynman              :  0.527904E-01  0.603355E-01  0.238767E+00
   Ionic forces                  :  0.000000E+00  0.000000E+00  0.000000E+00
   Multipole                     :  0.162807E-01  0.620556E-01  0.126185E+00
   Pulay + GGA                   : -0.470171E-01 -0.434095E-01 -0.102368E+00
   Van der Waals                 : -0.287574E-02  0.114084E-01  0.587983E-03
   ----------------------------------------------------------------
   Total forces(   8)            :  0.191783E-01  0.903900E-01  0.263173E+00
  atom #    9
   Hellmann-Feynman              :  0.109482E+00  0.483900E-01 -0.193149E+00
   Ionic forces                  :  0.000000E+00  0.000000E+00  0.000000E+00
   Multipole                     :  0.214846E-01  0.130139E+00 -0.722039E-02
   Pulay + GGA                   : -0.431449E-01 -0.691433E-01  0.713473E-01
   Van der Waals                 : -0.315071E-02  0.577061E-02  0.819706E-02
   ----------------------------------------------------------------
   Total forces(   9)            :  0.846705E-01  0.115156E+00 -0.120825E+00
  atom #   10
   Hellmann-Feynman              :  0.339217E+01  0.471532E+01  0.165392E+01
   Ionic forces                  :  0.000000E+00  0.000000E+00  0.000000E+00
   Multipole                     :  0.625991E-02 -0.105926E+00  0.350122E+00
   Pulay + GGA                   : -0.216820E+01 -0.252292E+01  0.105902E+00
   Van der Waals                 :  0.529007E-02 -0.123737E-01  0.348713E-03
   ----------------------------------------------------------------
   Total forces(  10)            :  0.123551E+01  0.207411E+01  0.211029E+01
  atom #   11
   Hellmann-Feynman              :  0.416242E+01 -0.243670E+01  0.136952E+02
   Ionic forces                  :  0.000000E+00  0.000000E+00  0.000000E+00
   Multipole                     :  0.573317E-01 -0.589571E+00  0.754694E+00
   Pulay + GGA                   : -0.368059E+01  0.396213E+01 -0.134176E+02
   Van der Waals                 : -0.325599E-02 -0.104155E-01  0.638914E-02
   ----------------------------------------------------------------
   Total forces(  11)            :  0.535906E+00  0.925444E+00  0.103865E+01
  atom #   12
   Hellmann-Feynman              : -0.142762E+02 -0.590145E+01 -0.484261E+00
   Ionic forces                  :  0.000000E+00  0.000000E+00  0.000000E+00
   Multipole                     : -0.100313E+01 -0.134999E+01 -0.160328E+00
   Pulay + GGA                   :  0.137254E+02  0.481492E+01 -0.159092E+01
   Van der Waals                 :  0.158763E-02  0.275540E-02  0.650166E-02
   ----------------------------------------------------------------
   Total forces(  12)            : -0.155236E+01 -0.243376E+01 -0.222901E+01
  atom #   13
   Hellmann-Feynman              : -0.272783E+00 -0.607052E+00 -0.146587E+01
   Ionic forces                  :  0.000000E+00  0.000000E+00  0.000000E+00
   Multipole                     :  0.526775E-01 -0.369066E-01 -0.267948E-01
   Pulay + GGA                   : -0.325129E+00  0.115395E+00  0.243927E+00
   Van der Waals                 :  0.445592E-03 -0.427298E-02 -0.247085E-02
   ----------------------------------------------------------------
   Total forces(  13)            : -0.544789E+00 -0.532836E+00 -0.125121E+01

  Timings for VdW correction (Tkatchenko-Scheffler 2009 or later):
  | CPU time:        0.090 s, Wall clock time:        0.091 s.
  Removing unitary transformations (pure translations, rotations) from forces on atoms.
  Atomic forces before filtering:
  | Net force on center of mass :   0.148018E-02 -0.933534E-03 -0.560681E-02 eV/A
  | Net torque on center of mass:   0.402030E-02  0.187785E-02  0.721045E-02 eV
  Atomic forces after filtering:
  | Net force on center of mass :  -0.267609E-15  0.267609E-15 -0.356812E-15 eV/A
  | Net torque on center of mass:  -0.613655E-15  0.485318E-15  0.566451E-15 eV

  Energy and forces in a compact form:
  | Total energy uncorrected      :         -0.880248095129563E+04 eV
  | Total energy corrected        :         -0.880248095129563E+04 eV  <-- do not rely on this value for anything but (periodic) metals
  | Electronic free energy        :         -0.880248095129563E+04 eV
  Total atomic forces (unitary forces cleaned) [eV/Ang]:
  |   1         -0.592918389284441E+00          0.676502855368439E+00         -0.474824671109885E+00
  |   2          0.334852165456813E+00          0.643479775060957E-01         -0.107739644820155E+00
  |   3          0.648618112651154E+00         -0.897044997031618E+00          0.520459104498725E+00
  |   4         -0.492777518138801E-01          0.190055913964675E+00         -0.145505447245947E+00
  |   5         -0.154815249115622E+00          0.118019683322485E+00         -0.747224356919426E-01
  |   6          0.271500946340093E+00         -0.398102901410597E+00          0.458610399890240E+00
  |   7         -0.234162742784203E+00          0.694833811122340E-02          0.965128453425682E-02
  |   8          0.192257525752258E-01          0.905750860006782E-01          0.263488426207850E+00
  |   9          0.850743627133771E-01          0.115176541469012E+00         -0.120605048220247E+00
  |  10          0.123503812644913E+01          0.207424372932781E+01          0.211085595367292E+01
  |  11          0.535258284148971E+00          0.925635089096070E+00          0.103927027726608E+01
  |  12         -0.155297113538529E+01         -0.243352581365902E+01         -0.222841377185954E+01
  |  13         -0.545422481951326E+00         -0.532831502065246E+00         -0.125052442712236E+01

  ------------------------------------ 
  Start decomposition of the XC Energy 
  ------------------------------------ 
  X and C from original XC functional choice 
  Hartree-Fock Energy :          0.000000000 Ha              0.000000000 eV
  X Energy            :        -41.036242764 Ha          -1116.652980273 eV
  C Energy            :         -1.600439963 Ha            -43.550187195 eV
  Total XC Energy     :        -42.636682726 Ha          -1160.203167469 eV
  ------------------------------------ 
  LDA X and C from self-consistent density 
  X Energy LDA        :        -37.254820539 Ha          -1013.755246174 eV
  C Energy LDA        :         -3.138468586 Ha            -85.402075426 eV
  ------------------------------------ 
  End decomposition of the XC Energy 
  ------------------------------------ 

------------------------------------------------------------

------------------------------------------------------------------------------
  Final output of selected total energy values:

  The following output summarizes some interesting total energy values
  at the end of a run (AFTER all relaxation, molecular dynamics, etc.).

  | Total energy of the DFT / Hartree-Fock s.c.f. calculation      :          -8802.480951296 eV
  | Final zero-broadening corrected energy (caution - metals only) :          -8802.480951296 eV
  | For reference only, the value of 1 Hartree used in FHI-aims is :             27.211384500 eV

  Before relying on these values, please be sure to understand exactly which
  total energy value is referred to by a given number. Different objects may
  all carry the same name 'total energy'. Definitions:

  Total energy of the DFT / Hartree-Fock s.c.f. calculation:
  | Note that this energy does not include ANY quantities calculated after the
  | s.c.f. cycle, in particular not ANY RPA, MP2, etc. many-body perturbation terms.

  Final zero-broadening corrected energy:
  | For metallic systems only, a broadening of the occupation numbers at the Fermi
  | level can be extrapolated back to zero broadening by an electron-gas inspired
  | formula. For all systems that are not real metals, this value can be
  | meaningless and should be avoided.

------------------------------------------------------------------------------
  Methods described in the following list of references were used in this FHI-aims run.
  If you publish the results, please make sure to cite these reference if they apply.
  FHI-aims is an academic code, and for our developers (often, Ph.D. students
  and postdocs), scientific credit in the community is essential.
  Thank you for helping us!

  For any use of FHI-aims, please cite:

    Volker Blum, Ralf Gehrke, Felix Hanke, Paula Havu, Ville Havu,
    Xinguo Ren, Karsten Reuter, and Matthias Scheffler
    'Ab initio molecular simulations with numeric atom-centered orbitals'
    Computer Physics Communications 180, 2175-2196 (2009)
    http://dx.doi.org/10.1016/j.cpc.2009.06.022


  The scalable eigensolver library ELPA was used in your run.
  ELPA is essential especially for large systems on hundreds or thousands of CPUs.
  For ELPA, please cite:

    Andreas Marek, Volker Blum, Rainer Johanni, Ville Havu, Bruno Lang,
    Thomas Auckenthaler, Alexander Heinecke, Hans-Joachim Bungartz, and Hermann Lederer,
    'The ELPA Library - Scalable Parallel Eigenvalue Solutions
    for Electronic Structure Theory and Computational Science'
    The Journal of Physics: Condensed Matter 26, 213201 (2014).
    http://dx.doi.org/10.1088/0953-8984/26/21/213201


  The ELSI infrastructure was used in your run to solve the Kohn-Sham electronic structure.
  Please check out http://elsi-interchange.org to learn more.
  If scalability is important for your project, please acknowledge ELSI by citing:

    V. W-z. Yu, F. Corsetti, A. Garcia, W. P. Huhn, M. Jacquelin, W. Jia,
    B. Lange, L. Lin, J. Lu, W. Mi, A. Seifitokaldani, A. Vazquez-Mayagoitia,
    C. Yang, H. Yang, and V. Blum
    'ELSI: A unified software interface for Kohn-Sham electronic structure solvers'
    Computer Physics Communications 222, 267-285 (2018).
    http://dx.doi.org/10.1016/j.cpc.2017.09.007


  For the real-space grid partitioning and parallelization used in this calculation, please cite:

    Ville Havu, Volker Blum, Paula Havu, and Matthias Scheffler,
    'Efficient O(N) integration for all-electron electronic structure calculation'
    'using numerically tabulated basis functions'
    Journal of Computational Physics 228, 8367-8379 (2009).
    http://dx.doi.org/10.1016/j.jcp.2009.08.008

  Of course, there are many other important community references, e.g., those cited in the
  above references. Our list is limited to references that describe implementations in the
  FHI-aims code. The reason is purely practical (length of this list) - please credit others as well.

------------------------------------------------------------
          Leaving FHI-aims.
          Date     :  20200801, Time     :  171549.232

          Computational steps:
          | Number of self-consistency cycles          :           16
          | Number of SCF (re)initializations          :            1

          Detailed time accounting                     :  max(cpu_time)    wall_clock(cpu1)
          | Total time                                 :       22.673 s          22.761 s
          | Preparation time                           :        0.144 s           0.145 s
          | Boundary condition initalization           :        0.000 s           0.000 s
          | Grid partitioning                          :        0.110 s           0.110 s
          | Preloading free-atom quantities on grid    :        0.002 s           0.002 s
          | Free-atom superposition energy             :        0.084 s           0.085 s
          | Total time for integrations                :        8.603 s           8.613 s
          | Total time for solution of K.-S. equations :        0.037 s           0.041 s
          | Total time for density & force components  :        7.116 s           7.138 s
          | Total time for mixing                      :        0.217 s           0.223 s
          | Total time for Hartree multipole update    :        0.144 s           0.144 s
          | Total time for Hartree multipole sum       :        5.816 s           5.826 s
          | Total time for total energy evaluation     :        0.003 s           0.004 s
          | Total time for vdW correction              :        0.090 s           0.091 s

          Partial memory accounting:
          | Residual value for overall tracked memory usage across tasks :           0.000 MB (should be 0.000 MB)
          | Peak values for overall tracked memory usage (after allocating hessian_basis_wave):
          |   Minimum:        1.612 MB (on task 1)
          |   Maximum:        1.612 MB (on task 1)
          |   Average:        1.612 MB
          | Largest tracked array allocation (hessian_basis_wave):
          |   Minimum:        0.788 MB (on task 1)
          |   Maximum:        0.788 MB (on task 1)
          |   Average:        0.788 MB
          Note:  These values currently only include a subset of arrays which are explicitly tracked.
          The "true" memory usage will be greater.

          Have a nice day.
------------------------------------------------------------
