  MPI-parallelism will be employed.
------------------------------------------------------------
          Invoking FHI-aims ...
          Version 171221_1
          Compiled on 2019/09/09 at 14:39:39 on host puhti-login2.bullx.

          When using FHI-aims, please cite the following reference:

          Volker Blum, Ralf Gehrke, Felix Hanke, Paula Havu,
          Ville Havu, Xinguo Ren, Karsten Reuter, and Matthias Scheffler,
          'Ab Initio Molecular Simulations with Numeric Atom-Centered Orbitals',
          Computer Physics Communications 180, 2175-2196 (2009)

          For any questions about FHI-aims, please visit the aimsclub website
          with its forums and wiki. Contributions to both the forums and the
          wiki are warmly encouraged - they are for you, and everyone is welcome there.

------------------------------------------------------------



  Date     :  20200805, Time     :  185910.337
  Time zero on CPU 1             :   0.113740000000000E-01  s.
  Internal wall clock time zero  :           365885950.337  s.

  FHI-aims created a unique identifier for this run for later identification
  aims_uuid : 9CDA9EEB-E7C8-4281-AB5F-D769A6082737

  Using        1 parallel tasks.
  Task        0 on host r18c19.bullx reporting.

  Performing system and environment tests:
  | Environment variable OMP_NUM_THREADS correctly set to 1.
  | Stacksize not measured: no C compiler
  | Checking for scalapack...
  | Testing pdtran()...
  | All pdtran() tests passed.

  Obtaining array dimensions for all initial allocations:
  
  -----------------------------------------------------------------------
  Parsing control.in (first pass over file, find array dimensions only).
  The contents of control.in will be repeated verbatim below
  unless switched off by setting 'verbatim_writeout .false.' .
  in the first line of control.in .
  -----------------------------------------------------------------------
  
  #########################################################################################
  #
  #  Volker Blum, FHI 2009 : Test run input file control.in for simple H2O
  #
  #########################################################################################
  #
  #  Physical model
  #
    xc                 pbe
    vdw_correction_hirshfeld
    spin               none
    relativistic       none
    charge             0.
  #
  #  SCF convergence
  #
    occupation_type    gaussian 0.01
    mixer              pulay
      n_max_pulay        10
      charge_mix_param   0.2
    sc_accuracy_rho    1E-5
    sc_accuracy_eev    1E-3
    sc_accuracy_etot   1E-6
    sc_accuracy_forces 1E-4
    sc_iter_limit      100
  #
  #  Relaxation
  #
  #  relax_geometry   bfgs 1.e-3
  #
  ################################################################################
  #
  #  FHI-aims code project
  #  VB, Fritz-Haber Institut, 2009
  #
  #  Suggested "light" defaults for H atom (to be pasted into control.in file)
  #  Be sure to double-check any results obtained with these settings for post-processing,
  #  e.g., with the "tight" defaults and larger basis sets.
  #
  ################################################################################
    species        H
  #     global species definitions
      nucleus             1
      mass                1.00794
  #
      l_hartree           4
  #
      cut_pot             3.5  1.5  1.0
      basis_dep_cutoff    1e-4
  #
      radial_base         24 5.0
      radial_multiplier   1
      angular_grids       specified
        division   0.2421   50
        division   0.3822  110
        division   0.4799  194
        division   0.5341  302
  #      division   0.5626  434
  #      division   0.5922  590
  #      division   0.6542  770
  #      division   0.6868 1202
  #      outer_grid  770
        outer_grid  302
  ################################################################################
  #
  #  Definition of "minimal" basis
  #
  ################################################################################
  #     valence basis states
      valence      1  s   1.
  #     ion occupancy
      ion_occ      1  s   0.5
  ################################################################################
  #
  #  Suggested additional basis functions. For production calculations,
  #  uncomment them one after another (the most important basis functions are
  #  listed first).
  #
  #  Basis constructed for dimers: 0.5 A, 0.7 A, 1.0 A, 1.5 A, 2.5 A
  #
  ################################################################################
  #  "First tier" - improvements: -1014.90 meV to -62.69 meV
       hydro 2 s 2.1
       hydro 2 p 3.5
  #  "Second tier" - improvements: -12.89 meV to -1.83 meV
  #     hydro 1 s 0.85
  #     hydro 2 p 3.7
  #     hydro 2 s 1.2
  #     hydro 3 d 7
  #  "Third tier" - improvements: -0.25 meV to -0.12 meV
  #     hydro 4 f 11.2
  #     hydro 3 p 4.8
  #     hydro 4 d 9
  #     hydro 3 s 3.2
  ################################################################################
  #
  #  FHI-aims code project
  #  VB, Fritz-Haber Institut, 2009
  #
  #  Suggested "light" defaults for C atom (to be pasted into control.in file)
  #  Be sure to double-check any results obtained with these settings for post-processing,
  #  e.g., with the "tight" defaults and larger basis sets.
  #
  ################################################################################
    species        C
  #     global species definitions
      nucleus             6
      mass                12.0107
  #
      l_hartree           4
  #
      cut_pot             3.5  1.5  1.0
      basis_dep_cutoff    1e-4
  #
      radial_base         34 5.0
      radial_multiplier   1
      angular_grids specified
        division   0.3326   50
        division   0.5710  110
        division   0.7727  194
        division   0.8772  302
  #      division   0.9334  434
  #      division   0.9625  590
  #      division   0.9924  770
  #      division   1.0230  974
  #      division   1.4589 1202
  #     outer_grid  974
       outer_grid 302
  ################################################################################
  #
  #  Definition of "minimal" basis
  #
  ################################################################################
  #     valence basis states
      valence      2  s   2.
      valence      2  p   2.
  #     ion occupancy
      ion_occ      2  s   1.
      ion_occ      2  p   1.
  ################################################################################
  #
  #  Suggested additional basis functions. For production calculations,
  #  uncomment them one after another (the most important basis functions are
  #  listed first).
  #
  #  Constructed for dimers: 1.0 A, 1.25 A, 1.5 A, 2.0 A, 3.0 A
  #
  ################################################################################
  #  "First tier" - improvements: -1214.57 meV to -155.61 meV
       hydro 2 p 1.7
       hydro 3 d 6
       hydro 2 s 4.9
  #  "Second tier" - improvements: -67.75 meV to -5.23 meV
  #     hydro 4 f 9.8
  #     hydro 3 p 5.2
  #     hydro 3 s 4.3
  #     hydro 5 g 14.4
  #     hydro 3 d 6.2
  #  "Third tier" - improvements: -2.43 meV to -0.60 meV
  #     hydro 2 p 5.6
  #     hydro 2 s 1.4
  #     hydro 3 d 4.9
  #     hydro 4 f 11.2
  #  "Fourth tier" - improvements: -0.39 meV to -0.18 meV
  #     hydro 2 p 2.1
  #     hydro 5 g 16.4
  #     hydro 4 d 13.2
  #     hydro 3 s 13.6
  #     hydro 4 f 17.6
  #  Further basis functions - improvements: -0.08 meV and below
  #     hydro 3 s 2
  #     hydro 3 p 6
  #     hydro 4 d 20
  ################################################################################
  #
  #  FHI-aims code project
  #  VB, Fritz-Haber Institut, 2009
  #
  #  Suggested "light" defaults for N atom (to be pasted into control.in file)
  #  Be sure to double-check any results obtained with these settings for post-processing,
  #  e.g., with the "tight" defaults and larger basis sets.
  #
  ################################################################################
    species        N
  #     global species definitions
      nucleus             7
      mass                14.0067
  #
      l_hartree           4
  #
      cut_pot             3.5  1.5  1.0
      basis_dep_cutoff    1e-4
  #
      radial_base         35 5.0
      radial_multiplier   1
      angular_grids       specified
        division   0.2599   50
        division   0.4601  110
        division   0.5885  194
        division   0.6503  302
  #      division   0.6939  434
  #      division   0.7396  590
  #      division   0.7632  770
  #      division   0.8122  974
  #      division   1.1604 1202
  #      outer_grid  974
        outer_grid  302
  ################################################################################
  #
  #  Definition of "minimal" basis
  #
  ################################################################################
  #     valence basis states
      valence      2  s   2.
      valence      2  p   3.
  #     ion occupancy
      ion_occ      2  s   1.
      ion_occ      2  p   2.
  ################################################################################
  #
  #  Suggested additional basis functions. For production calculations,
  #  uncomment them one after another (the most important basis functions are
  #  listed first).
  #
  #  Constructed for dimers: 1.0 A, 1.1 A, 1.5 A, 2.0 A, 3.0 A
  #
  ################################################################################
  #  "First tier" - improvements: -1193.42 meV to -220.60 meV
       hydro 2 p 1.8
       hydro 3 d 6.8
       hydro 3 s 5.8
  #  "Second tier" - improvements: -80.21 meV to -6.86 meV
  #     hydro 4 f 10.8
  #     hydro 3 p 5.8
  #     hydro 1 s 0.8
  #     hydro 5 g 16
  #     hydro 3 d 4.9
  #  "Third tier" - improvements: -4.29 meV to -0.53 meV
  #     hydro 3 s 16
  #     ionic 2 p auto
  #     hydro 3 d 6.6
  #     hydro 4 f 11.6
  #  "Fourth tier" - improvements: -0.75 meV to -0.25 meV
  #     hydro 2 p 4.5
  #     hydro 2 s 2.4
  #     hydro 5 g 14.4
  #     hydro 4 d 14.4
  #     hydro 4 f 16.8
  # Further basis functions - -0.21 meV and below
  #     hydro 3 p 14.8
  #     hydro 3 s 4.4
  #     hydro 3 d 19.6
  #     hydro 5 g 12.8
  ################################################################################
  #
  #  FHI-aims code project
  #  VB, Fritz-Haber Institut, 2009
  #
  #  Suggested "light" defaults for O atom (to be pasted into control.in file)
  #  Be sure to double-check any results obtained with these settings for post-processing,
  #  e.g., with the "tight" defaults and larger basis sets.
  #
  ################################################################################
    species        O
  #     global species definitions
      nucleus             8
      mass                15.9994
  #
      l_hartree           4
  #
      cut_pot             3.5  1.5  1.0
      basis_dep_cutoff    1e-4
  #
      radial_base         36 5.0
      radial_multiplier   1
       angular_grids specified
        division   0.2659   50
        division   0.4451  110
        division   0.6052  194
        division   0.7543  302
  #      division   0.8014  434
  #      division   0.8507  590
  #      division   0.8762  770
  #      division   0.9023  974
  #      division   1.2339 1202
  #      outer_grid 974
        outer_grid 302
  ################################################################################
  #
  #  Definition of "minimal" basis
  #
  ################################################################################
  #     valence basis states
      valence      2  s   2.
      valence      2  p   4.
  #     ion occupancy
      ion_occ      2  s   1.
      ion_occ      2  p   3.
  ################################################################################
  #
  #  Suggested additional basis functions. For production calculations,
  #  uncomment them one after another (the most important basis functions are
  #  listed first).
  #
  #  Constructed for dimers: 1.0 A, 1.208 A, 1.5 A, 2.0 A, 3.0 A
  #
  ################################################################################
  #  "First tier" - improvements: -699.05 meV to -159.38 meV
       hydro 2 p 1.8
       hydro 3 d 7.6
       hydro 3 s 6.4
  #  "Second tier" - improvements: -49.91 meV to -5.39 meV
  #     hydro 4 f 11.6
  #     hydro 3 p 6.2
  #     hydro 3 d 5.6
  #     hydro 5 g 17.6
  #     hydro 1 s 0.75
  #  "Third tier" - improvements: -2.83 meV to -0.50 meV
  #     ionic 2 p auto
  #     hydro 4 f 10.8
  #     hydro 4 d 4.7
  #     hydro 2 s 6.8
  #  "Fourth tier" - improvements: -0.40 meV to -0.12 meV
  #     hydro 3 p 5
  #     hydro 3 s 3.3
  #     hydro 5 g 15.6
  #     hydro 4 f 17.6
  #     hydro 4 d 14
  # Further basis functions - -0.08 meV and below
  #     hydro 3 s 2.1
  #     hydro 4 d 11.6
  #     hydro 3 p 16
  #     hydro 2 s 17.2
  
  -----------------------------------------------------------------------
  Completed first pass over input file control.in .
  -----------------------------------------------------------------------
  
  
  -----------------------------------------------------------------------
  Parsing geometry.in (first pass over file, find array dimensions only).
  The contents of geometry.in will be repeated verbatim below
  unless switched off by setting 'verbatim_writeout .false.' .
  in the first line of geometry.in .
  -----------------------------------------------------------------------
  
  atom  0.00000 0.00000 0.00000 C
  atom  1.09300 0.00000 0.00000 H
  atom  -0.47961 0.00000 -1.41207 N
  atom  -0.73664 0.95348 -1.67020 H
  atom  0.27051 -0.33686 -2.01205 H
  atom  -0.49584 1.26211 0.72868 C
  atom  -1.58789 1.28919 0.74431 H
  atom  -0.13407 1.27425 1.75947 H
  atom  -0.13407 2.16087 0.22380 H
  atom  -0.39425 -1.28861 0.74398 C
  atom  -0.10189 -1.56493 1.88303 O
  atom  -1.10210 -2.13717 0.06896 O
  atom  -1.98484 -1.82731 0.33303 H
  
  -----------------------------------------------------------------------
  Completed first pass over input file geometry.in .
  -----------------------------------------------------------------------
  

  Basic array size parameters:
  | Number of species                 :        4
  | Number of atoms                   :       13
  | Max. basis fn. angular momentum   :        2
  | Max. atomic/ionic basis occupied n:        2
  | Max. number of basis fn. types    :        2
  | Max. radial fns per species/type  :        3
  | Max. logarithmic grid size        :     1301
  | Max. radial integration grid size :       36
  | Max. angular integration grid size:      302
  | Max. angular grid division number :        8
  | Radial grid for Hartree potential :     1301
  | Number of spin channels           :        1

------------------------------------------------------------
          Reading file control.in.
------------------------------------------------------------
  XC: Using PBE gradient-corrected functionals.
  Spin treatment: No spin polarisation.
  Non-relativistic treatment of kinetic energy.
  Charge =   0.000000E+00: Neutral system requested explicitly.
  Occupation type: Gaussian broadening, width =   0.100000E-01 eV.
  Using pulay charge density mixing.
  Pulay mixing - number of memorized iterations:   10
  Charge density mixing - mixing parameter:     0.2000
  Convergence accuracy of self-consistent charge density:  0.1000E-04
  Convergence accuracy of sum of eigenvalues:  0.1000E-02
  Convergence accuracy of total energy:  0.1000E-05
  Convergence accuracy of forces:  0.1000E-03
  Maximum number of s.-c. iterations  :   100
 
  Reading configuration options for species H                   .
  | Found nuclear charge :   1.0000
  | Found atomic mass :    1.00794000000000      amu
  | Found l_max for Hartree potential  :   4
  | Found cutoff potl. onset [A], width [A], scale factor :    3.50000    1.50000    1.00000
  | Threshold for basis-dependent cutoff potential is   0.100000E-03
  | Found data for basic radial integration grid :    24 points, outermost radius =    5.000 A
  | Found multiplier for basic radial grid :   1
  | Found angular grid specification: user-specified.
  | Specified grid contains     5 separate shells.
  | Check grid settings after all constraints further below.
  | Found free-atom valence shell :  1 s   1.000
  | No ionic wave fns used. Skipping ion_occ.
  | Found hydrogenic basis function :  2 s   2.100
  | Found hydrogenic basis function :  2 p   3.500
  Species H                   : Missing cutoff potential type.
  Defaulting to exp(1/x)/(1-x)^2 type cutoff potential.
  Species H : No 'logarithmic' tag. Using default grid for free atom:
  | Default logarithmic grid data [bohr] : 0.1000E-03 0.1000E+03 0.1012E+01
  Species H : On-site basis accuracy parameter (for Gram-Schmidt orthonormalisation) not specified.
  Using default value basis_acc =  0.1000000E-03.
  Species H                   : Using default innermost maximum threshold i_radial=  2 for radial functions.
  Species H                   : Default cutoff onset for free atom density etc. : 0.35000000E+01 AA.
  Species H                   : Basic radial grid will be enhanced according to radial_multiplier =   1, to contain    24 grid points.
 
  Reading configuration options for species C                   .
  | Found nuclear charge :   6.0000
  | Found atomic mass :    12.0107000000000      amu
  | Found l_max for Hartree potential  :   4
  | Found cutoff potl. onset [A], width [A], scale factor :    3.50000    1.50000    1.00000
  | Threshold for basis-dependent cutoff potential is   0.100000E-03
  | Found data for basic radial integration grid :    34 points, outermost radius =    5.000 A
  | Found multiplier for basic radial grid :   1
  | Found angular grid specification: user-specified.
  | Specified grid contains     5 separate shells.
  | Check grid settings after all constraints further below.
  | Found free-atom valence shell :  2 s   2.000
  | Found free-atom valence shell :  2 p   2.000
  | No ionic wave fns used. Skipping ion_occ.
  | No ionic wave fns used. Skipping ion_occ.
  | Found hydrogenic basis function :  2 p   1.700
  | Found hydrogenic basis function :  3 d   6.000
  | Found hydrogenic basis function :  2 s   4.900
  Species C                   : Missing cutoff potential type.
  Defaulting to exp(1/x)/(1-x)^2 type cutoff potential.
  Species C : No 'logarithmic' tag. Using default grid for free atom:
  | Default logarithmic grid data [bohr] : 0.1000E-03 0.1000E+03 0.1012E+01
  Species C : On-site basis accuracy parameter (for Gram-Schmidt orthonormalisation) not specified.
  Using default value basis_acc =  0.1000000E-03.
  Species C                   : Using default innermost maximum threshold i_radial=  2 for radial functions.
  Species C                   : Default cutoff onset for free atom density etc. : 0.35000000E+01 AA.
  Species C                   : Basic radial grid will be enhanced according to radial_multiplier =   1, to contain    34 grid points.
 
  Reading configuration options for species N                   .
  | Found nuclear charge :   7.0000
  | Found atomic mass :    14.0067000000000      amu
  | Found l_max for Hartree potential  :   4
  | Found cutoff potl. onset [A], width [A], scale factor :    3.50000    1.50000    1.00000
  | Threshold for basis-dependent cutoff potential is   0.100000E-03
  | Found data for basic radial integration grid :    35 points, outermost radius =    5.000 A
  | Found multiplier for basic radial grid :   1
  | Found angular grid specification: user-specified.
  | Specified grid contains     5 separate shells.
  | Check grid settings after all constraints further below.
  | Found free-atom valence shell :  2 s   2.000
  | Found free-atom valence shell :  2 p   3.000
  | No ionic wave fns used. Skipping ion_occ.
  | No ionic wave fns used. Skipping ion_occ.
  | Found hydrogenic basis function :  2 p   1.800
  | Found hydrogenic basis function :  3 d   6.800
  | Found hydrogenic basis function :  3 s   5.800
  Species N                   : Missing cutoff potential type.
  Defaulting to exp(1/x)/(1-x)^2 type cutoff potential.
  Species N : No 'logarithmic' tag. Using default grid for free atom:
  | Default logarithmic grid data [bohr] : 0.1000E-03 0.1000E+03 0.1012E+01
  Species N : On-site basis accuracy parameter (for Gram-Schmidt orthonormalisation) not specified.
  Using default value basis_acc =  0.1000000E-03.
  Species N                   : Using default innermost maximum threshold i_radial=  2 for radial functions.
  Species N                   : Default cutoff onset for free atom density etc. : 0.35000000E+01 AA.
  Species N                   : Basic radial grid will be enhanced according to radial_multiplier =   1, to contain    35 grid points.
 
  Reading configuration options for species O                   .
  | Found nuclear charge :   8.0000
  | Found atomic mass :    15.9994000000000      amu
  | Found l_max for Hartree potential  :   4
  | Found cutoff potl. onset [A], width [A], scale factor :    3.50000    1.50000    1.00000
  | Threshold for basis-dependent cutoff potential is   0.100000E-03
  | Found data for basic radial integration grid :    36 points, outermost radius =    5.000 A
  | Found multiplier for basic radial grid :   1
  | Found angular grid specification: user-specified.
  | Specified grid contains     5 separate shells.
  | Check grid settings after all constraints further below.
  | Found free-atom valence shell :  2 s   2.000
  | Found free-atom valence shell :  2 p   4.000
  | No ionic wave fns used. Skipping ion_occ.
  | No ionic wave fns used. Skipping ion_occ.
  | Found hydrogenic basis function :  2 p   1.800
  | Found hydrogenic basis function :  3 d   7.600
  | Found hydrogenic basis function :  3 s   6.400
  Species O                   : Missing cutoff potential type.
  Defaulting to exp(1/x)/(1-x)^2 type cutoff potential.
  Species O : No 'logarithmic' tag. Using default grid for free atom:
  | Default logarithmic grid data [bohr] : 0.1000E-03 0.1000E+03 0.1012E+01
  Species O : On-site basis accuracy parameter (for Gram-Schmidt orthonormalisation) not specified.
  Using default value basis_acc =  0.1000000E-03.
  Species O                   : Using default innermost maximum threshold i_radial=  2 for radial functions.
  Species O                   : Default cutoff onset for free atom density etc. : 0.35000000E+01 AA.
  Species O                   : Basic radial grid will be enhanced according to radial_multiplier =   1, to contain    36 grid points.
 
  Finished reading input file 'control.in'. Consistency checks are next.
 
  MPI_IN_PLACE appears to work with this MPI implementation.
  | Keeping use_mpi_in_place .true. (see manual).
  Target number of points in a grid batch is not set. Defaulting to  100
  Method for grid partitioning is not set. Defaulting to parallel hash+maxmin partitioning.
  Batch size limit is not set. Defaulting to    200
  By default, will store active basis functions for each batch.
  If in need of memory, prune_basis_once .false. can be used to disable this option.
  communication_type for Hartree potential was not specified.
  Defaulting to calc_hartree .
  Pulay mixer: Number of initial linear mixing iterations not set.
  Defaulting to    0 iterations.
  Work space size for distributed Hartree potential not set.
  Defaulting to   0.200000E+03 MB.
  Algorithm-dependent basis array size parameters:
  | n_max_pulay                         :       10
  Presetting      1001 iterations before the initial mixing cycle
  is restarted anyway using the sc_init_iter criterion / keyword.
  Presetting a factor      1.000 between actual scf density residual
  and density convergence criterion sc_accuracy_rho below which sc_init_iter
  takes no effect.
  Geometry relaxation not requested: no relaxation will be performed.
  Handling of forces: Unphysical translation and rotation will be removed from forces.
  No accuracy limit for integral partition fn. given. Defaulting to  0.1000E-14.
  No threshold value for u(r) in integrations given. Defaulting to  0.1000E-05.
  No accuracy for occupation numbers given. Defaulting to  0.1000E-12.
  No threshold value for occupation numbers given. Defaulting to  0.0000E+00.
  No accuracy for fermi level given. Defaulting to  0.1000E-19.
  Maximum # of iterations to find E_F not set. Defaulting to  200.
  Preferred method for the eigenvalue solver ('KS_method') not specified in 'control.in'.
  Defaulting to serial version, 'lapack_fast'.
  Will not use alltoall communication since running on < 1024 CPUs.
  Threshold for basis singularities not set.
  Default threshold for basis singularities:  0.1000E-04
  partition_type (choice of integration weights) for integrals was not specified.
  | Using a version of the partition function of Stratmann and coworkers ('stratmann_smoother').
  | At each grid point, the set of atoms used to build the partition table is smoothly restricted to
  | only those atoms whose free-atom density would be non-zero at that grid point.
  Partitioning for Hartree potential was not defined. Using partition_type for integrals.
  | Adjusted default value of keyword multip_moments_threshold to:       0.10000000E-11
  | This value may affect high angular momentum components of the Hartree potential in periodic systems.
  No q(lm)/r^(l+1) cutoff set for long-range Hartree potential.
  | Using default value of  0.100000E-09 .
  | Verify using the multipole_threshold keyword.
  Defaulting to new monopole extrapolation.
  Density update method: automatic selection selected.
------------------------------------------------------------


------------------------------------------------------------
          Reading geometry description geometry.in.
------------------------------------------------------------
  Input structure read successfully.
  The structure contains       13 atoms,  and a total of         48.000 electrons.

  Input geometry:
  | No unit cell requested.
  | Atomic structure:
  |       Atom                x [A]            y [A]            z [A]
  |    1: Species C             0.00000000        0.00000000        0.00000000
  |    2: Species H             1.09300000        0.00000000        0.00000000
  |    3: Species N            -0.47961000        0.00000000       -1.41207000
  |    4: Species H            -0.73664000        0.95348000       -1.67020000
  |    5: Species H             0.27051000       -0.33686000       -2.01205000
  |    6: Species C            -0.49584000        1.26211000        0.72868000
  |    7: Species H            -1.58789000        1.28919000        0.74431000
  |    8: Species H            -0.13407000        1.27425000        1.75947000
  |    9: Species H            -0.13407000        2.16087000        0.22380000
  |   10: Species C            -0.39425000       -1.28861000        0.74398000
  |   11: Species O            -0.10189000       -1.56493000        1.88303000
  |   12: Species O            -1.10210000       -2.13717000        0.06896000
  |   13: Species H            -1.98484000       -1.82731000        0.33303000
  |

  | The smallest distance between any two atoms is         0.97209881 AA.
  |
  | The first atom of this pair is atom number                     12 .
  | The second atom of this pair is atom number                    13 .

  Number of empty states per atom not set in control.in - providing a guess from actual geometry.
  | Total number of empty states used during s.c.f. cycle:       29
  If you use a very high smearing, use empty_states (per atom!) in control.in to increase this value.

  Structure-dependent array size parameters: 
  | Maximum number of distinct radial functions  :       21
  | Maximum number of basis functions            :      119
  | Number of Kohn-Sham states (occupied + empty):       53
------------------------------------------------------------

------------------------------------------------------------
          Preparing all fixed parts of the calculation.
------------------------------------------------------------
  Determining machine precision:
    2.225073858507201E-308
  Setting up grids for atomic and cluster calculations.

  Creating wave function, potential, and density for free atoms.

  Species: H

  List of occupied orbitals and eigenvalues:
    n    l              occ      energy [Ha]    energy [eV]
    1    0           1.0000        -0.237589        -6.4651


  Species: C

  List of occupied orbitals and eigenvalues:
    n    l              occ      energy [Ha]    energy [eV]
    1    0           2.0000       -10.038835      -273.1706
    2    0           2.0000        -0.502696       -13.6791
    2    1           2.0000        -0.191971        -5.2238


  Species: N

  List of occupied orbitals and eigenvalues:
    n    l              occ      energy [Ha]    energy [eV]
    1    0           2.0000       -14.128000      -384.4424
    2    0           2.0000        -0.681077       -18.5330
    2    1           3.0000        -0.259788        -7.0692


  Species: O

  List of occupied orbitals and eigenvalues:
    n    l              occ      energy [Ha]    energy [eV]
    1    0           2.0000       -18.898188      -514.2459
    2    0           2.0000        -0.878505       -23.9053
    2    1           4.0000        -0.331779        -9.0282

  Creating fixed part of basis set: Ionic, confined, hydrogenic.
 
  H                    hydrogenic:
 
  List of hydrogenic basis orbitals: 
    n    l      effective z      eigenvalue [eV]  inner max. [A]     outer max. [A]     outer radius [A]   
    2    0         2.100000       -14.9728           0.193243           1.317208           4.583499
    2    1         3.500000       -41.6669           0.602369           0.602369           3.723403
 
 
  C                    hydrogenic:
 
  List of hydrogenic basis orbitals: 
    n    l      effective z      eigenvalue [eV]  inner max. [A]     outer max. [A]     outer radius [A]   
    2    1         1.700000        -9.7616           1.230570           1.230570           4.607917
    3    2         6.000000       -54.4224           0.792453           0.792453           3.883070
    2    0         4.900000       -81.6679           0.082559           0.562749           3.078220
 
 
  N                    hydrogenic:
 
  List of hydrogenic basis orbitals: 
    n    l      effective z      eigenvalue [eV]  inner max. [A]     outer max. [A]     outer radius [A]   
    2    1         1.800000       -10.9749           1.177451           1.177451           4.573712
    3    2         6.800000       -69.9026           0.704619           0.704619           3.538137
    3    0         5.800000       -50.8545           0.067388           1.191934           4.250239
 
 
  O                    hydrogenic:
 
  List of hydrogenic basis orbitals: 
    n    l      effective z      eigenvalue [eV]  inner max. [A]     outer max. [A]     outer radius [A]   
    2    1         1.800000       -10.9749           1.164242           1.164242           4.578029
    3    2         7.600000       -87.3180           0.624125           0.624125           3.251020
    3    0         6.400000       -61.9207           0.061167           1.081902           4.001998
 

  Adding cutoff potential to free-atom effective potential.
  Creating atomic-like basis functions for current effective potential.

  Species H                   :

  List of atomic basis orbitals and eigenvalues:
    n    l      energy [Ha]    energy [eV]    outer radius [A]
    1    0        -0.237589        -6.4651       4.527807


  Species C                   :

  List of atomic basis orbitals and eigenvalues:
    n    l      energy [Ha]    energy [eV]    outer radius [A]
    1    0       -10.038835      -273.1706       1.934409
    2    0        -0.502696       -13.6791       4.496620
    2    1        -0.191971        -5.2238       4.551928


  Species N                   :

  List of atomic basis orbitals and eigenvalues:
    n    l      energy [Ha]    energy [eV]    outer radius [A]
    1    0       -14.128000      -384.4424       1.637919
    2    0        -0.681077       -18.5330       4.463241
    2    1        -0.259788        -7.0692       4.518138


  Species O                   :

  List of atomic basis orbitals and eigenvalues:
    n    l      energy [Ha]    energy [eV]    outer radius [A]
    1    0       -18.898188      -514.2459       1.415765
    2    0        -0.878505       -23.9053       4.413171
    2    1        -0.331779        -9.0282       4.522403

  Assembling full basis from fixed parts.
  | Species H :   atomic orbital   1 s accepted.
  | Species H :    hydro orbital   2 s accepted.
  | Species H :    hydro orbital   2 p accepted.
  | Species C :   atomic orbital   1 s accepted.
  | Species C :    hydro orbital   2 s accepted.
  | Species C :   atomic orbital   2 s accepted.
  | Species C :   atomic orbital   2 p accepted.
  | Species C :    hydro orbital   2 p accepted.
  | Species C :    hydro orbital   3 d accepted.
  | Species N :   atomic orbital   1 s accepted.
  | Species N :    hydro orbital   3 s accepted.
  | Species N :   atomic orbital   2 s accepted.
  | Species N :   atomic orbital   2 p accepted.
  | Species N :    hydro orbital   2 p accepted.
  | Species N :    hydro orbital   3 d accepted.
  | Species O :   atomic orbital   1 s accepted.
  | Species O :    hydro orbital   3 s accepted.
  | Species O :   atomic orbital   2 s accepted.
  | Species O :   atomic orbital   2 p accepted.
  | Species O :    hydro orbital   2 p accepted.
  | Species O :    hydro orbital   3 d accepted.
 
  Basis size parameters after reduction:
  | Total number of radial functions:       21
  | Total number of basis functions :      119
 
  Per-task memory consumption for arrays in subroutine allocate_ext:
  |           5.250512MB.
  Testing on-site integration grid accuracy.
  |  Species  Function  <phi|h_atom|phi> (log., in eV)  <phi|h_atom|phi> (rad., in eV)
           1        1                 -6.4663192853                 -6.4651273558
           1        2                 13.7111246313                 13.7170609718
           1        3                 25.2673269279                 25.2674696378
           2        4               -273.1705927641               -273.1705631568
           2        5                -10.7109323383                -10.7107120029
           2        6                 17.4381822266                 17.4352413244
           2        7                 -5.2255326521                 -5.2270484734
           2        8                  8.6835629259                  8.6603288385
           2        9                 27.4952418996                 27.4953360207
           3       10               -384.4424306495               -384.4423701208
           3       11                 12.5842251816                 12.5842222903
           3       12                -15.7264628251                -15.7264433455
           3       13                 -7.0696854293                 -7.0701769954
           3       14                  8.8090390882                  8.7901077751
           3       15                 35.9586762123                 35.9588528632
           4       16               -514.2458688638               -514.2457643834
           4       17                 15.1795651126                 15.1795290741
           4       18                -21.5359799773                -21.5360846186
           4       19                 -9.0283069236                 -9.0284644067
           4       20                  8.3027758564                  8.2834874195
           4       21                 45.8339351984                 45.8338762259

  Preparing densities etc. for the partition functions (integrals / Hartree potential).

  Preparations completed.
  max(cpu_time)          :      0.147 s.
  Wall clock time (cpu1) :      0.149 s.
------------------------------------------------------------

------------------------------------------------------------
          Begin self-consistency loop: Initialization.

          Date     :  20200805, Time     :  185910.505
------------------------------------------------------------

  Initializing index lists of integration centers etc. from given atomic structure:
  | Number of centers in hartree potential         :        13
  | Number of centers in hartree multipole         :        13
  | Number of centers in electron density summation:        13
  | Number of centers in basis integrals           :        13
  | Number of centers in integrals                 :        13
  | Number of centers in hamiltonian               :        13
  Partitioning the integration grid into batches with parallel hashing+maxmin method.
  | Number of batches:      948
  | Maximal batch size:     139
  | Minimal batch size:      66
  | Average batch size:      73.466
  | Standard deviation of batch sizes:      18.516

  Integration load balanced across     1 MPI tasks.
  Work distribution over tasks is as follows:
  Task     0 has      69646 integration points.
  Initializing partition tables, free-atom densities, potentials, etc. across the integration grid (initialize_grid_storage).
  | initialize_grid_storage: Actual outermost partition radius vs. multipole_radius_free
  | (-- VB: in principle, multipole_radius_free should be larger, hence this output)
  | Species        1: Confinement radius =              4.999999999999999 AA, multipole_radius_free =              5.054417573612229 AA.
  | Species        1: outer_partition_radius set to              5.054417573612229 AA .
  | Species        2: Confinement radius =              4.999999999999999 AA, multipole_radius_free =              5.019602836301480 AA.
  | Species        2: outer_partition_radius set to              5.019602836301480 AA .
  | Species        3: Confinement radius =              4.999999999999999 AA, multipole_radius_free =              5.043624274424571 AA.
  | Species        3: outer_partition_radius set to              5.043624274424571 AA .
  | Species        4: Confinement radius =              4.999999999999999 AA, multipole_radius_free =              5.048384829883283 AA.
  | Species        4: outer_partition_radius set to              5.048384829883283 AA .
  | Original list of interatomic distances with          13 x         13 entries is created.
  | Net number of integration points:    69646
  | of which are non-zero points    :    59516
  Renormalizing the initial density to the exact electron count on the 3D integration grid.
  | Initial density: Formal number of electrons (from input files) :      48.0000000000
  | Integrated number of electrons on 3D grid     :      47.9998585411
  | Charge integration error                      :      -0.0001414589
  | Normalization factor for density and gradient :       1.0000029471
  Obtaining max. number of non-zero basis functions in each batch (get_n_compute_maxes).
  | Maximal number of non-zero basis functions:      119 in task     0
  Selecting the method for density update.
  Loop over occupied states selected for charge density update.
  Allocating        0.050 MB for KS_eigenvector
  Integrating Hamiltonian matrix: batch-based integration.
  Time summed over all CPUs for integration: real work        0.500 s, elapsed        0.500 s
  Integrating overlap matrix.
  Time summed over all CPUs for integration: real work        0.215 s, elapsed        0.215 s

  Updating Kohn-Sham eigenvalues and eigenvectors using ELSI and the ELPA eigensolver.
  Overlap matrix is nonsingular
  | Lowest eigenvalue of overlap  :  0.44E-02
  | Highest eigenvalue of overlap :  0.61E+01
  Finished singularity check of overlap matrix
  | Time :     0.002 s
  Finished Cholesky decomposition
  | Time :     0.000 s
  Finished transformation to standard eigenproblem
  | Time :     0.000 s
  Starting LAPACK eigensolver
  Finished solving standard eigenproblem
  | Time :     0.002 s
  Finished back-transformation of eigenvectors
  | Time :     0.000 s

  Obtaining occupation numbers and chemical potential using ELSI.
  | Chemical potential (Fermi level):   -10.04138228eV
  Writing Kohn-Sham eigenvalues.

  State    Occupation    Eigenvalue [Ha]    Eigenvalue [eV]
      1       2.00000         -19.007499         -517.22038
      2       2.00000         -18.977329         -516.39939
      3       2.00000         -14.245825         -387.64863
      4       2.00000         -10.166863         -276.65442
      5       2.00000         -10.141320         -275.95936
      6       2.00000         -10.131895         -275.70288
      7       2.00000          -1.183232          -32.19738
      8       2.00000          -1.096758          -29.84430
      9       2.00000          -0.991653          -26.98424
     10       2.00000          -0.859781          -23.39584
     11       2.00000          -0.758324          -20.63505
     12       2.00000          -0.677093          -18.42464
     13       2.00000          -0.620157          -16.87532
     14       2.00000          -0.612353          -16.66298
     15       2.00000          -0.591329          -16.09088
     16       2.00000          -0.572675          -15.58329
     17       2.00000          -0.552884          -15.04473
     18       2.00000          -0.531461          -14.46179
     19       2.00000          -0.515726          -14.03363
     20       2.00000          -0.499352          -13.58806
     21       2.00000          -0.457613          -12.45229
     22       2.00000          -0.427929          -11.64455
     23       2.00000          -0.410366          -11.16661
     24       2.00000          -0.379893          -10.33740
     25       0.00000          -0.163046           -4.43672
     26       0.00000          -0.065069           -1.77061
     27       0.00000          -0.036340           -0.98887
     28       0.00000          -0.022454           -0.61100
     29       0.00000          -0.004800           -0.13061
     30       0.00000           0.008724            0.23740
     31       0.00000           0.020575            0.55987
     32       0.00000           0.028970            0.78832
     33       0.00000           0.040217            1.09435
     34       0.00000           0.080125            2.18031
     35       0.00000           0.090470            2.46182
     36       0.00000           0.135021            3.67412
     37       0.00000           0.155149            4.22182
     38       0.00000           0.205487            5.59157
     39       0.00000           0.219231            5.96557
     40       0.00000           0.234872            6.39119
     41       0.00000           0.243934            6.63779
     42       0.00000           0.267121            7.26875
     43       0.00000           0.283543            7.71559
     44       0.00000           0.304975            8.29880
     45       0.00000           0.314234            8.55075
     46       0.00000           0.366024            9.96002
     47       0.00000           0.379546           10.32798
     48       0.00000           0.403899           10.99064
     49       0.00000           0.460954           12.54321
     50       0.00000           0.471926           12.84175
     51       0.00000           0.504543           13.72932
     52       0.00000           0.530555           14.43713
     53       0.00000           0.547633           14.90185

  Highest occupied state (VBM) at    -10.33740382 eV
  | Occupation number:      2.00000000

  Lowest unoccupied state (CBM) at    -4.43671890 eV
  | Occupation number:      0.00000000

  Overall HOMO-LUMO gap:      5.90068492 eV.
  Calculating total energy contributions from superposition of free atom densities.

  Total energy components:
  | Sum of eigenvalues            :        -188.81862268 Ha       -5138.01614238 eV
  | XC energy correction          :         -41.78350461 Ha       -1136.98700983 eV
  | XC potential correction       :          53.71276919 Ha        1461.59881488 eV
  | Free-atom electrostatic energy:        -146.86653753 Ha       -3996.44182295 eV
  | Hartree energy correction     :           0.00000000 Ha           0.00000000 eV
  | vdW energy correction         :           0.00000000 Ha           0.00000000 eV
  | Entropy correction            :           0.00000000 Ha           0.00000000 eV
  | ---------------------------
  | Total energy                  :        -323.75589564 Ha       -8809.84616029 eV
  | Total energy, T -> 0          :        -323.75589564 Ha       -8809.84616029 eV  <-- do not rely on this value for anything but (periodic) metals
  | Electronic free energy        :        -323.75589564 Ha       -8809.84616029 eV

  Derived energy quantities:
  | Kinetic energy                :         320.48940322 Ha        8720.96037918 eV
  | Electrostatic energy          :        -602.46179424 Ha      -16393.81952964 eV
  | Energy correction for multipole
  | error in Hartree potential    :           0.00000000 Ha           0.00000000 eV
  | Sum of eigenvalues per atom                           :        -395.23201095 eV
  | Total energy (T->0) per atom                          :        -677.68047387 eV  <-- do not rely on this value for anything but (periodic) metals
  | Electronic free energy per atom                       :        -677.68047387 eV
  Initialize hartree_potential_storage
  Max. number of atoms included in rho_multipole:           13

  End scf initialization - timings             :  max(cpu_time)    wall_clock(cpu1)
  | Time for scf. initialization               :        1.161 s           1.162 s
  | Boundary condition initialization          :        0.000 s           0.000 s
  | Integration                                :        0.715 s           0.715 s
  | Solution of K.-S. eqns.                    :        0.004 s           0.005 s
  | Grid partitioning                          :        0.112 s           0.112 s
  | Preloading free-atom quantities on grid    :        0.002 s           0.002 s
  | Free-atom superposition energy             :        0.086 s           0.086 s
  | Total energy evaluation                    :        0.000 s           0.000 s

  Partial memory accounting:
  | Current value for overall tracked memory usage on task 0  :           0.165 MB
  | Peak value for overall tracked memory usage on task 0     :           0.678 MB after allocating wave
  | Largest tracked array allocation on task 0 so far         :           0.132 MB  when allocating H_times_psi
  Note:  These values currently only include a subset of arrays which are explicitly tracked.
  The "true" memory usage will be greater.
------------------------------------------------------------

------------------------------------------------------------
          Begin self-consistency iteration #    1

  Date     :  20200805, Time     :  185911.667
------------------------------------------------------------
  Evaluating new KS density.
  Integration grid: deviation in total charge (<rho> - N_e) =  -4.263256E-14
  Pulay mixing of updated and previous charge densities.

  Evaluating partitioned Hartree potential by multipole expansion.
  | Analytical far-field extrapolation by fixed multipoles:
  | Hartree multipole sum: apparent total charge =  -0.245366E-03
  Summing up the Hartree potential.
  Time summed over all CPUs for potential: real work        0.285 s, elapsed        0.285 s
  | RMS charge density error from multipole expansion :   0.585870E-02

  Integrating Hamiltonian matrix: batch-based integration.
  Time summed over all CPUs for integration: real work        0.503 s, elapsed        0.503 s

  Updating Kohn-Sham eigenvalues and eigenvectors using ELSI and the ELPA eigensolver.
  Finished Cholesky decomposition
  | Time :     0.000 s
  Finished transformation to standard eigenproblem
  | Time :     0.000 s
  Starting LAPACK eigensolver
  Finished solving standard eigenproblem
  | Time :     0.001 s
  Finished back-transformation of eigenvectors
  | Time :     0.000 s

  Obtaining occupation numbers and chemical potential using ELSI.
  | Chemical potential (Fermi level):    -4.76306923eV
  Writing Kohn-Sham eigenvalues.

  State    Occupation    Eigenvalue [Ha]    Eigenvalue [eV]
      1       2.00000         -18.889089         -513.99825
      2       2.00000         -18.838455         -512.62045
      3       2.00000         -14.096401         -383.58260
      4       2.00000         -10.114469         -275.22870
      5       2.00000         -10.063085         -273.83048
      6       2.00000         -10.035279         -273.07384
      7       2.00000          -1.128330          -30.70342
      8       2.00000          -1.031191          -28.06013
      9       2.00000          -0.922037          -25.08990
     10       2.00000          -0.795285          -21.64080
     11       2.00000          -0.706763          -19.23201
     12       2.00000          -0.627387          -17.07206
     13       2.00000          -0.564119          -15.35045
     14       2.00000          -0.556644          -15.14706
     15       2.00000          -0.526890          -14.33740
     16       2.00000          -0.514297          -13.99474
     17       2.00000          -0.488753          -13.29964
     18       2.00000          -0.473149          -12.87505
     19       2.00000          -0.452513          -12.31351
     20       2.00000          -0.441800          -12.02198
     21       2.00000          -0.394116          -10.72443
     22       2.00000          -0.365749           -9.95253
     23       2.00000          -0.337561           -9.18551
     24       2.00000          -0.307877           -8.37777
     25       0.00000          -0.126207           -3.43426
     26       0.00000          -0.041823           -1.13805
     27       0.00000          -0.011297           -0.30742
     28       0.00000           0.015322            0.41693
     29       0.00000           0.026614            0.72420
     30       0.00000           0.045411            1.23570
     31       0.00000           0.057878            1.57494
     32       0.00000           0.067584            1.83905
     33       0.00000           0.078336            2.13163
     34       0.00000           0.120312            3.27386
     35       0.00000           0.130686            3.55614
     36       0.00000           0.164581            4.47848
     37       0.00000           0.182141            4.95631
     38       0.00000           0.233655            6.35809
     39       0.00000           0.251666            6.84819
     40       0.00000           0.269323            7.32864
     41       0.00000           0.281650            7.66408
     42       0.00000           0.298950            8.13485
     43       0.00000           0.319791            8.70197
     44       0.00000           0.343472            9.34636
     45       0.00000           0.355427            9.67167
     46       0.00000           0.410811           11.17875
     47       0.00000           0.419268           11.40886
     48       0.00000           0.442571           12.04296
     49       0.00000           0.493360           13.42502
     50       0.00000           0.507569           13.81167
     51       0.00000           0.541775           14.74246
     52       0.00000           0.563637           15.33734
     53       0.00000           0.585694           15.93755

  Highest occupied state (VBM) at     -8.37776516 eV
  | Occupation number:      2.00000000

  Lowest unoccupied state (CBM) at    -3.43425578 eV
  | Occupation number:      0.00000000

  Overall HOMO-LUMO gap:      4.94350938 eV.

  Total energy components:
  | Sum of eigenvalues            :        -185.34247737 Ha       -5043.42541602 eV
  | XC energy correction          :         -42.11544859 Ha       -1146.01966501 eV
  | XC potential correction       :          54.14458647 Ha        1473.34916101 eV
  | Free-atom electrostatic energy:        -146.86653753 Ha       -3996.44182295 eV
  | Hartree energy correction     :          -3.39054084 Ha         -92.26131036 eV
  | vdW energy correction         :           0.00000000 Ha           0.00000000 eV
  | Entropy correction            :           0.00000000 Ha           0.00000000 eV
  | ---------------------------
  | Total energy                  :        -323.57041786 Ha       -8804.79905333 eV
  | Total energy, T -> 0          :        -323.57041786 Ha       -8804.79905333 eV  <-- do not rely on this value for anything but (periodic) metals
  | Electronic free energy        :        -323.57041786 Ha       -8804.79905333 eV

  Derived energy quantities:
  | Kinetic energy                :         322.30205339 Ha        8770.28510003 eV
  | Electrostatic energy          :        -603.75702267 Ha      -16429.06448834 eV
  | Energy correction for multipole
  | error in Hartree potential    :           0.01217437 Ha           0.33128147 eV
  | Sum of eigenvalues per atom                           :        -387.95580123 eV
  | Total energy (T->0) per atom                          :        -677.29223487 eV  <-- do not rely on this value for anything but (periodic) metals
  | Electronic free energy per atom                       :        -677.29223487 eV

  Self-consistency convergence accuracy:
  | Change of charge density      :  0.5911E+00
  | Change of sum of eigenvalues  :  0.9459E+02 eV
  | Change of total energy        :  0.5047E+01 eV

  End self-consistency iteration #     1       :  max(cpu_time)    wall_clock(cpu1)
  | Time for this iteration                    :        1.203 s           1.206 s
  | Charge density update                      :        0.398 s           0.399 s
  | Density mixing                             :        0.005 s           0.006 s
  | Hartree multipole update                   :        0.009 s           0.009 s
  | Hartree multipole summation                :        0.285 s           0.286 s
  | Integration                                :        0.503 s           0.503 s
  | Solution of K.-S. eqns.                    :        0.002 s           0.002 s
  | Total energy evaluation                    :        0.000 s           0.001 s

  Partial memory accounting:
  | Current value for overall tracked memory usage on task 0  :           0.165 MB
  | Peak value for overall tracked memory usage on task 0     :           0.695 MB after allocating gradient_basis_wave
  | Largest tracked array allocation on task 0 so far         :           0.397 MB  when allocating gradient_basis_wave
  Note:  These values currently only include a subset of arrays which are explicitly tracked.
  The "true" memory usage will be greater.
------------------------------------------------------------

------------------------------------------------------------
          Begin self-consistency iteration #    2

  Date     :  20200805, Time     :  185912.875
------------------------------------------------------------
  Evaluating new KS density.
  Integration grid: deviation in total charge (<rho> - N_e) =   4.263256E-14
  Pulay mixing of updated and previous charge densities.

  Evaluating partitioned Hartree potential by multipole expansion.
  | Analytical far-field extrapolation by fixed multipoles:
  | Hartree multipole sum: apparent total charge =  -0.378041E-03
  Summing up the Hartree potential.
  Time summed over all CPUs for potential: real work        0.284 s, elapsed        0.284 s
  | RMS charge density error from multipole expansion :   0.138569E-01

  Integrating Hamiltonian matrix: batch-based integration.
  Time summed over all CPUs for integration: real work        0.503 s, elapsed        0.503 s

  Updating Kohn-Sham eigenvalues and eigenvectors using ELSI and the ELPA eigensolver.
  Finished Cholesky decomposition
  | Time :     0.000 s
  Finished transformation to standard eigenproblem
  | Time :     0.000 s
  Starting LAPACK eigensolver
  Finished solving standard eigenproblem
  | Time :     0.002 s
  Finished back-transformation of eigenvectors
  | Time :     0.000 s

  Obtaining occupation numbers and chemical potential using ELSI.
  | Chemical potential (Fermi level):    -3.43540620eV
  Highest occupied state (VBM) at     -6.40397887 eV
  | Occupation number:      2.00000000

  Lowest unoccupied state (CBM) at    -2.16939496 eV
  | Occupation number:      0.00000000

  Overall HOMO-LUMO gap:      4.23458391 eV.

  Checking to see if s.c.f. parameters should be adjusted.

  Total energy components:
  | Sum of eigenvalues            :        -181.70275582 Ha       -4944.38355331 eV
  | XC energy correction          :         -42.47644683 Ha       -1155.84292698 eV
  | XC potential correction       :          54.61267621 Ha        1486.08653084 eV
  | Free-atom electrostatic energy:        -146.86653753 Ha       -3996.44182295 eV
  | Hartree energy correction     :          -7.05686353 Ha        -192.02702684 eV
  | vdW energy correction         :           0.00000000 Ha           0.00000000 eV
  | Entropy correction            :           0.00000000 Ha           0.00000000 eV
  | ---------------------------
  | Total energy                  :        -323.48992751 Ha       -8802.60879924 eV
  | Total energy, T -> 0          :        -323.48992751 Ha       -8802.60879924 eV  <-- do not rely on this value for anything but (periodic) metals
  | Electronic free energy        :        -323.48992751 Ha       -8802.60879924 eV

  Derived energy quantities:
  | Kinetic energy                :         323.62267356 Ha        8806.22100329 eV
  | Electrostatic energy          :        -604.63615424 Ha      -16452.98687556 eV
  | Energy correction for multipole
  | error in Hartree potential    :           0.02668105 Ha           0.72602822 eV
  | Sum of eigenvalues per atom                           :        -380.33719641 eV
  | Total energy (T->0) per atom                          :        -677.12375379 eV  <-- do not rely on this value for anything but (periodic) metals
  | Electronic free energy per atom                       :        -677.12375379 eV

  Self-consistency convergence accuracy:
  | Change of charge density      :  0.3696E+00
  | Change of sum of eigenvalues  :  0.9904E+02 eV
  | Change of total energy        :  0.2190E+01 eV

  End self-consistency iteration #     2       :  max(cpu_time)    wall_clock(cpu1)
  | Time for this iteration                    :        1.196 s           1.197 s
  | Charge density update                      :        0.391 s           0.391 s
  | Density mixing                             :        0.007 s           0.007 s
  | Hartree multipole update                   :        0.009 s           0.009 s
  | Hartree multipole summation                :        0.284 s           0.284 s
  | Integration                                :        0.503 s           0.503 s
  | Solution of K.-S. eqns.                    :        0.002 s           0.002 s
  | Total energy evaluation                    :        0.000 s           0.001 s

  Partial memory accounting:
  | Current value for overall tracked memory usage on task 0  :           0.166 MB
  | Peak value for overall tracked memory usage on task 0     :           0.695 MB after allocating gradient_basis_wave
  | Largest tracked array allocation on task 0 so far         :           0.397 MB  when allocating gradient_basis_wave
  Note:  These values currently only include a subset of arrays which are explicitly tracked.
  The "true" memory usage will be greater.
------------------------------------------------------------

------------------------------------------------------------
          Begin self-consistency iteration #    3

  Date     :  20200805, Time     :  185914.074
------------------------------------------------------------
  Evaluating new KS density.
  Integration grid: deviation in total charge (<rho> - N_e) =  -7.105427E-15
  Pulay mixing of updated and previous charge densities.

  Evaluating partitioned Hartree potential by multipole expansion.
  | Analytical far-field extrapolation by fixed multipoles:
  | Hartree multipole sum: apparent total charge =  -0.473093E-03
  Summing up the Hartree potential.
  Time summed over all CPUs for potential: real work        0.284 s, elapsed        0.284 s
  | RMS charge density error from multipole expansion :   0.217642E-01

  Integrating Hamiltonian matrix: batch-based integration.
  Time summed over all CPUs for integration: real work        0.502 s, elapsed        0.502 s

  Updating Kohn-Sham eigenvalues and eigenvectors using ELSI and the ELPA eigensolver.
  Finished Cholesky decomposition
  | Time :     0.000 s
  Finished transformation to standard eigenproblem
  | Time :     0.000 s
  Starting LAPACK eigensolver
  Finished solving standard eigenproblem
  | Time :     0.001 s
  Finished back-transformation of eigenvectors
  | Time :     0.000 s

  Obtaining occupation numbers and chemical potential using ELSI.
  | Chemical potential (Fermi level):    -2.72973855eV
  Highest occupied state (VBM) at     -5.71972689 eV
  | Occupation number:      2.00000000

  Lowest unoccupied state (CBM) at    -1.46758324 eV
  | Occupation number:      0.00000000

  Overall HOMO-LUMO gap:      4.25214365 eV.

  Total energy components:
  | Sum of eigenvalues            :        -180.37460877 Ha       -4908.24283331 eV
  | XC energy correction          :         -42.62711849 Ha       -1159.94291133 eV
  | XC potential correction       :          54.80494382 Ha        1491.31839878 eV
  | Free-atom electrostatic energy:        -146.86653753 Ha       -3996.44182295 eV
  | Hartree energy correction     :          -8.41309561 Ha        -228.93197951 eV
  | vdW energy correction         :           0.00000000 Ha           0.00000000 eV
  | Entropy correction            :           0.00000000 Ha           0.00000000 eV
  | ---------------------------
  | Total energy                  :        -323.47641658 Ha       -8802.24114833 eV
  | Total energy, T -> 0          :        -323.47641658 Ha       -8802.24114833 eV  <-- do not rely on this value for anything but (periodic) metals
  | Electronic free energy        :        -323.47641658 Ha       -8802.24114833 eV

  Derived energy quantities:
  | Kinetic energy                :         323.19358587 Ha        8794.54493306 eV
  | Electrostatic energy          :        -604.04288396 Ha      -16436.84317005 eV
  | Energy correction for multipole
  | error in Hartree potential    :           0.03752998 Ha           1.02124268 eV
  | Sum of eigenvalues per atom                           :        -377.55714102 eV
  | Total energy (T->0) per atom                          :        -677.09547295 eV  <-- do not rely on this value for anything but (periodic) metals
  | Electronic free energy per atom                       :        -677.09547295 eV

  Self-consistency convergence accuracy:
  | Change of charge density      :  0.2076E+00
  | Change of sum of eigenvalues  :  0.3614E+02 eV
  | Change of total energy        :  0.3677E+00 eV

  End self-consistency iteration #     3       :  max(cpu_time)    wall_clock(cpu1)
  | Time for this iteration                    :        1.196 s           1.197 s
  | Charge density update                      :        0.391 s           0.391 s
  | Density mixing                             :        0.008 s           0.009 s
  | Hartree multipole update                   :        0.009 s           0.008 s
  | Hartree multipole summation                :        0.284 s           0.285 s
  | Integration                                :        0.502 s           0.502 s
  | Solution of K.-S. eqns.                    :        0.002 s           0.002 s
  | Total energy evaluation                    :        0.000 s           0.000 s

  Partial memory accounting:
  | Current value for overall tracked memory usage on task 0  :           0.166 MB
  | Peak value for overall tracked memory usage on task 0     :           0.695 MB after allocating gradient_basis_wave
  | Largest tracked array allocation on task 0 so far         :           0.397 MB  when allocating gradient_basis_wave
  Note:  These values currently only include a subset of arrays which are explicitly tracked.
  The "true" memory usage will be greater.
------------------------------------------------------------

------------------------------------------------------------
          Begin self-consistency iteration #    4

  Date     :  20200805, Time     :  185915.274
------------------------------------------------------------
  Evaluating new KS density.
  Integration grid: deviation in total charge (<rho> - N_e) =   1.421085E-14
  Pulay mixing of updated and previous charge densities.

  Evaluating partitioned Hartree potential by multipole expansion.
  | Analytical far-field extrapolation by fixed multipoles:
  | Hartree multipole sum: apparent total charge =  -0.505449E-03
  Summing up the Hartree potential.
  Time summed over all CPUs for potential: real work        0.291 s, elapsed        0.291 s
  | RMS charge density error from multipole expansion :   0.251217E-01

  Integrating Hamiltonian matrix: batch-based integration.
  Time summed over all CPUs for integration: real work        0.499 s, elapsed        0.499 s

  Updating Kohn-Sham eigenvalues and eigenvectors using ELSI and the ELPA eigensolver.
  Finished Cholesky decomposition
  | Time :     0.000 s
  Finished transformation to standard eigenproblem
  | Time :     0.000 s
  Starting LAPACK eigensolver
  Finished solving standard eigenproblem
  | Time :     0.002 s
  Finished back-transformation of eigenvectors
  | Time :     0.000 s

  Obtaining occupation numbers and chemical potential using ELSI.
  | Chemical potential (Fermi level):    -2.62879593eV
  Highest occupied state (VBM) at     -5.52458975 eV
  | Occupation number:      2.00000000

  Lowest unoccupied state (CBM) at    -1.36162599 eV
  | Occupation number:      0.00000000

  Overall HOMO-LUMO gap:      4.16296376 eV.

  Total energy components:
  | Sum of eigenvalues            :        -180.21130020 Ha       -4903.79898110 eV
  | XC energy correction          :         -42.66530796 Ha       -1160.98209963 eV
  | XC potential correction       :          54.85309282 Ha        1492.62859960 eV
  | Free-atom electrostatic energy:        -146.86653753 Ha       -3996.44182295 eV
  | Hartree energy correction     :          -8.58534354 Ha        -233.61908425 eV
  | vdW energy correction         :           0.00000000 Ha           0.00000000 eV
  | Entropy correction            :           0.00000000 Ha           0.00000000 eV
  | ---------------------------
  | Total energy                  :        -323.47539642 Ha       -8802.21338832 eV
  | Total energy, T -> 0          :        -323.47539642 Ha       -8802.21338832 eV  <-- do not rely on this value for anything but (periodic) metals
  | Electronic free energy        :        -323.47539642 Ha       -8802.21338832 eV

  Derived energy quantities:
  | Kinetic energy                :         322.80800367 Ha        8784.05270754 eV
  | Electrostatic energy          :        -603.61809213 Ha      -16425.28399624 eV
  | Energy correction for multipole
  | error in Hartree potential    :           0.04167775 Ha           1.13410930 eV
  | Sum of eigenvalues per atom                           :        -377.21530624 eV
  | Total energy (T->0) per atom                          :        -677.09333756 eV  <-- do not rely on this value for anything but (periodic) metals
  | Electronic free energy per atom                       :        -677.09333756 eV

  Self-consistency convergence accuracy:
  | Change of charge density      :  0.6649E-01
  | Change of sum of eigenvalues  :  0.4444E+01 eV
  | Change of total energy        :  0.2776E-01 eV

  End self-consistency iteration #     4       :  max(cpu_time)    wall_clock(cpu1)
  | Time for this iteration                    :        1.194 s           1.202 s
  | Charge density update                      :        0.390 s           0.390 s
  | Density mixing                             :        0.010 s           0.010 s
  | Hartree multipole update                   :        0.009 s           0.009 s
  | Hartree multipole summation                :        0.284 s           0.292 s
  | Integration                                :        0.499 s           0.499 s
  | Solution of K.-S. eqns.                    :        0.002 s           0.002 s
  | Total energy evaluation                    :        0.000 s           0.000 s

  Partial memory accounting:
  | Current value for overall tracked memory usage on task 0  :           0.166 MB
  | Peak value for overall tracked memory usage on task 0     :           0.696 MB after allocating gradient_basis_wave
  | Largest tracked array allocation on task 0 so far         :           0.397 MB  when allocating gradient_basis_wave
  Note:  These values currently only include a subset of arrays which are explicitly tracked.
  The "true" memory usage will be greater.
------------------------------------------------------------

------------------------------------------------------------
          Begin self-consistency iteration #    5

  Date     :  20200805, Time     :  185916.479
------------------------------------------------------------
  Evaluating new KS density.
  Integration grid: deviation in total charge (<rho> - N_e) =   0.000000E+00
  Pulay mixing of updated and previous charge densities.

  Evaluating partitioned Hartree potential by multipole expansion.
  | Analytical far-field extrapolation by fixed multipoles:
  | Hartree multipole sum: apparent total charge =  -0.499525E-03
  Summing up the Hartree potential.
  Time summed over all CPUs for potential: real work        0.283 s, elapsed        0.283 s
  | RMS charge density error from multipole expansion :   0.249096E-01

  Integrating Hamiltonian matrix: batch-based integration.
  Time summed over all CPUs for integration: real work        0.498 s, elapsed        0.498 s

  Updating Kohn-Sham eigenvalues and eigenvectors using ELSI and the ELPA eigensolver.
  Finished Cholesky decomposition
  | Time :     0.000 s
  Finished transformation to standard eigenproblem
  | Time :     0.000 s
  Starting LAPACK eigensolver
  Finished solving standard eigenproblem
  | Time :     0.001 s
  Finished back-transformation of eigenvectors
  | Time :     0.000 s

  Obtaining occupation numbers and chemical potential using ELSI.
  | Chemical potential (Fermi level):    -2.71173308eV
  Highest occupied state (VBM) at     -5.62552732 eV
  | Occupation number:      2.00000000

  Lowest unoccupied state (CBM) at    -1.46773815 eV
  | Occupation number:      0.00000000

  Overall HOMO-LUMO gap:      4.15778918 eV.

  Total energy components:
  | Sum of eigenvalues            :        -180.43870834 Ha       -4909.98707145 eV
  | XC energy correction          :         -42.63823541 Ha       -1160.24541825 eV
  | XC potential correction       :          54.81794526 Ha        1491.67218603 eV
  | Free-atom electrostatic energy:        -146.86653753 Ha       -3996.44182295 eV
  | Hartree energy correction     :          -8.34956877 Ha        -227.20332610 eV
  | vdW energy correction         :           0.00000000 Ha           0.00000000 eV
  | Entropy correction            :           0.00000000 Ha           0.00000000 eV
  | ---------------------------
  | Total energy                  :        -323.47510479 Ha       -8802.20545272 eV
  | Total energy, T -> 0          :        -323.47510479 Ha       -8802.20545272 eV  <-- do not rely on this value for anything but (periodic) metals
  | Electronic free energy        :        -323.47510479 Ha       -8802.20545272 eV

  Derived energy quantities:
  | Kinetic energy                :         322.67126240 Ha        8780.33178840 eV
  | Electrostatic energy          :        -603.50813178 Ha      -16422.29182287 eV
  | Energy correction for multipole
  | error in Hartree potential    :           0.04103848 Ha           1.11671388 eV
  | Sum of eigenvalues per atom                           :        -377.69131319 eV
  | Total energy (T->0) per atom                          :        -677.09272713 eV  <-- do not rely on this value for anything but (periodic) metals
  | Electronic free energy per atom                       :        -677.09272713 eV

  Self-consistency convergence accuracy:
  | Change of charge density      :  0.2020E-01
  | Change of sum of eigenvalues  : -0.6188E+01 eV
  | Change of total energy        :  0.7936E-02 eV

  End self-consistency iteration #     5       :  max(cpu_time)    wall_clock(cpu1)
  | Time for this iteration                    :        1.191 s           1.192 s
  | Charge density update                      :        0.388 s           0.388 s
  | Density mixing                             :        0.011 s           0.011 s
  | Hartree multipole update                   :        0.009 s           0.009 s
  | Hartree multipole summation                :        0.283 s           0.283 s
  | Integration                                :        0.498 s           0.499 s
  | Solution of K.-S. eqns.                    :        0.002 s           0.002 s
  | Total energy evaluation                    :        0.000 s           0.000 s

  Partial memory accounting:
  | Current value for overall tracked memory usage on task 0  :           0.166 MB
  | Peak value for overall tracked memory usage on task 0     :           0.696 MB after allocating gradient_basis_wave
  | Largest tracked array allocation on task 0 so far         :           0.397 MB  when allocating gradient_basis_wave
  Note:  These values currently only include a subset of arrays which are explicitly tracked.
  The "true" memory usage will be greater.
------------------------------------------------------------

------------------------------------------------------------
          Begin self-consistency iteration #    6

  Date     :  20200805, Time     :  185917.674
------------------------------------------------------------
  Evaluating new KS density.
  Integration grid: deviation in total charge (<rho> - N_e) =  -7.105427E-15
  Pulay mixing of updated and previous charge densities.

  Evaluating partitioned Hartree potential by multipole expansion.
  | Analytical far-field extrapolation by fixed multipoles:
  | Hartree multipole sum: apparent total charge =  -0.504438E-03
  Summing up the Hartree potential.
  Time summed over all CPUs for potential: real work        0.282 s, elapsed        0.282 s
  | RMS charge density error from multipole expansion :   0.253829E-01

  Integrating Hamiltonian matrix: batch-based integration.
  Time summed over all CPUs for integration: real work        0.497 s, elapsed        0.497 s

  Updating Kohn-Sham eigenvalues and eigenvectors using ELSI and the ELPA eigensolver.
  Finished Cholesky decomposition
  | Time :     0.000 s
  Finished transformation to standard eigenproblem
  | Time :     0.000 s
  Starting LAPACK eigensolver
  Finished solving standard eigenproblem
  | Time :     0.002 s
  Finished back-transformation of eigenvectors
  | Time :     0.000 s

  Obtaining occupation numbers and chemical potential using ELSI.
  | Chemical potential (Fermi level):    -2.69967926eV
  Highest occupied state (VBM) at     -5.57913591 eV
  | Occupation number:      2.00000000

  Lowest unoccupied state (CBM) at    -1.46222796 eV
  | Occupation number:      0.00000000

  Overall HOMO-LUMO gap:      4.11690795 eV.

  Total energy components:
  | Sum of eigenvalues            :        -180.39761931 Ha       -4908.86898187 eV
  | XC energy correction          :         -42.64202810 Ha       -1160.34862249 eV
  | XC potential correction       :          54.82285248 Ha        1491.80571815 eV
  | Free-atom electrostatic energy:        -146.86653753 Ha       -3996.44182295 eV
  | Hartree energy correction     :          -8.39173667 Ha        -228.35077318 eV
  | vdW energy correction         :           0.00000000 Ha           0.00000000 eV
  | Entropy correction            :           0.00000000 Ha           0.00000000 eV
  | ---------------------------
  | Total energy                  :        -323.47506913 Ha       -8802.20448234 eV
  | Total energy, T -> 0          :        -323.47506913 Ha       -8802.20448234 eV  <-- do not rely on this value for anything but (periodic) metals
  | Electronic free energy        :        -323.47506913 Ha       -8802.20448234 eV

  Derived energy quantities:
  | Kinetic energy                :         322.61290712 Ha        8778.74386018 eV
  | Electrostatic energy          :        -603.44594815 Ha      -16420.59972004 eV
  | Energy correction for multipole
  | error in Hartree potential    :           0.04154289 Ha           1.13043967 eV
  | Sum of eigenvalues per atom                           :        -377.60530630 eV
  | Total energy (T->0) per atom                          :        -677.09265249 eV  <-- do not rely on this value for anything but (periodic) metals
  | Electronic free energy per atom                       :        -677.09265249 eV

  Self-consistency convergence accuracy:
  | Change of charge density      :  0.1040E-01
  | Change of sum of eigenvalues  :  0.1118E+01 eV
  | Change of total energy        :  0.9704E-03 eV

  End self-consistency iteration #     6       :  max(cpu_time)    wall_clock(cpu1)
  | Time for this iteration                    :        1.190 s           1.191 s
  | Charge density update                      :        0.387 s           0.387 s
  | Density mixing                             :        0.012 s           0.013 s
  | Hartree multipole update                   :        0.009 s           0.008 s
  | Hartree multipole summation                :        0.283 s           0.283 s
  | Integration                                :        0.497 s           0.498 s
  | Solution of K.-S. eqns.                    :        0.002 s           0.002 s
  | Total energy evaluation                    :        0.000 s           0.000 s

  Partial memory accounting:
  | Current value for overall tracked memory usage on task 0  :           0.166 MB
  | Peak value for overall tracked memory usage on task 0     :           0.696 MB after allocating gradient_basis_wave
  | Largest tracked array allocation on task 0 so far         :           0.397 MB  when allocating gradient_basis_wave
  Note:  These values currently only include a subset of arrays which are explicitly tracked.
  The "true" memory usage will be greater.
------------------------------------------------------------

------------------------------------------------------------
          Begin self-consistency iteration #    7

  Date     :  20200805, Time     :  185918.868
------------------------------------------------------------
  Evaluating new KS density.
  Integration grid: deviation in total charge (<rho> - N_e) =   0.000000E+00
  Pulay mixing of updated and previous charge densities.

  Evaluating partitioned Hartree potential by multipole expansion.
  | Analytical far-field extrapolation by fixed multipoles:
  | Hartree multipole sum: apparent total charge =  -0.504997E-03
  Summing up the Hartree potential.
  Time summed over all CPUs for potential: real work        0.283 s, elapsed        0.283 s
  | RMS charge density error from multipole expansion :   0.254643E-01

  Integrating Hamiltonian matrix: batch-based integration.
  Time summed over all CPUs for integration: real work        0.501 s, elapsed        0.501 s

  Updating Kohn-Sham eigenvalues and eigenvectors using ELSI and the ELPA eigensolver.
  Finished Cholesky decomposition
  | Time :     0.000 s
  Finished transformation to standard eigenproblem
  | Time :     0.000 s
  Starting LAPACK eigensolver
  Finished solving standard eigenproblem
  | Time :     0.001 s
  Finished back-transformation of eigenvectors
  | Time :     0.000 s

[...]
  |   Hirshfeld dipole moment :      0.05901936
  |   Hirshfeld second moments:      0.01418767      -0.03103733      -0.01922415
  |                                 -0.03103733      -0.02452178       0.00691616
  |                                 -0.01922415       0.00691616      -0.01872352
  ----------------------------------------------------------------------
  | Atom    12: O
  |   Hirshfeld charge        :     -0.17542469
  |   Free atom volume        :     23.61338643
  |   Hirshfeld volume        :     21.20857017
  |   Hirshfeld dipole vector :      0.00333566       0.03557874       0.02421657
  |   Hirshfeld dipole moment :      0.04316730
  |   Hirshfeld second moments:      0.11093777       0.00184933      -0.01103915
  |                                  0.00184933       0.02292311       0.01704451
  |                                 -0.01103915       0.01704451       0.00989362
  ----------------------------------------------------------------------
  | Atom    13: H
  |   Hirshfeld charge        :      0.18451698
  |   Free atom volume        :      9.95071624
  |   Hirshfeld volume        :      6.26564165
  |   Hirshfeld dipole vector :     -0.12304961       0.03274812       0.03327386
  |   Hirshfeld dipole moment :      0.13160849
  |   Hirshfeld second moments:      0.12515670       0.00490840      -0.00132320
  |                                  0.00490840       0.11293170       0.00923508
  |                                 -0.00132320       0.00923508       0.10246457
  ----------------------------------------------------------------------


  Total energy components:
  | Sum of eigenvalues            :        -180.40374186 Ha       -4909.03558511 eV
  | XC energy correction          :         -42.63794571 Ha       -1160.23753496 eV
  | XC potential correction       :          54.81765542 Ha        1491.66429913 eV
  | Free-atom electrostatic energy:        -146.86653753 Ha       -3996.44182295 eV
  | Hartree energy correction     :          -8.38447252 Ha        -228.15310559 eV
  | vdW energy correction         :          -0.00337085 Ha          -0.09172545 eV
  | Entropy correction            :           0.00000000 Ha           0.00000000 eV
  | ---------------------------
  | Total energy                  :        -323.47841305 Ha       -8802.29547492 eV
  | Total energy, T -> 0          :        -323.47841305 Ha       -8802.29547492 eV  <-- do not rely on this value for anything but (periodic) metals
  | Electronic free energy        :        -323.47841305 Ha       -8802.29547492 eV

  Derived energy quantities:
  | Kinetic energy                :         322.57379660 Ha        8777.67960887 eV
  | Electrostatic energy          :        -603.41089309 Ha      -16419.64582339 eV
  | Energy correction for multipole
  | error in Hartree potential    :           0.04155467 Ha           1.13076003 eV
  | Sum of eigenvalues per atom                           :        -377.61812193 eV
  | Total energy (T->0) per atom                          :        -677.09965192 eV  <-- do not rely on this value for anything but (periodic) metals
  | Electronic free energy per atom                       :        -677.09965192 eV

  atomic forces [eV/Ang]:
  -----------------------
  atom #    1
   Hellmann-Feynman              :  0.109212E+01 -0.819306E-01  0.792756E+00
   Ionic forces                  :  0.000000E+00  0.000000E+00  0.000000E+00
   Multipole                     :  0.109435E+00  0.453745E+00 -0.276689E+00
   Pulay + GGA                   : -0.126280E+01  0.321266E-01 -0.119486E+01
   Van der Waals                 :  0.620702E-02  0.462131E-02 -0.210790E-02
   ----------------------------------------------------------------
   Total forces(   1)            : -0.550313E-01  0.408563E+00 -0.680897E+00
  atom #    2
   Hellmann-Feynman              :  0.387852E+00  0.277292E-01  0.266926E+00
   Ionic forces                  :  0.000000E+00  0.000000E+00  0.000000E+00
   Multipole                     :  0.165005E+00  0.431227E-01 -0.124062E-01
   Pulay + GGA                   : -0.129769E+00  0.159192E-01  0.246747E-01
   Van der Waals                 :  0.764172E-02 -0.523403E-02 -0.330888E-02
   ----------------------------------------------------------------
   Total forces(   2)            :  0.430729E+00  0.815371E-01  0.275886E+00
  atom #    3
   Hellmann-Feynman              : -0.964410E+01 -0.675824E+01  0.379870E+00
   Ionic forces                  :  0.000000E+00  0.000000E+00  0.000000E+00
   Multipole                     : -0.150926E+00  0.107087E+00 -0.870037E+00
   Pulay + GGA                   :  0.965698E+01  0.662980E+01  0.130420E+01
   Van der Waals                 :  0.524680E-02 -0.341766E-02 -0.103399E-01
   ----------------------------------------------------------------
   Total forces(   3)            : -0.132800E+00 -0.247705E-01  0.803695E+00
  atom #    4
   Hellmann-Feynman              :  0.270450E+00  0.984339E-01 -0.162460E+00
   Ionic forces                  :  0.000000E+00  0.000000E+00  0.000000E+00
   Multipole                     : -0.189859E-01  0.662568E-01 -0.896670E-01
   Pulay + GGA                   : -0.239995E-01 -0.216068E+00  0.492393E-01
   Van der Waals                 : -0.229178E-02 -0.699651E-02 -0.590605E-02
   ----------------------------------------------------------------
   Total forces(   4)            :  0.225173E+00 -0.583733E-01 -0.208794E+00
  atom #    5
   Hellmann-Feynman              :  0.643328E-01  0.938331E-01 -0.274143E+00
   Ionic forces                  :  0.000000E+00  0.000000E+00  0.000000E+00
   Multipole                     :  0.421601E-01 -0.210655E-02 -0.117430E+00
   Pulay + GGA                   : -0.212248E+00  0.278584E-02  0.130799E+00
   Van der Waals                 : -0.313520E-02  0.255843E-02  0.193614E-02
   ----------------------------------------------------------------
   Total forces(   5)            : -0.108891E+00  0.970708E-01 -0.258838E+00
  atom #    6
   Hellmann-Feynman              : -0.802378E-02 -0.524030E+00  0.276649E+00
   Ionic forces                  :  0.000000E+00  0.000000E+00  0.000000E+00
   Multipole                     : -0.406267E-01  0.599764E+00  0.255255E+00
   Pulay + GGA                   :  0.247484E+00 -0.565056E+00 -0.414150E+00
   Van der Waals                 : -0.360163E-02  0.220777E-02 -0.402504E-02
   ----------------------------------------------------------------
   Total forces(   6)            :  0.195232E+00 -0.487115E+00  0.113730E+00
  atom #    7
   Hellmann-Feynman              : -0.256855E+00 -0.362944E-01 -0.332523E-01
   Ionic forces                  :  0.000000E+00  0.000000E+00  0.000000E+00
   Multipole                     : -0.117974E+00  0.488150E-01  0.282664E-01
   Pulay + GGA                   :  0.108757E+00  0.143641E-01 -0.226931E-02
   Van der Waals                 : -0.399595E-02  0.123561E-02  0.898495E-02
   ----------------------------------------------------------------
   Total forces(   7)            : -0.270068E+00  0.281204E-01  0.172967E-02
  atom #    8
   Hellmann-Feynman              :  0.322619E-01 -0.301785E-01  0.152965E+00
   Ionic forces                  :  0.000000E+00  0.000000E+00  0.000000E+00
   Multipole                     :  0.178897E-01  0.679543E-01  0.120829E+00
   Pulay + GGA                   : -0.430592E-01 -0.483397E-01 -0.116220E+00
   Van der Waals                 : -0.300760E-02  0.112959E-01  0.669063E-03
   ----------------------------------------------------------------
   Total forces(   8)            :  0.408481E-02  0.731927E-03  0.158244E+00
  atom #    9
   Hellmann-Feynman              :  0.107832E+00  0.754478E-01 -0.176430E+00
   Ionic forces                  :  0.000000E+00  0.000000E+00  0.000000E+00
   Multipole                     :  0.207619E-01  0.130472E+00 -0.782539E-02
   Pulay + GGA                   : -0.289206E-01 -0.826682E-01  0.696515E-01
   Van der Waals                 : -0.887865E-03  0.573047E-02  0.723137E-02
   ----------------------------------------------------------------
   Total forces(   9)            :  0.987855E-01  0.128982E+00 -0.107372E+00
  atom #   10
   Hellmann-Feynman              :  0.268534E+01  0.516039E+01  0.164864E+01
   Ionic forces                  :  0.000000E+00  0.000000E+00  0.000000E+00
   Multipole                     :  0.766018E-01 -0.152892E+00  0.333539E+00
   Pulay + GGA                   : -0.803317E+00 -0.332073E+01 -0.433966E+00
   Van der Waals                 :  0.116788E-02 -0.116284E-01  0.935030E-03
   ----------------------------------------------------------------
   Total forces(  10)            :  0.195979E+01  0.167513E+01  0.154915E+01
  atom #   11
   Hellmann-Feynman              :  0.395482E+01 -0.217529E+01  0.137581E+02
   Ionic forces                  :  0.000000E+00  0.000000E+00  0.000000E+00
   Multipole                     :  0.505204E-01 -0.680878E+00  0.778999E+00
   Pulay + GGA                   : -0.305913E+01  0.364835E+01 -0.134387E+02
   Van der Waals                 : -0.863417E-03 -0.119793E-01  0.405484E-02
   ----------------------------------------------------------------
   Total forces(  11)            :  0.945344E+00  0.780209E+00  0.110247E+01
  atom #   12
   Hellmann-Feynman              :  0.188658E+01 -0.117817E+02 -0.105271E+02
   Ionic forces                  :  0.000000E+00  0.000000E+00  0.000000E+00
   Multipole                     : -0.630874E+00 -0.138165E+01 -0.461350E+00
   Pulay + GGA                   : -0.369506E+01  0.112354E+02  0.885067E+01
   Van der Waals                 :  0.161965E-02  0.918246E-02  0.141282E-02
   ----------------------------------------------------------------
   Total forces(  12)            : -0.243773E+01 -0.191878E+01 -0.213637E+01
  atom #   13
   Hellmann-Feynman              : -0.118214E+01 -0.548945E+00 -0.493110E+00
   Ionic forces                  :  0.000000E+00  0.000000E+00  0.000000E+00
   Multipole                     : -0.480457E-01  0.149035E-01  0.995967E-02
   Pulay + GGA                   :  0.375923E+00 -0.178818E+00 -0.133110E+00
   Van der Waals                 : -0.409965E-02  0.242393E-02  0.463597E-03
   ----------------------------------------------------------------
   Total forces(  13)            : -0.858365E+00 -0.710435E+00 -0.615797E+00

  Timings for VdW correction (Tkatchenko-Scheffler 2009 or later):
  | CPU time:        0.089 s, Wall clock time:        0.090 s.
  Removing unitary transformations (pure translations, rotations) from forces on atoms.
  Atomic forces before filtering:
  | Net force on center of mass :  -0.374823E-02  0.873980E-03 -0.316507E-02 eV/A
  | Net torque on center of mass:  -0.675679E-02 -0.512261E-03 -0.675694E-02 eV
  Atomic forces after filtering:
  | Net force on center of mass :  -0.178406E-15 -0.178406E-15  0.267609E-15 eV/A
  | Net torque on center of mass:   0.778870E-15  0.944085E-15  0.113290E-14 eV

  Energy and forces in a compact form:
  | Total energy uncorrected      :         -0.880229547492392E+04 eV
  | Total energy corrected        :         -0.880229547492392E+04 eV  <-- do not rely on this value for anything but (periodic) metals
  | Electronic free energy        :         -0.880229547492392E+04 eV
  Total atomic forces (unitary forces cleaned) [eV/Ang]:
  |   1         -0.547497739494043E-01          0.408609961297930E+00         -0.680664237468784E+00
  |   2          0.431010867365523E+00          0.818218025849140E-01          0.276085935801574E+00
  |   3         -0.132560592394124E+00         -0.245924307850180E-01          0.803942370508762E+00
  |   4          0.225197469531601E+00         -0.582081315009905E-01         -0.208380611957622E+00
  |   5         -0.108596440592004E+00          0.975116758178953E-01         -0.258669740753633E+00
  |   6          0.195261224033705E+00         -0.487296775572260E+00          0.114187330945986E+00
  |   7         -0.270044084196376E+00          0.276989230024172E-01          0.222477894354732E-02
  |   8          0.414243653968813E-02          0.457317929038072E-03          0.158692591594039E+00
  |   9          0.986042885398144E-01          0.128963401106980E+00         -0.106775870236274E+00
  |  10          0.196037153355076E+01          0.167497224103651E+01          0.154917887682628E+01
  |  11          0.946022569570056E+00          0.779920940638472E+00          0.110244907237711E+01
  |  12         -0.243698332409937E+01         -0.191898457425509E+01         -0.213646195149778E+01
  |  13         -0.857676173899875E+00         -0.710874351300805E+00         -0.615808545083204E+00

  ------------------------------------ 
  Start decomposition of the XC Energy 
  ------------------------------------ 
  X and C from original XC functional choice 
  Hartree-Fock Energy :          0.000000000 Ha              0.000000000 eV
  X Energy            :        -41.037652826 Ha          -1116.691350037 eV
  C Energy            :         -1.600292882 Ha            -43.546184918 eV
  Total XC Energy     :        -42.637945708 Ha          -1160.237534955 eV
  ------------------------------------ 
  LDA X and C from self-consistent density 
  X Energy LDA        :        -37.255703976 Ha          -1013.779285713 eV
  C Energy LDA        :         -3.138533361 Ha            -85.403838054 eV
  ------------------------------------ 
  End decomposition of the XC Energy 
  ------------------------------------ 

------------------------------------------------------------

------------------------------------------------------------------------------
  Final output of selected total energy values:

  The following output summarizes some interesting total energy values
  at the end of a run (AFTER all relaxation, molecular dynamics, etc.).

  | Total energy of the DFT / Hartree-Fock s.c.f. calculation      :          -8802.295474924 eV
  | Final zero-broadening corrected energy (caution - metals only) :          -8802.295474924 eV
  | For reference only, the value of 1 Hartree used in FHI-aims is :             27.211384500 eV

  Before relying on these values, please be sure to understand exactly which
  total energy value is referred to by a given number. Different objects may
  all carry the same name 'total energy'. Definitions:

  Total energy of the DFT / Hartree-Fock s.c.f. calculation:
  | Note that this energy does not include ANY quantities calculated after the
  | s.c.f. cycle, in particular not ANY RPA, MP2, etc. many-body perturbation terms.

  Final zero-broadening corrected energy:
  | For metallic systems only, a broadening of the occupation numbers at the Fermi
  | level can be extrapolated back to zero broadening by an electron-gas inspired
  | formula. For all systems that are not real metals, this value can be
  | meaningless and should be avoided.

------------------------------------------------------------------------------
  Methods described in the following list of references were used in this FHI-aims run.
  If you publish the results, please make sure to cite these reference if they apply.
  FHI-aims is an academic code, and for our developers (often, Ph.D. students
  and postdocs), scientific credit in the community is essential.
  Thank you for helping us!

  For any use of FHI-aims, please cite:

    Volker Blum, Ralf Gehrke, Felix Hanke, Paula Havu, Ville Havu,
    Xinguo Ren, Karsten Reuter, and Matthias Scheffler
    'Ab initio molecular simulations with numeric atom-centered orbitals'
    Computer Physics Communications 180, 2175-2196 (2009)
    http://dx.doi.org/10.1016/j.cpc.2009.06.022


  The scalable eigensolver library ELPA was used in your run.
  ELPA is essential especially for large systems on hundreds or thousands of CPUs.
  For ELPA, please cite:

    Andreas Marek, Volker Blum, Rainer Johanni, Ville Havu, Bruno Lang,
    Thomas Auckenthaler, Alexander Heinecke, Hans-Joachim Bungartz, and Hermann Lederer,
    'The ELPA Library - Scalable Parallel Eigenvalue Solutions
    for Electronic Structure Theory and Computational Science'
    The Journal of Physics: Condensed Matter 26, 213201 (2014).
    http://dx.doi.org/10.1088/0953-8984/26/21/213201


  The ELSI infrastructure was used in your run to solve the Kohn-Sham electronic structure.
  Please check out http://elsi-interchange.org to learn more.
  If scalability is important for your project, please acknowledge ELSI by citing:

    V. W-z. Yu, F. Corsetti, A. Garcia, W. P. Huhn, M. Jacquelin, W. Jia,
    B. Lange, L. Lin, J. Lu, W. Mi, A. Seifitokaldani, A. Vazquez-Mayagoitia,
    C. Yang, H. Yang, and V. Blum
    'ELSI: A unified software interface for Kohn-Sham electronic structure solvers'
    Computer Physics Communications 222, 267-285 (2018).
    http://dx.doi.org/10.1016/j.cpc.2017.09.007


  For the real-space grid partitioning and parallelization used in this calculation, please cite:

    Ville Havu, Volker Blum, Paula Havu, and Matthias Scheffler,
    'Efficient O(N) integration for all-electron electronic structure calculation'
    'using numerically tabulated basis functions'
    Journal of Computational Physics 228, 8367-8379 (2009).
    http://dx.doi.org/10.1016/j.jcp.2009.08.008

  Of course, there are many other important community references, e.g., those cited in the
  above references. Our list is limited to references that describe implementations in the
  FHI-aims code. The reason is purely practical (length of this list) - please credit others as well.

------------------------------------------------------------
          Leaving FHI-aims.
          Date     :  20200805, Time     :  185933.247

          Computational steps:
          | Number of self-consistency cycles          :           16
          | Number of SCF (re)initializations          :            1

          Detailed time accounting                     :  max(cpu_time)    wall_clock(cpu1)
          | Total time                                 :       22.824 s          22.910 s
          | Preparation time                           :        0.147 s           0.149 s
          | Boundary condition initalization           :        0.000 s           0.000 s
          | Grid partitioning                          :        0.112 s           0.112 s
          | Preloading free-atom quantities on grid    :        0.002 s           0.002 s
          | Free-atom superposition energy             :        0.086 s           0.086 s
          | Total time for integrations                :        8.726 s           8.740 s
          | Total time for solution of K.-S. equations :        0.036 s           0.037 s
          | Total time for density & force components  :        7.178 s           7.183 s
          | Total time for mixing                      :        0.218 s           0.221 s
          | Total time for Hartree multipole update    :        0.139 s           0.138 s
          | Total time for Hartree multipole sum       :        5.779 s           5.793 s
          | Total time for total energy evaluation     :        0.003 s           0.005 s
          | Total time for vdW correction              :        0.089 s           0.090 s

          Partial memory accounting:
          | Residual value for overall tracked memory usage across tasks :           0.000 MB (should be 0.000 MB)
          | Peak values for overall tracked memory usage (after allocating hessian_basis_wave):
          |   Minimum:        1.622 MB (on task 1)
          |   Maximum:        1.622 MB (on task 1)
          |   Average:        1.622 MB
          | Largest tracked array allocation (hessian_basis_wave):
          |   Minimum:        0.794 MB (on task 1)
          |   Maximum:        0.794 MB (on task 1)
          |   Average:        0.794 MB
          Note:  These values currently only include a subset of arrays which are explicitly tracked.
          The "true" memory usage will be greater.

          Have a nice day.
------------------------------------------------------------
