  MPI-parallelism will be employed.
------------------------------------------------------------
          Invoking FHI-aims ...
          Version 171221_1
          Compiled on 2019/09/09 at 14:39:39 on host puhti-login2.bullx.

          When using FHI-aims, please cite the following reference:

          Volker Blum, Ralf Gehrke, Felix Hanke, Paula Havu,
          Ville Havu, Xinguo Ren, Karsten Reuter, and Matthias Scheffler,
          'Ab Initio Molecular Simulations with Numeric Atom-Centered Orbitals',
          Computer Physics Communications 180, 2175-2196 (2009)

          For any questions about FHI-aims, please visit the aimsclub website
          with its forums and wiki. Contributions to both the forums and the
          wiki are warmly encouraged - they are for you, and everyone is welcome there.

------------------------------------------------------------



  Date     :  20200710, Time     :  145926.599
  Time zero on CPU 1             :   0.118030000000000E-01  s.
  Internal wall clock time zero  :           363625166.599  s.

  FHI-aims created a unique identifier for this run for later identification
  aims_uuid : 12D882D5-6DFD-4F79-A016-72BF3ECA01B4

  Using        1 parallel tasks.
  Task        0 on host r18c42.bullx reporting.

  Performing system and environment tests:
  | Environment variable OMP_NUM_THREADS correctly set to 1.
  | Stacksize not measured: no C compiler
  | Checking for scalapack...
  | Testing pdtran()...
  | All pdtran() tests passed.

  Obtaining array dimensions for all initial allocations:
  
  -----------------------------------------------------------------------
  Parsing control.in (first pass over file, find array dimensions only).
  The contents of control.in will be repeated verbatim below
  unless switched off by setting 'verbatim_writeout .false.' .
  in the first line of control.in .
  -----------------------------------------------------------------------
  
  #########################################################################################
  #
  #  Volker Blum, FHI 2009 : Test run input file control.in for simple H2O
  #
  #########################################################################################
  #
  #  Physical model
  #
    xc                 pbe
    vdw_correction_hirshfeld
    spin               none
    relativistic       none
    charge             0.
  #
  #  SCF convergence
  #
    occupation_type    gaussian 0.01
    mixer              pulay
      n_max_pulay        10
      charge_mix_param   0.2
    sc_accuracy_rho    1E-5
    sc_accuracy_eev    1E-3
    sc_accuracy_etot   1E-6
    sc_accuracy_forces 1E-4
    sc_iter_limit      100
  #
  #  Relaxation
  #
  #  relax_geometry   bfgs 1.e-3
  #
  ################################################################################
  #
  #  FHI-aims code project
  #  VB, Fritz-Haber Institut, 2009
  #
  #  Suggested "light" defaults for H atom (to be pasted into control.in file)
  #  Be sure to double-check any results obtained with these settings for post-processing,
  #  e.g., with the "tight" defaults and larger basis sets.
  #
  ################################################################################
    species        H
  #     global species definitions
      nucleus             1
      mass                1.00794
  #
      l_hartree           4
  #
      cut_pot             3.5  1.5  1.0
      basis_dep_cutoff    1e-4
  #
      radial_base         24 5.0
      radial_multiplier   1
      angular_grids       specified
        division   0.2421   50
        division   0.3822  110
        division   0.4799  194
        division   0.5341  302
  #      division   0.5626  434
  #      division   0.5922  590
  #      division   0.6542  770
  #      division   0.6868 1202
  #      outer_grid  770
        outer_grid  302
  ################################################################################
  #
  #  Definition of "minimal" basis
  #
  ################################################################################
  #     valence basis states
      valence      1  s   1.
  #     ion occupancy
      ion_occ      1  s   0.5
  ################################################################################
  #
  #  Suggested additional basis functions. For production calculations,
  #  uncomment them one after another (the most important basis functions are
  #  listed first).
  #
  #  Basis constructed for dimers: 0.5 A, 0.7 A, 1.0 A, 1.5 A, 2.5 A
  #
  ################################################################################
  #  "First tier" - improvements: -1014.90 meV to -62.69 meV
       hydro 2 s 2.1
       hydro 2 p 3.5
  #  "Second tier" - improvements: -12.89 meV to -1.83 meV
  #     hydro 1 s 0.85
  #     hydro 2 p 3.7
  #     hydro 2 s 1.2
  #     hydro 3 d 7
  #  "Third tier" - improvements: -0.25 meV to -0.12 meV
  #     hydro 4 f 11.2
  #     hydro 3 p 4.8
  #     hydro 4 d 9
  #     hydro 3 s 3.2
  ################################################################################
  #
  #  FHI-aims code project
  #  VB, Fritz-Haber Institut, 2009
  #
  #  Suggested "light" defaults for C atom (to be pasted into control.in file)
  #  Be sure to double-check any results obtained with these settings for post-processing,
  #  e.g., with the "tight" defaults and larger basis sets.
  #
  ################################################################################
    species        C
  #     global species definitions
      nucleus             6
      mass                12.0107
  #
      l_hartree           4
  #
      cut_pot             3.5  1.5  1.0
      basis_dep_cutoff    1e-4
  #
      radial_base         34 5.0
      radial_multiplier   1
      angular_grids specified
        division   0.3326   50
        division   0.5710  110
        division   0.7727  194
        division   0.8772  302
  #      division   0.9334  434
  #      division   0.9625  590
  #      division   0.9924  770
  #      division   1.0230  974
  #      division   1.4589 1202
  #     outer_grid  974
       outer_grid 302
  ################################################################################
  #
  #  Definition of "minimal" basis
  #
  ################################################################################
  #     valence basis states
      valence      2  s   2.
      valence      2  p   2.
  #     ion occupancy
      ion_occ      2  s   1.
      ion_occ      2  p   1.
  ################################################################################
  #
  #  Suggested additional basis functions. For production calculations,
  #  uncomment them one after another (the most important basis functions are
  #  listed first).
  #
  #  Constructed for dimers: 1.0 A, 1.25 A, 1.5 A, 2.0 A, 3.0 A
  #
  ################################################################################
  #  "First tier" - improvements: -1214.57 meV to -155.61 meV
       hydro 2 p 1.7
       hydro 3 d 6
       hydro 2 s 4.9
  #  "Second tier" - improvements: -67.75 meV to -5.23 meV
  #     hydro 4 f 9.8
  #     hydro 3 p 5.2
  #     hydro 3 s 4.3
  #     hydro 5 g 14.4
  #     hydro 3 d 6.2
  #  "Third tier" - improvements: -2.43 meV to -0.60 meV
  #     hydro 2 p 5.6
  #     hydro 2 s 1.4
  #     hydro 3 d 4.9
  #     hydro 4 f 11.2
  #  "Fourth tier" - improvements: -0.39 meV to -0.18 meV
  #     hydro 2 p 2.1
  #     hydro 5 g 16.4
  #     hydro 4 d 13.2
  #     hydro 3 s 13.6
  #     hydro 4 f 17.6
  #  Further basis functions - improvements: -0.08 meV and below
  #     hydro 3 s 2
  #     hydro 3 p 6
  #     hydro 4 d 20
  ################################################################################
  #
  #  FHI-aims code project
  #  VB, Fritz-Haber Institut, 2009
  #
  #  Suggested "light" defaults for N atom (to be pasted into control.in file)
  #  Be sure to double-check any results obtained with these settings for post-processing,
  #  e.g., with the "tight" defaults and larger basis sets.
  #
  ################################################################################
    species        N
  #     global species definitions
      nucleus             7
      mass                14.0067
  #
      l_hartree           4
  #
      cut_pot             3.5  1.5  1.0
      basis_dep_cutoff    1e-4
  #
      radial_base         35 5.0
      radial_multiplier   1
      angular_grids       specified
        division   0.2599   50
        division   0.4601  110
        division   0.5885  194
        division   0.6503  302
  #      division   0.6939  434
  #      division   0.7396  590
  #      division   0.7632  770
  #      division   0.8122  974
  #      division   1.1604 1202
  #      outer_grid  974
        outer_grid  302
  ################################################################################
  #
  #  Definition of "minimal" basis
  #
  ################################################################################
  #     valence basis states
      valence      2  s   2.
      valence      2  p   3.
  #     ion occupancy
      ion_occ      2  s   1.
      ion_occ      2  p   2.
  ################################################################################
  #
  #  Suggested additional basis functions. For production calculations,
  #  uncomment them one after another (the most important basis functions are
  #  listed first).
  #
  #  Constructed for dimers: 1.0 A, 1.1 A, 1.5 A, 2.0 A, 3.0 A
  #
  ################################################################################
  #  "First tier" - improvements: -1193.42 meV to -220.60 meV
       hydro 2 p 1.8
       hydro 3 d 6.8
       hydro 3 s 5.8
  #  "Second tier" - improvements: -80.21 meV to -6.86 meV
  #     hydro 4 f 10.8
  #     hydro 3 p 5.8
  #     hydro 1 s 0.8
  #     hydro 5 g 16
  #     hydro 3 d 4.9
  #  "Third tier" - improvements: -4.29 meV to -0.53 meV
  #     hydro 3 s 16
  #     ionic 2 p auto
  #     hydro 3 d 6.6
  #     hydro 4 f 11.6
  #  "Fourth tier" - improvements: -0.75 meV to -0.25 meV
  #     hydro 2 p 4.5
  #     hydro 2 s 2.4
  #     hydro 5 g 14.4
  #     hydro 4 d 14.4
  #     hydro 4 f 16.8
  # Further basis functions - -0.21 meV and below
  #     hydro 3 p 14.8
  #     hydro 3 s 4.4
  #     hydro 3 d 19.6
  #     hydro 5 g 12.8
  ################################################################################
  #
  #  FHI-aims code project
  #  VB, Fritz-Haber Institut, 2009
  #
  #  Suggested "light" defaults for O atom (to be pasted into control.in file)
  #  Be sure to double-check any results obtained with these settings for post-processing,
  #  e.g., with the "tight" defaults and larger basis sets.
  #
  ################################################################################
    species        O
  #     global species definitions
      nucleus             8
      mass                15.9994
  #
      l_hartree           4
  #
      cut_pot             3.5  1.5  1.0
      basis_dep_cutoff    1e-4
  #
      radial_base         36 5.0
      radial_multiplier   1
       angular_grids specified
        division   0.2659   50
        division   0.4451  110
        division   0.6052  194
        division   0.7543  302
  #      division   0.8014  434
  #      division   0.8507  590
  #      division   0.8762  770
  #      division   0.9023  974
  #      division   1.2339 1202
  #      outer_grid 974
        outer_grid 302
  ################################################################################
  #
  #  Definition of "minimal" basis
  #
  ################################################################################
  #     valence basis states
      valence      2  s   2.
      valence      2  p   4.
  #     ion occupancy
      ion_occ      2  s   1.
      ion_occ      2  p   3.
  ################################################################################
  #
  #  Suggested additional basis functions. For production calculations,
  #  uncomment them one after another (the most important basis functions are
  #  listed first).
  #
  #  Constructed for dimers: 1.0 A, 1.208 A, 1.5 A, 2.0 A, 3.0 A
  #
  ################################################################################
  #  "First tier" - improvements: -699.05 meV to -159.38 meV
       hydro 2 p 1.8
       hydro 3 d 7.6
       hydro 3 s 6.4
  #  "Second tier" - improvements: -49.91 meV to -5.39 meV
  #     hydro 4 f 11.6
  #     hydro 3 p 6.2
  #     hydro 3 d 5.6
  #     hydro 5 g 17.6
  #     hydro 1 s 0.75
  #  "Third tier" - improvements: -2.83 meV to -0.50 meV
  #     ionic 2 p auto
  #     hydro 4 f 10.8
  #     hydro 4 d 4.7
  #     hydro 2 s 6.8
  #  "Fourth tier" - improvements: -0.40 meV to -0.12 meV
  #     hydro 3 p 5
  #     hydro 3 s 3.3
  #     hydro 5 g 15.6
  #     hydro 4 f 17.6
  #     hydro 4 d 14
  # Further basis functions - -0.08 meV and below
  #     hydro 3 s 2.1
  #     hydro 4 d 11.6
  #     hydro 3 p 16
  #     hydro 2 s 17.2
  
  -----------------------------------------------------------------------
  Completed first pass over input file control.in .
  -----------------------------------------------------------------------
  
  
  -----------------------------------------------------------------------
  Parsing geometry.in (first pass over file, find array dimensions only).
  The contents of geometry.in will be repeated verbatim below
  unless switched off by setting 'verbatim_writeout .false.' .
  in the first line of geometry.in .
  -----------------------------------------------------------------------
  
  atom  0.00000 0.00000 0.00000 C
  atom  1.09300 0.00000 0.00000 H
  atom  -0.47961 0.00000 -1.41207 N
  atom  -0.48325 0.96091 -1.75627 H
  atom  0.15026 -0.57163 -1.97120 H
  atom  -0.49584 1.26211 0.72868 C
  atom  -1.58789 1.28919 0.74431 H
  atom  -0.13407 1.27425 1.75947 H
  atom  -0.13407 2.16087 0.22380 H
  atom  -0.39425 -1.28861 0.74398 C
  atom  -0.10189 -1.56493 1.88303 O
  atom  -1.10210 -2.13717 0.06896 O
  atom  -1.08294 -2.87388 0.70289 H
  
  -----------------------------------------------------------------------
  Completed first pass over input file geometry.in .
  -----------------------------------------------------------------------
  

  Basic array size parameters:
  | Number of species                 :        4
  | Number of atoms                   :       13
  | Max. basis fn. angular momentum   :        2
  | Max. atomic/ionic basis occupied n:        2
  | Max. number of basis fn. types    :        2
  | Max. radial fns per species/type  :        3
  | Max. logarithmic grid size        :     1301
  | Max. radial integration grid size :       36
  | Max. angular integration grid size:      302
  | Max. angular grid division number :        8
  | Radial grid for Hartree potential :     1301
  | Number of spin channels           :        1

------------------------------------------------------------
          Reading file control.in.
------------------------------------------------------------
  XC: Using PBE gradient-corrected functionals.
  Spin treatment: No spin polarisation.
  Non-relativistic treatment of kinetic energy.
  Charge =   0.000000E+00: Neutral system requested explicitly.
  Occupation type: Gaussian broadening, width =   0.100000E-01 eV.
  Using pulay charge density mixing.
  Pulay mixing - number of memorized iterations:   10
  Charge density mixing - mixing parameter:     0.2000
  Convergence accuracy of self-consistent charge density:  0.1000E-04
  Convergence accuracy of sum of eigenvalues:  0.1000E-02
  Convergence accuracy of total energy:  0.1000E-05
  Convergence accuracy of forces:  0.1000E-03
  Maximum number of s.-c. iterations  :   100
 
  Reading configuration options for species H                   .
  | Found nuclear charge :   1.0000
  | Found atomic mass :    1.00794000000000      amu
  | Found l_max for Hartree potential  :   4
  | Found cutoff potl. onset [A], width [A], scale factor :    3.50000    1.50000    1.00000
  | Threshold for basis-dependent cutoff potential is   0.100000E-03
  | Found data for basic radial integration grid :    24 points, outermost radius =    5.000 A
  | Found multiplier for basic radial grid :   1
  | Found angular grid specification: user-specified.
  | Specified grid contains     5 separate shells.
  | Check grid settings after all constraints further below.
  | Found free-atom valence shell :  1 s   1.000
  | No ionic wave fns used. Skipping ion_occ.
  | Found hydrogenic basis function :  2 s   2.100
  | Found hydrogenic basis function :  2 p   3.500
  Species H                   : Missing cutoff potential type.
  Defaulting to exp(1/x)/(1-x)^2 type cutoff potential.
  Species H : No 'logarithmic' tag. Using default grid for free atom:
  | Default logarithmic grid data [bohr] : 0.1000E-03 0.1000E+03 0.1012E+01
  Species H : On-site basis accuracy parameter (for Gram-Schmidt orthonormalisation) not specified.
  Using default value basis_acc =  0.1000000E-03.
  Species H                   : Using default innermost maximum threshold i_radial=  2 for radial functions.
  Species H                   : Default cutoff onset for free atom density etc. : 0.35000000E+01 AA.
  Species H                   : Basic radial grid will be enhanced according to radial_multiplier =   1, to contain    24 grid points.
 
  Reading configuration options for species C                   .
  | Found nuclear charge :   6.0000
  | Found atomic mass :    12.0107000000000      amu
  | Found l_max for Hartree potential  :   4
  | Found cutoff potl. onset [A], width [A], scale factor :    3.50000    1.50000    1.00000
  | Threshold for basis-dependent cutoff potential is   0.100000E-03
  | Found data for basic radial integration grid :    34 points, outermost radius =    5.000 A
  | Found multiplier for basic radial grid :   1
  | Found angular grid specification: user-specified.
  | Specified grid contains     5 separate shells.
  | Check grid settings after all constraints further below.
  | Found free-atom valence shell :  2 s   2.000
  | Found free-atom valence shell :  2 p   2.000
  | No ionic wave fns used. Skipping ion_occ.
  | No ionic wave fns used. Skipping ion_occ.
  | Found hydrogenic basis function :  2 p   1.700
  | Found hydrogenic basis function :  3 d   6.000
  | Found hydrogenic basis function :  2 s   4.900
  Species C                   : Missing cutoff potential type.
  Defaulting to exp(1/x)/(1-x)^2 type cutoff potential.
  Species C : No 'logarithmic' tag. Using default grid for free atom:
  | Default logarithmic grid data [bohr] : 0.1000E-03 0.1000E+03 0.1012E+01
  Species C : On-site basis accuracy parameter (for Gram-Schmidt orthonormalisation) not specified.
  Using default value basis_acc =  0.1000000E-03.
  Species C                   : Using default innermost maximum threshold i_radial=  2 for radial functions.
  Species C                   : Default cutoff onset for free atom density etc. : 0.35000000E+01 AA.
  Species C                   : Basic radial grid will be enhanced according to radial_multiplier =   1, to contain    34 grid points.
 
  Reading configuration options for species N                   .
  | Found nuclear charge :   7.0000
  | Found atomic mass :    14.0067000000000      amu
  | Found l_max for Hartree potential  :   4
  | Found cutoff potl. onset [A], width [A], scale factor :    3.50000    1.50000    1.00000
  | Threshold for basis-dependent cutoff potential is   0.100000E-03
  | Found data for basic radial integration grid :    35 points, outermost radius =    5.000 A
  | Found multiplier for basic radial grid :   1
  | Found angular grid specification: user-specified.
  | Specified grid contains     5 separate shells.
  | Check grid settings after all constraints further below.
  | Found free-atom valence shell :  2 s   2.000
  | Found free-atom valence shell :  2 p   3.000
  | No ionic wave fns used. Skipping ion_occ.
  | No ionic wave fns used. Skipping ion_occ.
  | Found hydrogenic basis function :  2 p   1.800
  | Found hydrogenic basis function :  3 d   6.800
  | Found hydrogenic basis function :  3 s   5.800
  Species N                   : Missing cutoff potential type.
  Defaulting to exp(1/x)/(1-x)^2 type cutoff potential.
  Species N : No 'logarithmic' tag. Using default grid for free atom:
  | Default logarithmic grid data [bohr] : 0.1000E-03 0.1000E+03 0.1012E+01
  Species N : On-site basis accuracy parameter (for Gram-Schmidt orthonormalisation) not specified.
  Using default value basis_acc =  0.1000000E-03.
  Species N                   : Using default innermost maximum threshold i_radial=  2 for radial functions.
  Species N                   : Default cutoff onset for free atom density etc. : 0.35000000E+01 AA.
  Species N                   : Basic radial grid will be enhanced according to radial_multiplier =   1, to contain    35 grid points.
 
  Reading configuration options for species O                   .
  | Found nuclear charge :   8.0000
  | Found atomic mass :    15.9994000000000      amu
  | Found l_max for Hartree potential  :   4
  | Found cutoff potl. onset [A], width [A], scale factor :    3.50000    1.50000    1.00000
  | Threshold for basis-dependent cutoff potential is   0.100000E-03
  | Found data for basic radial integration grid :    36 points, outermost radius =    5.000 A
  | Found multiplier for basic radial grid :   1
  | Found angular grid specification: user-specified.
  | Specified grid contains     5 separate shells.
  | Check grid settings after all constraints further below.
  | Found free-atom valence shell :  2 s   2.000
  | Found free-atom valence shell :  2 p   4.000
  | No ionic wave fns used. Skipping ion_occ.
  | No ionic wave fns used. Skipping ion_occ.
  | Found hydrogenic basis function :  2 p   1.800
  | Found hydrogenic basis function :  3 d   7.600
  | Found hydrogenic basis function :  3 s   6.400
  Species O                   : Missing cutoff potential type.
  Defaulting to exp(1/x)/(1-x)^2 type cutoff potential.
  Species O : No 'logarithmic' tag. Using default grid for free atom:
  | Default logarithmic grid data [bohr] : 0.1000E-03 0.1000E+03 0.1012E+01
  Species O : On-site basis accuracy parameter (for Gram-Schmidt orthonormalisation) not specified.
  Using default value basis_acc =  0.1000000E-03.
  Species O                   : Using default innermost maximum threshold i_radial=  2 for radial functions.
  Species O                   : Default cutoff onset for free atom density etc. : 0.35000000E+01 AA.
  Species O                   : Basic radial grid will be enhanced according to radial_multiplier =   1, to contain    36 grid points.
 
  Finished reading input file 'control.in'. Consistency checks are next.
 
  MPI_IN_PLACE appears to work with this MPI implementation.
  | Keeping use_mpi_in_place .true. (see manual).
  Target number of points in a grid batch is not set. Defaulting to  100
  Method for grid partitioning is not set. Defaulting to parallel hash+maxmin partitioning.
  Batch size limit is not set. Defaulting to    200
  By default, will store active basis functions for each batch.
  If in need of memory, prune_basis_once .false. can be used to disable this option.
  communication_type for Hartree potential was not specified.
  Defaulting to calc_hartree .
  Pulay mixer: Number of initial linear mixing iterations not set.
  Defaulting to    0 iterations.
  Work space size for distributed Hartree potential not set.
  Defaulting to   0.200000E+03 MB.
  Algorithm-dependent basis array size parameters:
  | n_max_pulay                         :       10
  Presetting      1001 iterations before the initial mixing cycle
  is restarted anyway using the sc_init_iter criterion / keyword.
  Presetting a factor      1.000 between actual scf density residual
  and density convergence criterion sc_accuracy_rho below which sc_init_iter
  takes no effect.
  Geometry relaxation not requested: no relaxation will be performed.
  Handling of forces: Unphysical translation and rotation will be removed from forces.
  No accuracy limit for integral partition fn. given. Defaulting to  0.1000E-14.
  No threshold value for u(r) in integrations given. Defaulting to  0.1000E-05.
  No accuracy for occupation numbers given. Defaulting to  0.1000E-12.
  No threshold value for occupation numbers given. Defaulting to  0.0000E+00.
  No accuracy for fermi level given. Defaulting to  0.1000E-19.
  Maximum # of iterations to find E_F not set. Defaulting to  200.
  Preferred method for the eigenvalue solver ('KS_method') not specified in 'control.in'.
  Defaulting to serial version, 'lapack_fast'.
  Will not use alltoall communication since running on < 1024 CPUs.
  Threshold for basis singularities not set.
  Default threshold for basis singularities:  0.1000E-04
  partition_type (choice of integration weights) for integrals was not specified.
  | Using a version of the partition function of Stratmann and coworkers ('stratmann_smoother').
  | At each grid point, the set of atoms used to build the partition table is smoothly restricted to
  | only those atoms whose free-atom density would be non-zero at that grid point.
  Partitioning for Hartree potential was not defined. Using partition_type for integrals.
  | Adjusted default value of keyword multip_moments_threshold to:       0.10000000E-11
  | This value may affect high angular momentum components of the Hartree potential in periodic systems.
  No q(lm)/r^(l+1) cutoff set for long-range Hartree potential.
  | Using default value of  0.100000E-09 .
  | Verify using the multipole_threshold keyword.
  Defaulting to new monopole extrapolation.
  Density update method: automatic selection selected.
------------------------------------------------------------


------------------------------------------------------------
          Reading geometry description geometry.in.
------------------------------------------------------------
  Input structure read successfully.
  The structure contains       13 atoms,  and a total of         48.000 electrons.

  Input geometry:
  | No unit cell requested.
  | Atomic structure:
  |       Atom                x [A]            y [A]            z [A]
  |    1: Species C             0.00000000        0.00000000        0.00000000
  |    2: Species H             1.09300000        0.00000000        0.00000000
  |    3: Species N            -0.47961000        0.00000000       -1.41207000
  |    4: Species H            -0.48325000        0.96091000       -1.75627000
  |    5: Species H             0.15026000       -0.57163000       -1.97120000
  |    6: Species C            -0.49584000        1.26211000        0.72868000
  |    7: Species H            -1.58789000        1.28919000        0.74431000
  |    8: Species H            -0.13407000        1.27425000        1.75947000
  |    9: Species H            -0.13407000        2.16087000        0.22380000
  |   10: Species C            -0.39425000       -1.28861000        0.74398000
  |   11: Species O            -0.10189000       -1.56493000        1.88303000
  |   12: Species O            -1.10210000       -2.13717000        0.06896000
  |   13: Species H            -1.08294000       -2.87388000        0.70289000
  |

  | The smallest distance between any two atoms is         0.97209875 AA.
  |
  | The first atom of this pair is atom number                     12 .
  | The second atom of this pair is atom number                    13 .

  Number of empty states per atom not set in control.in - providing a guess from actual geometry.
  | Total number of empty states used during s.c.f. cycle:       29
  If you use a very high smearing, use empty_states (per atom!) in control.in to increase this value.

  Structure-dependent array size parameters: 
  | Maximum number of distinct radial functions  :       21
  | Maximum number of basis functions            :      119
  | Number of Kohn-Sham states (occupied + empty):       53
------------------------------------------------------------

------------------------------------------------------------
          Preparing all fixed parts of the calculation.
------------------------------------------------------------
  Determining machine precision:
    2.225073858507201E-308
  Setting up grids for atomic and cluster calculations.

  Creating wave function, potential, and density for free atoms.

  Species: H

  List of occupied orbitals and eigenvalues:
    n    l              occ      energy [Ha]    energy [eV]
    1    0           1.0000        -0.237589        -6.4651


  Species: C

  List of occupied orbitals and eigenvalues:
    n    l              occ      energy [Ha]    energy [eV]
    1    0           2.0000       -10.038835      -273.1706
    2    0           2.0000        -0.502696       -13.6791
    2    1           2.0000        -0.191971        -5.2238


  Species: N

  List of occupied orbitals and eigenvalues:
    n    l              occ      energy [Ha]    energy [eV]
    1    0           2.0000       -14.128000      -384.4424
    2    0           2.0000        -0.681077       -18.5330
    2    1           3.0000        -0.259788        -7.0692


  Species: O

  List of occupied orbitals and eigenvalues:
    n    l              occ      energy [Ha]    energy [eV]
    1    0           2.0000       -18.898188      -514.2459
    2    0           2.0000        -0.878505       -23.9053
    2    1           4.0000        -0.331779        -9.0282

  Creating fixed part of basis set: Ionic, confined, hydrogenic.
 
  H                    hydrogenic:
 
  List of hydrogenic basis orbitals: 
    n    l      effective z      eigenvalue [eV]  inner max. [A]     outer max. [A]     outer radius [A]   
    2    0         2.100000       -14.9728           0.193243           1.317208           4.583499
    2    1         3.500000       -41.6669           0.602369           0.602369           3.723403
 
 
  C                    hydrogenic:
 
  List of hydrogenic basis orbitals: 
    n    l      effective z      eigenvalue [eV]  inner max. [A]     outer max. [A]     outer radius [A]   
    2    1         1.700000        -9.7616           1.230570           1.230570           4.607917
    3    2         6.000000       -54.4224           0.792453           0.792453           3.883070
    2    0         4.900000       -81.6679           0.082559           0.562749           3.078220
 
 
  N                    hydrogenic:
 
  List of hydrogenic basis orbitals: 
    n    l      effective z      eigenvalue [eV]  inner max. [A]     outer max. [A]     outer radius [A]   
    2    1         1.800000       -10.9749           1.177451           1.177451           4.573712
    3    2         6.800000       -69.9026           0.704619           0.704619           3.538137
    3    0         5.800000       -50.8545           0.067388           1.191934           4.250239
 
 
  O                    hydrogenic:
 
  List of hydrogenic basis orbitals: 
    n    l      effective z      eigenvalue [eV]  inner max. [A]     outer max. [A]     outer radius [A]   
    2    1         1.800000       -10.9749           1.164242           1.164242           4.578029
    3    2         7.600000       -87.3180           0.624125           0.624125           3.251020
    3    0         6.400000       -61.9207           0.061167           1.081902           4.001998
 

  Adding cutoff potential to free-atom effective potential.
  Creating atomic-like basis functions for current effective potential.

  Species H                   :

  List of atomic basis orbitals and eigenvalues:
    n    l      energy [Ha]    energy [eV]    outer radius [A]
    1    0        -0.237589        -6.4651       4.527807


  Species C                   :

  List of atomic basis orbitals and eigenvalues:
    n    l      energy [Ha]    energy [eV]    outer radius [A]
    1    0       -10.038835      -273.1706       1.934409
    2    0        -0.502696       -13.6791       4.496620
    2    1        -0.191971        -5.2238       4.551928


  Species N                   :

  List of atomic basis orbitals and eigenvalues:
    n    l      energy [Ha]    energy [eV]    outer radius [A]
    1    0       -14.128000      -384.4424       1.637919
    2    0        -0.681077       -18.5330       4.463241
    2    1        -0.259788        -7.0692       4.518138


  Species O                   :

  List of atomic basis orbitals and eigenvalues:
    n    l      energy [Ha]    energy [eV]    outer radius [A]
    1    0       -18.898188      -514.2459       1.415765
    2    0        -0.878505       -23.9053       4.413171
    2    1        -0.331779        -9.0282       4.522403

  Assembling full basis from fixed parts.
  | Species H :   atomic orbital   1 s accepted.
  | Species H :    hydro orbital   2 s accepted.
  | Species H :    hydro orbital   2 p accepted.
  | Species C :   atomic orbital   1 s accepted.
  | Species C :    hydro orbital   2 s accepted.
  | Species C :   atomic orbital   2 s accepted.
  | Species C :   atomic orbital   2 p accepted.
  | Species C :    hydro orbital   2 p accepted.
  | Species C :    hydro orbital   3 d accepted.
  | Species N :   atomic orbital   1 s accepted.
  | Species N :    hydro orbital   3 s accepted.
  | Species N :   atomic orbital   2 s accepted.
  | Species N :   atomic orbital   2 p accepted.
  | Species N :    hydro orbital   2 p accepted.
  | Species N :    hydro orbital   3 d accepted.
  | Species O :   atomic orbital   1 s accepted.
  | Species O :    hydro orbital   3 s accepted.
  | Species O :   atomic orbital   2 s accepted.
  | Species O :   atomic orbital   2 p accepted.
  | Species O :    hydro orbital   2 p accepted.
  | Species O :    hydro orbital   3 d accepted.
 
  Basis size parameters after reduction:
  | Total number of radial functions:       21
  | Total number of basis functions :      119
 
  Per-task memory consumption for arrays in subroutine allocate_ext:
  |           5.250512MB.
  Testing on-site integration grid accuracy.
  |  Species  Function  <phi|h_atom|phi> (log., in eV)  <phi|h_atom|phi> (rad., in eV)
           1        1                 -6.4663192853                 -6.4651273558
           1        2                 13.7111246313                 13.7170609718
           1        3                 25.2673269279                 25.2674696378
           2        4               -273.1705927641               -273.1705631568
           2        5                -10.7109323383                -10.7107120029
           2        6                 17.4381822266                 17.4352413244
           2        7                 -5.2255326521                 -5.2270484734
           2        8                  8.6835629259                  8.6603288385
           2        9                 27.4952418996                 27.4953360207
           3       10               -384.4424306495               -384.4423701208
           3       11                 12.5842251816                 12.5842222903
           3       12                -15.7264628251                -15.7264433455
           3       13                 -7.0696854293                 -7.0701769954
           3       14                  8.8090390882                  8.7901077751
           3       15                 35.9586762123                 35.9588528632
           4       16               -514.2458688638               -514.2457643834
           4       17                 15.1795651126                 15.1795290741
           4       18                -21.5359799773                -21.5360846186
           4       19                 -9.0283069236                 -9.0284644067
           4       20                  8.3027758564                  8.2834874195
           4       21                 45.8339351984                 45.8338762259

  Preparing densities etc. for the partition functions (integrals / Hartree potential).

  Preparations completed.
  max(cpu_time)          :      0.146 s.
  Wall clock time (cpu1) :      0.146 s.
------------------------------------------------------------

------------------------------------------------------------
          Begin self-consistency loop: Initialization.

          Date     :  20200710, Time     :  145926.759
------------------------------------------------------------

  Initializing index lists of integration centers etc. from given atomic structure:
  | Number of centers in hartree potential         :        13
  | Number of centers in hartree multipole         :        13
  | Number of centers in electron density summation:        13
  | Number of centers in basis integrals           :        13
  | Number of centers in integrals                 :        13
  | Number of centers in hamiltonian               :        13
  Partitioning the integration grid into batches with parallel hashing+maxmin method.
  | Number of batches:      950
  | Maximal batch size:     139
  | Minimal batch size:      66
  | Average batch size:      73.312
  | Standard deviation of batch sizes:      18.248

  Integration load balanced across     1 MPI tasks.
  Work distribution over tasks is as follows:
  Task     0 has      69646 integration points.
  Initializing partition tables, free-atom densities, potentials, etc. across the integration grid (initialize_grid_storage).
  | initialize_grid_storage: Actual outermost partition radius vs. multipole_radius_free
  | (-- VB: in principle, multipole_radius_free should be larger, hence this output)
  | Species        1: Confinement radius =              4.999999999999999 AA, multipole_radius_free =              5.054417573612229 AA.
  | Species        1: outer_partition_radius set to              5.054417573612229 AA .
  | Species        2: Confinement radius =              4.999999999999999 AA, multipole_radius_free =              5.019602836301480 AA.
  | Species        2: outer_partition_radius set to              5.019602836301480 AA .
  | Species        3: Confinement radius =              4.999999999999999 AA, multipole_radius_free =              5.043624274424571 AA.
  | Species        3: outer_partition_radius set to              5.043624274424571 AA .
  | Species        4: Confinement radius =              4.999999999999999 AA, multipole_radius_free =              5.048384829883283 AA.
  | Species        4: outer_partition_radius set to              5.048384829883283 AA .
  | Original list of interatomic distances with          13 x         13 entries is created.
  | Net number of integration points:    69646
  | of which are non-zero points    :    59638
  Renormalizing the initial density to the exact electron count on the 3D integration grid.
  | Initial density: Formal number of electrons (from input files) :      48.0000000000
  | Integrated number of electrons on 3D grid     :      47.9999617133
  | Charge integration error                      :      -0.0000382867
  | Normalization factor for density and gradient :       1.0000007976
  Obtaining max. number of non-zero basis functions in each batch (get_n_compute_maxes).
  | Maximal number of non-zero basis functions:      119 in task     0
  Selecting the method for density update.
  Loop over occupied states selected for charge density update.
  Allocating        0.050 MB for KS_eigenvector
  Integrating Hamiltonian matrix: batch-based integration.
  Time summed over all CPUs for integration: real work        0.488 s, elapsed        0.488 s
  Integrating overlap matrix.
  Time summed over all CPUs for integration: real work        0.209 s, elapsed        0.209 s

  Updating Kohn-Sham eigenvalues and eigenvectors using ELSI and the ELPA eigensolver.
  Overlap matrix is nonsingular
  | Lowest eigenvalue of overlap  :  0.50E-02
  | Highest eigenvalue of overlap :  0.61E+01
  Finished singularity check of overlap matrix
  | Time :     0.002 s
  Finished Cholesky decomposition
  | Time :     0.000 s
  Finished transformation to standard eigenproblem
  | Time :     0.000 s
  Starting LAPACK eigensolver
  Finished solving standard eigenproblem
  | Time :     0.002 s
  Finished back-transformation of eigenvectors
  | Time :     0.000 s

  Obtaining occupation numbers and chemical potential using ELSI.
  | Chemical potential (Fermi level):    -9.48080258eV
  Writing Kohn-Sham eigenvalues.

  State    Occupation    Eigenvalue [Ha]    Eigenvalue [eV]
      1       2.00000         -19.007529         -517.22118
      2       2.00000         -18.978347         -516.42711
      3       2.00000         -14.245787         -387.64759
      4       2.00000         -10.166786         -276.65231
      5       2.00000         -10.141236         -275.95706
      6       2.00000         -10.131916         -275.70347
      7       2.00000          -1.188115          -32.33025
      8       2.00000          -1.092809          -29.73684
      9       2.00000          -0.991705          -26.98567
     10       2.00000          -0.860562          -23.41710
     11       2.00000          -0.763273          -20.76972
     12       2.00000          -0.676852          -18.41809
     13       2.00000          -0.619815          -16.86602
     14       2.00000          -0.601682          -16.37260
     15       2.00000          -0.590748          -16.07508
     16       2.00000          -0.575804          -15.66842
     17       2.00000          -0.543828          -14.79830
     18       2.00000          -0.530354          -14.43167
     19       2.00000          -0.513749          -13.97983
     20       2.00000          -0.496027          -13.49759
     21       2.00000          -0.485277          -13.20507
     22       2.00000          -0.428937          -11.67196
     23       2.00000          -0.411262          -11.19102
     24       2.00000          -0.381737          -10.38760
     25       0.00000          -0.148304           -4.03555
     26       0.00000          -0.059633           -1.62270
     27       0.00000          -0.027965           -0.76096
     28       0.00000          -0.020805           -0.56612
     29       0.00000          -0.000085           -0.00230
     30       0.00000           0.006868            0.18688
     31       0.00000           0.020574            0.55984
     32       0.00000           0.025579            0.69603
     33       0.00000           0.040287            1.09627
     34       0.00000           0.076123            2.07140
     35       0.00000           0.083880            2.28249
     36       0.00000           0.134496            3.65982
     37       0.00000           0.147535            4.01462
     38       0.00000           0.197464            5.37326
     39       0.00000           0.209273            5.69461
     40       0.00000           0.233921            6.36531
     41       0.00000           0.246827            6.71651
     42       0.00000           0.271913            7.39912
     43       0.00000           0.297199            8.08719
     44       0.00000           0.300030            8.16424
     45       0.00000           0.340410            9.26304
     46       0.00000           0.355774            9.68111
     47       0.00000           0.382098           10.39741
     48       0.00000           0.415507           11.30653
     49       0.00000           0.455095           12.38378
     50       0.00000           0.463662           12.61688
     51       0.00000           0.492023           13.38862
     52       0.00000           0.517868           14.09190
     53       0.00000           0.569248           15.49004

  Highest occupied state (VBM) at    -10.38759604 eV
  | Occupation number:      2.00000000

  Lowest unoccupied state (CBM) at    -4.03554832 eV
  | Occupation number:      0.00000000

  Overall HOMO-LUMO gap:      6.35204773 eV.
  Calculating total energy contributions from superposition of free atom densities.

  Total energy components:
  | Sum of eigenvalues            :        -188.84827737 Ha       -5138.82308760 eV
  | XC energy correction          :         -41.78553131 Ha       -1137.04215894 eV
  | XC potential correction       :          53.71548270 Ha        1461.67265328 eV
  | Free-atom electrostatic energy:        -146.85563652 Ha       -3996.14519123 eV
  | Hartree energy correction     :           0.00000000 Ha           0.00000000 eV
  | vdW energy correction         :           0.00000000 Ha           0.00000000 eV
  | Entropy correction            :           0.00000000 Ha           0.00000000 eV
  | ---------------------------
  | Total energy                  :        -323.77396249 Ha       -8810.33778449 eV
  | Total energy, T -> 0          :        -323.77396249 Ha       -8810.33778449 eV  <-- do not rely on this value for anything but (periodic) metals
  | Electronic free energy        :        -323.77396249 Ha       -8810.33778449 eV

  Derived energy quantities:
  | Kinetic energy                :         320.47698898 Ha        8720.62257046 eV
  | Electrostatic energy          :        -602.46542016 Ha      -16393.91819601 eV
  | Energy correction for multipole
  | error in Hartree potential    :           0.00000000 Ha           0.00000000 eV
  | Sum of eigenvalues per atom                           :        -395.29408366 eV
  | Total energy (T->0) per atom                          :        -677.71829111 eV  <-- do not rely on this value for anything but (periodic) metals
  | Electronic free energy per atom                       :        -677.71829111 eV
  Initialize hartree_potential_storage
  Max. number of atoms included in rho_multipole:           13

  End scf initialization - timings             :  max(cpu_time)    wall_clock(cpu1)
  | Time for scf. initialization               :        1.137 s           1.139 s
  | Boundary condition initialization          :        0.000 s           0.001 s
  | Integration                                :        0.698 s           0.698 s
  | Solution of K.-S. eqns.                    :        0.004 s           0.005 s
  | Grid partitioning                          :        0.110 s           0.110 s
  | Preloading free-atom quantities on grid    :        0.002 s           0.003 s
  | Free-atom superposition energy             :        0.084 s           0.084 s
  | Total energy evaluation                    :        0.000 s           0.000 s

  Partial memory accounting:
  | Current value for overall tracked memory usage on task 0  :           0.165 MB
  | Peak value for overall tracked memory usage on task 0     :           0.678 MB after allocating wave
  | Largest tracked array allocation on task 0 so far         :           0.132 MB  when allocating H_times_psi
  Note:  These values currently only include a subset of arrays which are explicitly tracked.
  The "true" memory usage will be greater.
------------------------------------------------------------

------------------------------------------------------------
          Begin self-consistency iteration #    1

  Date     :  20200710, Time     :  145927.898
------------------------------------------------------------
  Evaluating new KS density.
  Integration grid: deviation in total charge (<rho> - N_e) =  -7.105427E-15
  Pulay mixing of updated and previous charge densities.

  Evaluating partitioned Hartree potential by multipole expansion.
  | Analytical far-field extrapolation by fixed multipoles:
  | Hartree multipole sum: apparent total charge =  -0.150665E-03
  Summing up the Hartree potential.
  Time summed over all CPUs for potential: real work        0.281 s, elapsed        0.281 s
  | RMS charge density error from multipole expansion :   0.587603E-02

  Integrating Hamiltonian matrix: batch-based integration.
  Time summed over all CPUs for integration: real work        0.488 s, elapsed        0.488 s

  Updating Kohn-Sham eigenvalues and eigenvectors using ELSI and the ELPA eigensolver.
  Finished Cholesky decomposition
  | Time :     0.000 s
  Finished transformation to standard eigenproblem
  | Time :     0.000 s
  Starting LAPACK eigensolver
  Finished solving standard eigenproblem
  | Time :     0.001 s
  Finished back-transformation of eigenvectors
  | Time :     0.000 s

  Obtaining occupation numbers and chemical potential using ELSI.
  | Chemical potential (Fermi level):    -8.27826887eV
  Writing Kohn-Sham eigenvalues.

  State    Occupation    Eigenvalue [Ha]    Eigenvalue [eV]
      1       2.00000         -18.903198         -514.38218
      2       2.00000         -18.837442         -512.59287
      3       2.00000         -14.094350         -383.52677
      4       2.00000         -10.112550         -275.17647
      5       2.00000         -10.061909         -273.79847
      6       2.00000         -10.031828         -272.97994
      7       2.00000          -1.136972          -30.93857
      8       2.00000          -1.029061          -28.00217
      9       2.00000          -0.920593          -25.05061
     10       2.00000          -0.794017          -21.60631
     11       2.00000          -0.712021          -19.37508
     12       2.00000          -0.628694          -17.10765
     13       2.00000          -0.556922          -15.15463
     14       2.00000          -0.540081          -14.69636
     15       2.00000          -0.533760          -14.52435
     16       2.00000          -0.512538          -13.94688
     17       2.00000          -0.490707          -13.35282
     18       2.00000          -0.471485          -12.82975
     19       2.00000          -0.447744          -12.18373
     20       2.00000          -0.435983          -11.86369
     21       2.00000          -0.429448          -11.68589
     22       2.00000          -0.365838           -9.95497
     23       2.00000          -0.338219           -9.20341
     24       2.00000          -0.309334           -8.41741
     25       0.00000          -0.109500           -2.97964
     26       0.00000          -0.031855           -0.86682
     27       0.00000          -0.001531           -0.04167
     28       0.00000           0.015018            0.40865
     29       0.00000           0.031357            0.85328
     30       0.00000           0.044683            1.21589
     31       0.00000           0.060610            1.64928
     32       0.00000           0.066674            1.81429
     33       0.00000           0.080931            2.20224
     34       0.00000           0.115759            3.14996
     35       0.00000           0.127776            3.47697
     36       0.00000           0.162093            4.41079
     37       0.00000           0.175900            4.78649
     38       0.00000           0.226609            6.16635
     39       0.00000           0.238659            6.49423
     40       0.00000           0.271349            7.38377
     41       0.00000           0.283503            7.71452
     42       0.00000           0.307413            8.36514
     43       0.00000           0.331287            9.01477
     44       0.00000           0.343582            9.34933
     45       0.00000           0.381774           10.38861
     46       0.00000           0.394634           10.73855
     47       0.00000           0.420259           11.43582
     48       0.00000           0.452193           12.30479
     49       0.00000           0.491769           13.38170
     50       0.00000           0.503267           13.69460
     51       0.00000           0.529331           14.40383
     52       0.00000           0.552957           15.04672
     53       0.00000           0.610483           16.61209

  Highest occupied state (VBM) at     -8.41740813 eV
  | Occupation number:      2.00000000

  Lowest unoccupied state (CBM) at    -2.97964182 eV
  | Occupation number:      0.00000000

  Overall HOMO-LUMO gap:      5.43776631 eV.

  Total energy components:
  | Sum of eigenvalues            :        -185.38938988 Ha       -5044.70197012 eV
  | XC energy correction          :         -42.11396840 Ha       -1145.97938704 eV
  | XC potential correction       :          54.14267746 Ha        1473.29721428 eV
  | Free-atom electrostatic energy:        -146.85563652 Ha       -3996.14519123 eV
  | Hartree energy correction     :          -3.37803994 Ha         -91.92114359 eV
  | vdW energy correction         :           0.00000000 Ha           0.00000000 eV
  | Entropy correction            :          -0.00000000 Ha          -0.00000000 eV
  | ---------------------------
  | Total energy                  :        -323.59435727 Ha       -8805.45047771 eV
  | Total energy, T -> 0          :        -323.59435727 Ha       -8805.45047771 eV  <-- do not rely on this value for anything but (periodic) metals
  | Electronic free energy        :        -323.59435727 Ha       -8805.45047771 eV

  Derived energy quantities:
  | Kinetic energy                :         322.26287671 Ha        8769.21904811 eV
  | Electrostatic energy          :        -603.74326557 Ha      -16428.69013878 eV
  | Energy correction for multipole
  | error in Hartree potential    :           0.01216963 Ha           0.33115236 eV
  | Sum of eigenvalues per atom                           :        -388.05399770 eV
  | Total energy (T->0) per atom                          :        -677.34234444 eV  <-- do not rely on this value for anything but (periodic) metals
  | Electronic free energy per atom                       :        -677.34234444 eV

  Self-consistency convergence accuracy:
  | Change of charge density      :  0.5804E+00
  | Change of sum of eigenvalues  :  0.9412E+02 eV
  | Change of total energy        :  0.4887E+01 eV

  End self-consistency iteration #     1       :  max(cpu_time)    wall_clock(cpu1)
  | Time for this iteration                    :        1.176 s           1.177 s
  | Charge density update                      :        0.389 s           0.390 s
  | Density mixing                             :        0.005 s           0.005 s
  | Hartree multipole update                   :        0.009 s           0.009 s
  | Hartree multipole summation                :        0.282 s           0.282 s
  | Integration                                :        0.488 s           0.489 s
  | Solution of K.-S. eqns.                    :        0.002 s           0.002 s
  | Total energy evaluation                    :        0.000 s           0.000 s

  Partial memory accounting:
  | Current value for overall tracked memory usage on task 0  :           0.165 MB
  | Peak value for overall tracked memory usage on task 0     :           0.695 MB after allocating gradient_basis_wave
  | Largest tracked array allocation on task 0 so far         :           0.397 MB  when allocating gradient_basis_wave
  Note:  These values currently only include a subset of arrays which are explicitly tracked.
  The "true" memory usage will be greater.
------------------------------------------------------------

------------------------------------------------------------
          Begin self-consistency iteration #    2

  Date     :  20200710, Time     :  145929.078
------------------------------------------------------------
  Evaluating new KS density.
  Integration grid: deviation in total charge (<rho> - N_e) =  -4.263256E-14
  Pulay mixing of updated and previous charge densities.

  Evaluating partitioned Hartree potential by multipole expansion.
  | Analytical far-field extrapolation by fixed multipoles:
  | Hartree multipole sum: apparent total charge =  -0.296107E-03
  Summing up the Hartree potential.
  Time summed over all CPUs for potential: real work        0.282 s, elapsed        0.282 s
  | RMS charge density error from multipole expansion :   0.140771E-01

  Integrating Hamiltonian matrix: batch-based integration.
  Time summed over all CPUs for integration: real work        0.489 s, elapsed        0.489 s

  Updating Kohn-Sham eigenvalues and eigenvectors using ELSI and the ELPA eigensolver.
  Finished Cholesky decomposition
  | Time :     0.000 s
  Finished transformation to standard eigenproblem
  | Time :     0.000 s
  Starting LAPACK eigensolver
  Finished solving standard eigenproblem
  | Time :     0.001 s
  Finished back-transformation of eigenvectors
  | Time :     0.000 s

  Obtaining occupation numbers and chemical potential using ELSI.
  | Chemical potential (Fermi level):    -2.72213337eV
  Highest occupied state (VBM) at     -6.39003745 eV
  | Occupation number:      2.00000000

  Lowest unoccupied state (CBM) at    -1.64057015 eV
  | Occupation number:      0.00000000

  Overall HOMO-LUMO gap:      4.74946730 eV.

  Checking to see if s.c.f. parameters should be adjusted.

  Total energy components:
  | Sum of eigenvalues            :        -181.72764278 Ha       -4945.06076187 eV
  | XC energy correction          :         -42.47748452 Ha       -1155.87116394 eV
  | XC potential correction       :          54.61394865 Ha        1486.12115586 eV
  | Free-atom electrostatic energy:        -146.85563652 Ha       -3996.14519123 eV
  | Hartree energy correction     :          -7.07021251 Ha        -192.39027099 eV
  | vdW energy correction         :           0.00000000 Ha           0.00000000 eV
  | Entropy correction            :           0.00000000 Ha           0.00000000 eV
  | ---------------------------
  | Total energy                  :        -323.51702767 Ha       -8803.34623217 eV
  | Total energy, T -> 0          :        -323.51702767 Ha       -8803.34623217 eV  <-- do not rely on this value for anything but (periodic) metals
  | Electronic free energy        :        -323.51702767 Ha       -8803.34623217 eV

  Derived energy quantities:
  | Kinetic energy                :         323.59375475 Ha        8805.43408235 eV
  | Electrostatic energy          :        -604.63329790 Ha      -16452.90915058 eV
  | Energy correction for multipole
  | error in Hartree potential    :           0.02717234 Ha           0.73939700 eV
  | Sum of eigenvalues per atom                           :        -380.38928937 eV
  | Total energy (T->0) per atom                          :        -677.18047940 eV  <-- do not rely on this value for anything but (periodic) metals
  | Electronic free energy per atom                       :        -677.18047940 eV

  Self-consistency convergence accuracy:
  | Change of charge density      :  0.3621E+00
  | Change of sum of eigenvalues  :  0.9964E+02 eV
  | Change of total energy        :  0.2104E+01 eV

  End self-consistency iteration #     2       :  max(cpu_time)    wall_clock(cpu1)
  | Time for this iteration                    :        1.170 s           1.171 s
  | Charge density update                      :        0.382 s           0.382 s
  | Density mixing                             :        0.007 s           0.007 s
  | Hartree multipole update                   :        0.009 s           0.009 s
  | Hartree multipole summation                :        0.282 s           0.282 s
  | Integration                                :        0.488 s           0.489 s
  | Solution of K.-S. eqns.                    :        0.002 s           0.002 s
  | Total energy evaluation                    :        0.000 s           0.000 s

  Partial memory accounting:
  | Current value for overall tracked memory usage on task 0  :           0.166 MB
  | Peak value for overall tracked memory usage on task 0     :           0.695 MB after allocating gradient_basis_wave
  | Largest tracked array allocation on task 0 so far         :           0.397 MB  when allocating gradient_basis_wave
  Note:  These values currently only include a subset of arrays which are explicitly tracked.
  The "true" memory usage will be greater.
------------------------------------------------------------

------------------------------------------------------------
          Begin self-consistency iteration #    3

  Date     :  20200710, Time     :  145930.251
------------------------------------------------------------
  Evaluating new KS density.
  Integration grid: deviation in total charge (<rho> - N_e) =   2.842171E-14
  Pulay mixing of updated and previous charge densities.

  Evaluating partitioned Hartree potential by multipole expansion.
  | Analytical far-field extrapolation by fixed multipoles:
  | Hartree multipole sum: apparent total charge =  -0.401892E-03
  Summing up the Hartree potential.
  Time summed over all CPUs for potential: real work        0.281 s, elapsed        0.281 s
  | RMS charge density error from multipole expansion :   0.225613E-01

  Integrating Hamiltonian matrix: batch-based integration.
  Time summed over all CPUs for integration: real work        0.498 s, elapsed        0.498 s

  Updating Kohn-Sham eigenvalues and eigenvectors using ELSI and the ELPA eigensolver.
  Finished Cholesky decomposition
  | Time :     0.000 s
  Finished transformation to standard eigenproblem
  | Time :     0.000 s
  Starting LAPACK eigensolver
  Finished solving standard eigenproblem
  | Time :     0.002 s
  Finished back-transformation of eigenvectors
  | Time :     0.000 s

  Obtaining occupation numbers and chemical potential using ELSI.
  | Chemical potential (Fermi level):    -2.00332864eV
  Highest occupied state (VBM) at     -5.73394915 eV
  | Occupation number:      2.00000000

  Lowest unoccupied state (CBM) at    -0.91360129 eV
  | Occupation number:      0.00000000

  Overall HOMO-LUMO gap:      4.82034786 eV.

  Total energy components:
  | Sum of eigenvalues            :        -180.45163729 Ha       -4910.33888593 eV
  | XC energy correction          :         -42.62644342 Ha       -1159.92454181 eV
  | XC potential correction       :          54.80362650 Ha        1491.28255275 eV
  | Free-atom electrostatic energy:        -146.85563652 Ha       -3996.14519123 eV
  | Hartree energy correction     :          -8.37469664 Ha        -227.88709024 eV
  | vdW energy correction         :           0.00000000 Ha           0.00000000 eV
  | Entropy correction            :           0.00000000 Ha           0.00000000 eV
  | ---------------------------
  | Total energy                  :        -323.50478736 Ha       -8803.01315647 eV
  | Total energy, T -> 0          :        -323.50478736 Ha       -8803.01315647 eV  <-- do not rely on this value for anything but (periodic) metals
  | Electronic free energy        :        -323.50478736 Ha       -8803.01315647 eV

  Derived energy quantities:
  | Kinetic energy                :         323.09988873 Ha        8791.99530403 eV
  | Electrostatic energy          :        -603.97823267 Ha      -16435.08391868 eV
  | Energy correction for multipole
  | error in Hartree potential    :           0.03916852 Ha           1.06582978 eV
  | Sum of eigenvalues per atom                           :        -377.71837584 eV
  | Total energy (T->0) per atom                          :        -677.15485819 eV  <-- do not rely on this value for anything but (periodic) metals
  | Electronic free energy per atom                       :        -677.15485819 eV

  Self-consistency convergence accuracy:
  | Change of charge density      :  0.2010E+00
  | Change of sum of eigenvalues  :  0.3472E+02 eV
  | Change of total energy        :  0.3331E+00 eV

  End self-consistency iteration #     3       :  max(cpu_time)    wall_clock(cpu1)
  | Time for this iteration                    :        1.174 s           1.182 s
  | Charge density update                      :        0.381 s           0.381 s
  | Density mixing                             :        0.008 s           0.009 s
  | Hartree multipole update                   :        0.009 s           0.009 s
  | Hartree multipole summation                :        0.282 s           0.282 s
  | Integration                                :        0.492 s           0.498 s
  | Solution of K.-S. eqns.                    :        0.002 s           0.002 s
  | Total energy evaluation                    :        0.000 s           0.001 s

  Partial memory accounting:
  | Current value for overall tracked memory usage on task 0  :           0.166 MB
  | Peak value for overall tracked memory usage on task 0     :           0.695 MB after allocating gradient_basis_wave
  | Largest tracked array allocation on task 0 so far         :           0.397 MB  when allocating gradient_basis_wave
  Note:  These values currently only include a subset of arrays which are explicitly tracked.
  The "true" memory usage will be greater.
------------------------------------------------------------

------------------------------------------------------------
          Begin self-consistency iteration #    4

  Date     :  20200710, Time     :  145931.435
------------------------------------------------------------
  Evaluating new KS density.
  Integration grid: deviation in total charge (<rho> - N_e) =   9.237056E-14
  Pulay mixing of updated and previous charge densities.

  Evaluating partitioned Hartree potential by multipole expansion.
  | Analytical far-field extrapolation by fixed multipoles:
  | Hartree multipole sum: apparent total charge =  -0.433449E-03
  Summing up the Hartree potential.
  Time summed over all CPUs for potential: real work        0.282 s, elapsed        0.282 s
  | RMS charge density error from multipole expansion :   0.256571E-01

  Integrating Hamiltonian matrix: batch-based integration.
  Time summed over all CPUs for integration: real work        0.492 s, elapsed        0.492 s

  Updating Kohn-Sham eigenvalues and eigenvectors using ELSI and the ELPA eigensolver.
  Finished Cholesky decomposition
  | Time :     0.000 s
  Finished transformation to standard eigenproblem
  | Time :     0.000 s
  Starting LAPACK eigensolver
  Finished solving standard eigenproblem
  | Time :     0.001 s
  Finished back-transformation of eigenvectors
  | Time :     0.000 s

  Obtaining occupation numbers and chemical potential using ELSI.
  | Chemical potential (Fermi level):    -1.90725150eV
  Highest occupied state (VBM) at     -5.54789120 eV
  | Occupation number:      2.00000000

  Lowest unoccupied state (CBM) at    -0.84200261 eV
  | Occupation number:      0.00000000

  Overall HOMO-LUMO gap:      4.70588859 eV.

  Total energy components:
  | Sum of eigenvalues            :        -180.29383483 Ha       -4906.04486245 eV
  | XC energy correction          :         -42.66243781 Ha       -1160.90399889 eV
  | XC potential correction       :          54.84909618 Ha        1492.51984561 eV
  | Free-atom electrostatic energy:        -146.85563652 Ha       -3996.14519123 eV
  | Hartree energy correction     :          -8.54127113 Ha        -232.41981280 eV
  | vdW energy correction         :           0.00000000 Ha           0.00000000 eV
  | Entropy correction            :           0.00000000 Ha           0.00000000 eV
  | ---------------------------
  | Total energy                  :        -323.50408410 Ha       -8802.99401977 eV
  | Total energy, T -> 0          :        -323.50408410 Ha       -8802.99401977 eV  <-- do not rely on this value for anything but (periodic) metals
  | Electronic free energy        :        -323.50408410 Ha       -8802.99401977 eV

  Derived energy quantities:
  | Kinetic energy                :         322.77575523 Ha        8783.17518297 eV
  | Electrostatic energy          :        -603.61740153 Ha      -16425.26520385 eV
  | Energy correction for multipole
  | error in Hartree potential    :           0.04317429 Ha           1.17483227 eV
  | Sum of eigenvalues per atom                           :        -377.38806634 eV
  | Total energy (T->0) per atom                          :        -677.15338614 eV  <-- do not rely on this value for anything but (periodic) metals
  | Electronic free energy per atom                       :        -677.15338614 eV

  Self-consistency convergence accuracy:
  | Change of charge density      :  0.5682E-01
  | Change of sum of eigenvalues  :  0.4294E+01 eV
  | Change of total energy        :  0.1914E-01 eV

  End self-consistency iteration #     4       :  max(cpu_time)    wall_clock(cpu1)
  | Time for this iteration                    :        1.176 s           1.177 s
  | Charge density update                      :        0.382 s           0.382 s
  | Density mixing                             :        0.009 s           0.010 s
  | Hartree multipole update                   :        0.009 s           0.009 s
  | Hartree multipole summation                :        0.282 s           0.282 s
  | Integration                                :        0.492 s           0.492 s
  | Solution of K.-S. eqns.                    :        0.002 s           0.002 s
  | Total energy evaluation                    :        0.000 s           0.000 s

  Partial memory accounting:
  | Current value for overall tracked memory usage on task 0  :           0.166 MB
  | Peak value for overall tracked memory usage on task 0     :           0.696 MB after allocating gradient_basis_wave
  | Largest tracked array allocation on task 0 so far         :           0.397 MB  when allocating gradient_basis_wave
  Note:  These values currently only include a subset of arrays which are explicitly tracked.
  The "true" memory usage will be greater.
------------------------------------------------------------

------------------------------------------------------------
          Begin self-consistency iteration #    5

  Date     :  20200710, Time     :  145932.615
------------------------------------------------------------
  Evaluating new KS density.
  Integration grid: deviation in total charge (<rho> - N_e) =   1.421085E-14
  Pulay mixing of updated and previous charge densities.

  Evaluating partitioned Hartree potential by multipole expansion.
  | Analytical far-field extrapolation by fixed multipoles:
  | Hartree multipole sum: apparent total charge =  -0.427467E-03
  Summing up the Hartree potential.
  Time summed over all CPUs for potential: real work        0.282 s, elapsed        0.282 s
  | RMS charge density error from multipole expansion :   0.254144E-01

  Integrating Hamiltonian matrix: batch-based integration.
  Time summed over all CPUs for integration: real work        0.492 s, elapsed        0.492 s

  Updating Kohn-Sham eigenvalues and eigenvectors using ELSI and the ELPA eigensolver.
  Finished Cholesky decomposition
  | Time :     0.000 s
  Finished transformation to standard eigenproblem
  | Time :     0.000 s
  Starting LAPACK eigensolver
  Finished solving standard eigenproblem
  | Time :     0.002 s
  Finished back-transformation of eigenvectors
  | Time :     0.000 s

  Obtaining occupation numbers and chemical potential using ELSI.
  | Chemical potential (Fermi level):    -1.97455846eV
  Highest occupied state (VBM) at     -5.62541057 eV
  | Occupation number:      2.00000000

  Lowest unoccupied state (CBM) at    -0.92031972 eV
  | Occupation number:      0.00000000

  Overall HOMO-LUMO gap:      4.70509085 eV.

  Total energy components:
  | Sum of eigenvalues            :        -180.47177957 Ha       -4910.88698532 eV
  | XC energy correction          :         -42.64082798 Ha       -1160.31596555 eV
  | XC potential correction       :          54.82106627 Ha        1491.75711294 eV
  | Free-atom electrostatic energy:        -146.85563652 Ha       -3996.14519123 eV
  | Hartree energy correction     :          -8.35661035 Ha        -227.39493722 eV
  | vdW energy correction         :           0.00000000 Ha           0.00000000 eV
  | Entropy correction            :           0.00000000 Ha           0.00000000 eV
  | ---------------------------
  | Total energy                  :        -323.50378814 Ha       -8802.98596638 eV
  | Total energy, T -> 0          :        -323.50378814 Ha       -8802.98596638 eV  <-- do not rely on this value for anything but (periodic) metals
  | Electronic free energy        :        -323.50378814 Ha       -8802.98596638 eV

  Derived energy quantities:
  | Kinetic energy                :         322.68046610 Ha        8780.58223357 eV
  | Electrostatic energy          :        -603.54342626 Ha      -16423.25223440 eV
  | Energy correction for multipole
  | error in Hartree potential    :           0.04259019 Ha           1.15893806 eV
  | Sum of eigenvalues per atom                           :        -377.76053733 eV
  | Total energy (T->0) per atom                          :        -677.15276664 eV  <-- do not rely on this value for anything but (periodic) metals
  | Electronic free energy per atom                       :        -677.15276664 eV

  Self-consistency convergence accuracy:
  | Change of charge density      :  0.2055E-01
  | Change of sum of eigenvalues  : -0.4842E+01 eV
  | Change of total energy        :  0.8053E-02 eV

  End self-consistency iteration #     5       :  max(cpu_time)    wall_clock(cpu1)
  | Time for this iteration                    :        1.177 s           1.178 s
  | Charge density update                      :        0.382 s           0.382 s
  | Density mixing                             :        0.011 s           0.011 s
  | Hartree multipole update                   :        0.009 s           0.009 s
  | Hartree multipole summation                :        0.282 s           0.282 s
  | Integration                                :        0.492 s           0.492 s
  | Solution of K.-S. eqns.                    :        0.002 s           0.002 s
  | Total energy evaluation                    :        0.000 s           0.000 s

  Partial memory accounting:
  | Current value for overall tracked memory usage on task 0  :           0.166 MB
  | Peak value for overall tracked memory usage on task 0     :           0.696 MB after allocating gradient_basis_wave
  | Largest tracked array allocation on task 0 so far         :           0.397 MB  when allocating gradient_basis_wave
  Note:  These values currently only include a subset of arrays which are explicitly tracked.
  The "true" memory usage will be greater.
------------------------------------------------------------

------------------------------------------------------------
          Begin self-consistency iteration #    6

  Date     :  20200710, Time     :  145933.796
------------------------------------------------------------
  Evaluating new KS density.
  Integration grid: deviation in total charge (<rho> - N_e) =   0.000000E+00
  Pulay mixing of updated and previous charge densities.

  Evaluating partitioned Hartree potential by multipole expansion.
  | Analytical far-field extrapolation by fixed multipoles:
  | Hartree multipole sum: apparent total charge =  -0.429435E-03
  Summing up the Hartree potential.
  Time summed over all CPUs for potential: real work        0.282 s, elapsed        0.282 s
  | RMS charge density error from multipole expansion :   0.257421E-01

  Integrating Hamiltonian matrix: batch-based integration.
  Time summed over all CPUs for integration: real work        0.492 s, elapsed        0.492 s

  Updating Kohn-Sham eigenvalues and eigenvectors using ELSI and the ELPA eigensolver.
  Finished Cholesky decomposition
  | Time :     0.000 s
  Finished transformation to standard eigenproblem
  | Time :     0.000 s
  Starting LAPACK eigensolver
  Finished solving standard eigenproblem
  | Time :     0.002 s
  Finished back-transformation of eigenvectors
  | Time :     0.000 s

  Obtaining occupation numbers and chemical potential using ELSI.
  | Chemical potential (Fermi level):    -1.98911505eV
  Highest occupied state (VBM) at     -5.61274649 eV
  | Occupation number:      2.00000000

  Lowest unoccupied state (CBM) at    -0.94645940 eV
  | Occupation number:      0.00000000

  Overall HOMO-LUMO gap:      4.66628709 eV.

  Total energy components:
  | Sum of eigenvalues            :        -180.50873259 Ha       -4911.89252821 eV
  | XC energy correction          :         -42.63486223 Ha       -1160.15362922 eV
  | XC potential correction       :          54.81331943 Ha        1491.54631071 eV
  | Free-atom electrostatic energy:        -146.85563652 Ha       -3996.14519123 eV
  | Hartree energy correction     :          -8.31781253 Ha        -226.33919490 eV
  | vdW energy correction         :           0.00000000 Ha           0.00000000 eV
  | Entropy correction            :           0.00000000 Ha           0.00000000 eV
  | ---------------------------
  | Total energy                  :        -323.50372444 Ha       -8802.98423285 eV
  | Total energy, T -> 0          :        -323.50372444 Ha       -8802.98423285 eV  <-- do not rely on this value for anything but (periodic) metals
  | Electronic free energy        :        -323.50372444 Ha       -8802.98423285 eV

  Derived energy quantities:
  | Kinetic energy                :         322.58945985 Ha        8778.10582762 eV
  | Electrostatic energy          :        -603.45832206 Ha      -16420.93643125 eV
  | Energy correction for multipole
  | error in Hartree potential    :           0.04281300 Ha           1.16500106 eV
  | Sum of eigenvalues per atom                           :        -377.83788679 eV
  | Total energy (T->0) per atom                          :        -677.15263330 eV  <-- do not rely on this value for anything but (periodic) metals
  | Electronic free energy per atom                       :        -677.15263330 eV

  Self-consistency convergence accuracy:
  | Change of charge density      :  0.1031E-01
  | Change of sum of eigenvalues  : -0.1006E+01 eV
  | Change of total energy        :  0.1734E-02 eV

  End self-consistency iteration #     6       :  max(cpu_time)    wall_clock(cpu1)
  | Time for this iteration                    :        1.179 s           1.179 s
  | Charge density update                      :        0.382 s           0.382 s
  | Density mixing                             :        0.012 s           0.012 s
  | Hartree multipole update                   :        0.009 s           0.009 s
  | Hartree multipole summation                :        0.282 s           0.282 s
  | Integration                                :        0.492 s           0.492 s
  | Solution of K.-S. eqns.                    :        0.002 s           0.002 s
  | Total energy evaluation                    :        0.000 s           0.000 s

  Partial memory accounting:
  | Current value for overall tracked memory usage on task 0  :           0.166 MB
  | Peak value for overall tracked memory usage on task 0     :           0.696 MB after allocating gradient_basis_wave
  | Largest tracked array allocation on task 0 so far         :           0.397 MB  when allocating gradient_basis_wave
  Note:  These values currently only include a subset of arrays which are explicitly tracked.
  The "true" memory usage will be greater.
------------------------------------------------------------

------------------------------------------------------------
          Begin self-consistency iteration #    7

  Date     :  20200710, Time     :  145934.978
------------------------------------------------------------
  Evaluating new KS density.
  Integration grid: deviation in total charge (<rho> - N_e) =  -1.421085E-14
  Pulay mixing of updated and previous charge densities.

  Evaluating partitioned Hartree potential by multipole expansion.
  | Analytical far-field extrapolation by fixed multipoles:
  | Hartree multipole sum: apparent total charge =  -0.431000E-03
  Summing up the Hartree potential.
  Time summed over all CPUs for potential: real work        0.292 s, elapsed        0.292 s
  | RMS charge density error from multipole expansion :   0.259100E-01

  Integrating Hamiltonian matrix: batch-based integration.
  Time summed over all CPUs for integration: real work        0.492 s, elapsed        0.492 s

  Updating Kohn-Sham eigenvalues and eigenvectors using ELSI and the ELPA eigensolver.
  Finished Cholesky decomposition
  | Time :     0.000 s
  Finished transformation to standard eigenproblem
  | Time :     0.000 s
  Starting LAPACK eigensolver
  Finished solving standard eigenproblem
  | Time :     0.002 s
  Finished back-transformation of eigenvectors
  | Time :     0.000 s

[...]
  |   Hirshfeld dipole moment :      0.06673860
  |   Hirshfeld second moments:      0.00234536      -0.01622813      -0.01530810
  |                                 -0.01622813      -0.00832180       0.00808358
  |                                 -0.01530810       0.00808358      -0.02231750
  ----------------------------------------------------------------------
  | Atom    12: O
  |   Hirshfeld charge        :     -0.14085109
  |   Free atom volume        :     23.61338643
  |   Hirshfeld volume        :     20.93946508
  |   Hirshfeld dipole vector :      0.01923025      -0.00286258       0.04247585
  |   Hirshfeld dipole moment :      0.04671397
  |   Hirshfeld second moments:      0.05427291       0.01140844      -0.02164539
  |                                  0.01140844       0.09272142      -0.00810528
  |                                 -0.02164539      -0.00810528       0.02740741
  ----------------------------------------------------------------------
  | Atom    13: H
  |   Hirshfeld charge        :      0.16806333
  |   Free atom volume        :      9.95071624
  |   Hirshfeld volume        :      6.43076987
  |   Hirshfeld dipole vector :     -0.01410587      -0.10189296       0.04596603
  |   Hirshfeld dipole moment :      0.11266778
  |   Hirshfeld second moments:      0.11488497       0.00127591      -0.01552242
  |                                  0.00127591       0.12184670       0.00032078
  |                                 -0.01552242       0.00032078       0.08133613
  ----------------------------------------------------------------------


  Total energy components:
  | Sum of eigenvalues            :        -180.49702465 Ha       -4911.57393874 eV
  | XC energy correction          :         -42.63288639 Ha       -1160.09986387 eV
  | XC potential correction       :          54.81083630 Ha        1491.47874143 eV
  | Free-atom electrostatic energy:        -146.85563652 Ha       -3996.14519123 eV
  | Hartree energy correction     :          -8.32899459 Ha        -226.64347420 eV
  | vdW energy correction         :          -0.00316142 Ha          -0.08602655 eV
  | Entropy correction            :           0.00000000 Ha           0.00000000 eV
  | ---------------------------
  | Total energy                  :        -323.50686725 Ha       -8803.06975317 eV
  | Total energy, T -> 0          :        -323.50686725 Ha       -8803.06975317 eV  <-- do not rely on this value for anything but (periodic) metals
  | Electronic free energy        :        -323.50686725 Ha       -8803.06975317 eV

  Derived energy quantities:
  | Kinetic energy                :         322.55099355 Ha        8777.05910628 eV
  | Electrostatic energy          :        -603.42181299 Ha      -16419.94296903 eV
  | Energy correction for multipole
  | error in Hartree potential    :           0.04295100 Ha           1.16875613 eV
  | Sum of eigenvalues per atom                           :        -377.81337990 eV
  | Total energy (T->0) per atom                          :        -677.15921178 eV  <-- do not rely on this value for anything but (periodic) metals
  | Electronic free energy per atom                       :        -677.15921178 eV

  atomic forces [eV/Ang]:
  -----------------------
  atom #    1
   Hellmann-Feynman              :  0.810027E+00  0.140976E+00  0.547061E+00
   Ionic forces                  :  0.000000E+00  0.000000E+00  0.000000E+00
   Multipole                     :  0.208849E+00  0.455213E+00 -0.342421E+00
   Pulay + GGA                   : -0.140335E+01 -0.391476E+00 -0.919164E+00
   Van der Waals                 :  0.157755E-02  0.560751E-03 -0.135040E-02
   ----------------------------------------------------------------
   Total forces(   1)            : -0.382899E+00  0.205274E+00 -0.715875E+00
  atom #    2
   Hellmann-Feynman              :  0.420318E+00 -0.432535E-01  0.397089E+00
   Ionic forces                  :  0.000000E+00  0.000000E+00  0.000000E+00
   Multipole                     :  0.153767E+00  0.388020E-01 -0.361932E-01
   Pulay + GGA                   : -0.118191E+00  0.201794E-01  0.125218E-01
   Van der Waals                 :  0.890319E-02 -0.578404E-02 -0.161901E-02
   ----------------------------------------------------------------
   Total forces(   2)            :  0.464798E+00  0.994384E-02  0.371798E+00
  atom #    3
   Hellmann-Feynman              : -0.113417E+02 -0.441404E+01  0.739208E+00
   Ionic forces                  :  0.000000E+00  0.000000E+00  0.000000E+00
   Multipole                     : -0.119735E+00  0.982603E-01 -0.878966E+00
   Pulay + GGA                   :  0.112239E+02  0.424254E+01  0.100402E+01
   Van der Waals                 :  0.297962E-02 -0.785148E-02 -0.644328E-02
   ----------------------------------------------------------------
   Total forces(   3)            : -0.234600E+00 -0.810925E-01  0.857823E+00
  atom #    4
   Hellmann-Feynman              :  0.259174E+00  0.385831E-01 -0.110569E+00
   Ionic forces                  :  0.000000E+00  0.000000E+00  0.000000E+00
   Multipole                     :  0.135396E-01  0.592952E-01 -0.965710E-01
   Pulay + GGA                   : -0.875986E-01 -0.194894E+00  0.603746E-01
   Van der Waals                 : -0.379163E-02 -0.523097E-02 -0.489996E-02
   ----------------------------------------------------------------
   Total forces(   4)            :  0.181324E+00 -0.102247E+00 -0.151665E+00
  atom #    5
   Hellmann-Feynman              :  0.136234E+00  0.437903E-01 -0.274033E+00
   Ionic forces                  :  0.000000E+00  0.000000E+00  0.000000E+00
   Multipole                     :  0.480461E-01 -0.143431E-01 -0.115425E+00
   Pulay + GGA                   : -0.202084E+00  0.619780E-01  0.116929E+00
   Van der Waals                 :  0.327601E-03  0.620523E-02 -0.521168E-02
   ----------------------------------------------------------------
   Total forces(   5)            : -0.174757E-01  0.976304E-01 -0.277741E+00
  atom #    6
   Hellmann-Feynman              : -0.303924E+00 -0.623984E+00  0.308757E+00
   Ionic forces                  :  0.000000E+00  0.000000E+00  0.000000E+00
   Multipole                     : -0.578124E-01  0.665126E+00  0.256377E+00
   Pulay + GGA                   :  0.446786E+00 -0.557335E+00 -0.506345E+00
   Van der Waals                 : -0.229631E-02  0.423132E-02 -0.284820E-02
   ----------------------------------------------------------------
   Total forces(   6)            :  0.827538E-01 -0.511961E+00  0.559414E-01
  atom #    7
   Hellmann-Feynman              : -0.218108E+00 -0.334022E-01 -0.421436E-01
   Ionic forces                  :  0.000000E+00  0.000000E+00  0.000000E+00
   Multipole                     : -0.120335E+00  0.477029E-01  0.308911E-01
   Pulay + GGA                   :  0.115098E+00 -0.162637E-01 -0.184757E-01
   Van der Waals                 : -0.224043E-02  0.270651E-02  0.537324E-02
   ----------------------------------------------------------------
   Total forces(   7)            : -0.225586E+00  0.743473E-03 -0.243549E-01
  atom #    8
   Hellmann-Feynman              :  0.711347E-01 -0.421581E-01  0.122375E+00
   Ionic forces                  :  0.000000E+00  0.000000E+00  0.000000E+00
   Multipole                     :  0.169084E-01  0.678925E-01  0.125282E+00
   Pulay + GGA                   : -0.469658E-01 -0.435438E-01 -0.108141E+00
   Van der Waals                 : -0.261715E-02  0.115215E-01  0.959742E-03
   ----------------------------------------------------------------
   Total forces(   8)            :  0.384601E-01 -0.628780E-02  0.140475E+00
  atom #    9
   Hellmann-Feynman              :  0.133082E+00  0.623304E-01 -0.196729E+00
   Ionic forces                  :  0.000000E+00  0.000000E+00  0.000000E+00
   Multipole                     :  0.211438E-01  0.131502E+00 -0.129784E-02
   Pulay + GGA                   : -0.362304E-01 -0.718486E-01  0.759816E-01
   Van der Waals                 : -0.123549E-02  0.621042E-02  0.784837E-02
   ----------------------------------------------------------------
   Total forces(   9)            :  0.116760E+00  0.128194E+00 -0.114197E+00
  atom #   10
   Hellmann-Feynman              :  0.217872E+01  0.518277E+01  0.358724E-01
   Ionic forces                  :  0.000000E+00  0.000000E+00  0.000000E+00
   Multipole                     : -0.671299E-01 -0.282978E+00  0.300968E+00
   Pulay + GGA                   : -0.147951E+01 -0.284612E+01 -0.118588E+00
   Van der Waals                 :  0.108266E-02 -0.114378E-01  0.283891E-02
   ----------------------------------------------------------------
   Total forces(  10)            :  0.633157E+00  0.204223E+01  0.221091E+00
  atom #   11
   Hellmann-Feynman              :  0.418828E+01 -0.249954E+01  0.143551E+02
   Ionic forces                  :  0.000000E+00  0.000000E+00  0.000000E+00
   Multipole                     :  0.132970E+00 -0.509902E+00  0.805668E+00
   Pulay + GGA                   : -0.326017E+01  0.342022E+01 -0.134821E+02
   Van der Waals                 : -0.297670E-02 -0.119830E-01  0.214815E-02
   ----------------------------------------------------------------
   Total forces(  11)            :  0.105811E+01  0.398793E+00  0.168083E+01
  atom #   12
   Hellmann-Feynman              : -0.630826E+01  0.634428E+00 -0.148719E+02
   Ionic forces                  :  0.000000E+00  0.000000E+00  0.000000E+00
   Multipole                     : -0.899873E+00 -0.935929E+00 -0.811007E+00
   Pulay + GGA                   :  0.603597E+01 -0.110349E+01  0.135244E+02
   Van der Waals                 : -0.109512E-02  0.522514E-02  0.608855E-02
   ----------------------------------------------------------------
   Total forces(  12)            : -0.117326E+01 -0.139977E+01 -0.215245E+01
  atom #   13
   Hellmann-Feynman              : -0.568880E+00 -0.102101E+01  0.222899E+00
   Ionic forces                  :  0.000000E+00  0.000000E+00  0.000000E+00
   Multipole                     :  0.142286E-01 -0.589254E-01  0.871200E-01
   Pulay + GGA                   :  0.114698E-01  0.289007E+00 -0.199514E+00
   Van der Waals                 :  0.138221E-02  0.562647E-02 -0.288442E-02
   ----------------------------------------------------------------
   Total forces(  13)            : -0.541799E+00 -0.785304E+00  0.107621E+00

  Timings for VdW correction (Tkatchenko-Scheffler 2009 or later):
  | CPU time:        0.088 s, Wall clock time:        0.089 s.
  Removing unitary transformations (pure translations, rotations) from forces on atoms.
  Atomic forces before filtering:
  | Net force on center of mass :  -0.261068E-03 -0.385041E-02 -0.700418E-03 eV/A
  | Net torque on center of mass:  -0.910612E-02  0.435889E-02  0.420201E-02 eV
  Atomic forces after filtering:
  | Net force on center of mass :   0.267609E-15  0.000000E+00  0.535218E-15 eV/A
  | Net torque on center of mass:   0.188817E-15  0.247822E-15  0.377634E-15 eV

  Energy and forces in a compact form:
  | Total energy uncorrected      :         -0.880306975316769E+04 eV
  | Total energy corrected        :         -0.880306975316769E+04 eV  <-- do not rely on this value for anything but (periodic) metals
  | Electronic free energy        :         -0.880306975316769E+04 eV
  Total atomic forces (unitary forces cleaned) [eV/Ang]:
  |   1         -0.382842946917125E+00          0.205550304899544E+00         -0.715738764188107E+00
  |   2          0.464853837884283E+00          0.100818204047498E-01          0.372114207037802E+00
  |   3         -0.234312386467776E+00         -0.804755681182497E-01          0.857881254076510E+00
  |   4          0.181789192366350E+00         -0.101561289185401E+00         -0.151416844309798E+00
  |   5         -0.171686364543254E-01          0.982787180444248E-01         -0.277693074154034E+00
  |   6          0.828500926331357E-01         -0.511767039125731E+00          0.562470681707688E-01
  |   7         -0.225488551421495E+00          0.107267879384407E-02         -0.242229246277990E-01
  |   8          0.383889273687958E-01         -0.634380628510540E-02          0.140842721323394E+00
  |   9          0.117052813367999E+00          0.128442437433035E+00         -0.113653830020161E+00
  |  10          0.632928511487435E+00          0.204240672880280E+01          0.220907055649010E+00
  |  11          0.105765715425071E+01          0.398708799438466E+00          0.168063831190795E+01
  |  12         -0.117348675149077E+01         -0.139936337414107E+01         -0.215291493671382E+01
  |  13         -0.542221256607212E+00         -0.785030410961307E+00          0.107009755848284E+00

  ------------------------------------ 
  Start decomposition of the XC Energy 
  ------------------------------------ 
  X and C from original XC functional choice 
  Hartree-Fock Energy :          0.000000000 Ha              0.000000000 eV
  X Energy            :        -41.033376456 Ha          -1116.574984075 eV
  C Energy            :         -1.599509933 Ha            -43.524879799 eV
  Total XC Energy     :        -42.632886389 Ha          -1160.099863874 eV
  ------------------------------------ 
  LDA X and C from self-consistent density 
  X Energy LDA        :        -37.251072271 Ha          -1013.653250591 eV
  C Energy LDA        :         -3.138167450 Ha            -85.393881117 eV
  ------------------------------------ 
  End decomposition of the XC Energy 
  ------------------------------------ 

------------------------------------------------------------

------------------------------------------------------------------------------
  Final output of selected total energy values:

  The following output summarizes some interesting total energy values
  at the end of a run (AFTER all relaxation, molecular dynamics, etc.).

  | Total energy of the DFT / Hartree-Fock s.c.f. calculation      :          -8803.069753168 eV
  | Final zero-broadening corrected energy (caution - metals only) :          -8803.069753168 eV
  | For reference only, the value of 1 Hartree used in FHI-aims is :             27.211384500 eV

  Before relying on these values, please be sure to understand exactly which
  total energy value is referred to by a given number. Different objects may
  all carry the same name 'total energy'. Definitions:

  Total energy of the DFT / Hartree-Fock s.c.f. calculation:
  | Note that this energy does not include ANY quantities calculated after the
  | s.c.f. cycle, in particular not ANY RPA, MP2, etc. many-body perturbation terms.

  Final zero-broadening corrected energy:
  | For metallic systems only, a broadening of the occupation numbers at the Fermi
  | level can be extrapolated back to zero broadening by an electron-gas inspired
  | formula. For all systems that are not real metals, this value can be
  | meaningless and should be avoided.

------------------------------------------------------------------------------
  Methods described in the following list of references were used in this FHI-aims run.
  If you publish the results, please make sure to cite these reference if they apply.
  FHI-aims is an academic code, and for our developers (often, Ph.D. students
  and postdocs), scientific credit in the community is essential.
  Thank you for helping us!

  For any use of FHI-aims, please cite:

    Volker Blum, Ralf Gehrke, Felix Hanke, Paula Havu, Ville Havu,
    Xinguo Ren, Karsten Reuter, and Matthias Scheffler
    'Ab initio molecular simulations with numeric atom-centered orbitals'
    Computer Physics Communications 180, 2175-2196 (2009)
    http://dx.doi.org/10.1016/j.cpc.2009.06.022


  The scalable eigensolver library ELPA was used in your run.
  ELPA is essential especially for large systems on hundreds or thousands of CPUs.
  For ELPA, please cite:

    Andreas Marek, Volker Blum, Rainer Johanni, Ville Havu, Bruno Lang,
    Thomas Auckenthaler, Alexander Heinecke, Hans-Joachim Bungartz, and Hermann Lederer,
    'The ELPA Library - Scalable Parallel Eigenvalue Solutions
    for Electronic Structure Theory and Computational Science'
    The Journal of Physics: Condensed Matter 26, 213201 (2014).
    http://dx.doi.org/10.1088/0953-8984/26/21/213201


  The ELSI infrastructure was used in your run to solve the Kohn-Sham electronic structure.
  Please check out http://elsi-interchange.org to learn more.
  If scalability is important for your project, please acknowledge ELSI by citing:

    V. W-z. Yu, F. Corsetti, A. Garcia, W. P. Huhn, M. Jacquelin, W. Jia,
    B. Lange, L. Lin, J. Lu, W. Mi, A. Seifitokaldani, A. Vazquez-Mayagoitia,
    C. Yang, H. Yang, and V. Blum
    'ELSI: A unified software interface for Kohn-Sham electronic structure solvers'
    Computer Physics Communications 222, 267-285 (2018).
    http://dx.doi.org/10.1016/j.cpc.2017.09.007


  For the real-space grid partitioning and parallelization used in this calculation, please cite:

    Ville Havu, Volker Blum, Paula Havu, and Matthias Scheffler,
    'Efficient O(N) integration for all-electron electronic structure calculation'
    'using numerically tabulated basis functions'
    Journal of Computational Physics 228, 8367-8379 (2009).
    http://dx.doi.org/10.1016/j.jcp.2009.08.008

  Of course, there are many other important community references, e.g., those cited in the
  above references. Our list is limited to references that describe implementations in the
  FHI-aims code. The reason is purely practical (length of this list) - please credit others as well.

------------------------------------------------------------
          Leaving FHI-aims.
          Date     :  20200710, Time     :  145949.241

          Computational steps:
          | Number of self-consistency cycles          :           16
          | Number of SCF (re)initializations          :            1

          Detailed time accounting                     :  max(cpu_time)    wall_clock(cpu1)
          | Total time                                 :       22.558 s          22.642 s
          | Preparation time                           :        0.146 s           0.146 s
          | Boundary condition initalization           :        0.000 s           0.001 s
          | Grid partitioning                          :        0.110 s           0.110 s
          | Preloading free-atom quantities on grid    :        0.002 s           0.003 s
          | Free-atom superposition energy             :        0.084 s           0.084 s
          | Total time for integrations                :        8.570 s           8.579 s
          | Total time for solution of K.-S. equations :        0.037 s           0.039 s
          | Total time for density & force components  :        7.053 s           7.062 s
          | Total time for mixing                      :        0.213 s           0.216 s
          | Total time for Hartree multipole update    :        0.141 s           0.151 s
          | Total time for Hartree multipole sum       :        5.807 s           5.818 s
          | Total time for total energy evaluation     :        0.003 s           0.003 s
          | Total time for vdW correction              :        0.088 s           0.089 s

          Partial memory accounting:
          | Residual value for overall tracked memory usage across tasks :           0.000 MB (should be 0.000 MB)
          | Peak values for overall tracked memory usage (after allocating hessian_basis_wave):
          |   Minimum:        1.622 MB (on task 1)
          |   Maximum:        1.622 MB (on task 1)
          |   Average:        1.622 MB
          | Largest tracked array allocation (hessian_basis_wave):
          |   Minimum:        0.794 MB (on task 1)
          |   Maximum:        0.794 MB (on task 1)
          |   Average:        0.794 MB
          Note:  These values currently only include a subset of arrays which are explicitly tracked.
          The "true" memory usage will be greater.

          Have a nice day.
------------------------------------------------------------
