  MPI-parallelism will be employed.
------------------------------------------------------------
          Invoking FHI-aims ...
          Version 171221_1
          Compiled on 2019/09/09 at 14:39:39 on host puhti-login2.bullx.

          When using FHI-aims, please cite the following reference:

          Volker Blum, Ralf Gehrke, Felix Hanke, Paula Havu,
          Ville Havu, Xinguo Ren, Karsten Reuter, and Matthias Scheffler,
          'Ab Initio Molecular Simulations with Numeric Atom-Centered Orbitals',
          Computer Physics Communications 180, 2175-2196 (2009)

          For any questions about FHI-aims, please visit the aimsclub website
          with its forums and wiki. Contributions to both the forums and the
          wiki are warmly encouraged - they are for you, and everyone is welcome there.

------------------------------------------------------------



  Date     :  20200710, Time     :  144733.247
  Time zero on CPU 1             :   0.117030000000000E-01  s.
  Internal wall clock time zero  :           363624453.247  s.

  FHI-aims created a unique identifier for this run for later identification
  aims_uuid : 557BBE76-826C-441E-A9D8-FB394FBDC76D

  Using        1 parallel tasks.
  Task        0 on host r18c45.bullx reporting.

  Performing system and environment tests:
  | Environment variable OMP_NUM_THREADS correctly set to 1.
  | Stacksize not measured: no C compiler
  | Checking for scalapack...
  | Testing pdtran()...
  | All pdtran() tests passed.

  Obtaining array dimensions for all initial allocations:
  
  -----------------------------------------------------------------------
  Parsing control.in (first pass over file, find array dimensions only).
  The contents of control.in will be repeated verbatim below
  unless switched off by setting 'verbatim_writeout .false.' .
  in the first line of control.in .
  -----------------------------------------------------------------------
  
  #########################################################################################
  #
  #  Volker Blum, FHI 2009 : Test run input file control.in for simple H2O
  #
  #########################################################################################
  #
  #  Physical model
  #
    xc                 pbe
    vdw_correction_hirshfeld
    spin               none
    relativistic       none
    charge             0.
  #
  #  SCF convergence
  #
    occupation_type    gaussian 0.01
    mixer              pulay
      n_max_pulay        10
      charge_mix_param   0.2
    sc_accuracy_rho    1E-5
    sc_accuracy_eev    1E-3
    sc_accuracy_etot   1E-6
    sc_accuracy_forces 1E-4
    sc_iter_limit      100
  #
  #  Relaxation
  #
  #  relax_geometry   bfgs 1.e-3
  #
  ################################################################################
  #
  #  FHI-aims code project
  #  VB, Fritz-Haber Institut, 2009
  #
  #  Suggested "light" defaults for H atom (to be pasted into control.in file)
  #  Be sure to double-check any results obtained with these settings for post-processing,
  #  e.g., with the "tight" defaults and larger basis sets.
  #
  ################################################################################
    species        H
  #     global species definitions
      nucleus             1
      mass                1.00794
  #
      l_hartree           4
  #
      cut_pot             3.5  1.5  1.0
      basis_dep_cutoff    1e-4
  #
      radial_base         24 5.0
      radial_multiplier   1
      angular_grids       specified
        division   0.2421   50
        division   0.3822  110
        division   0.4799  194
        division   0.5341  302
  #      division   0.5626  434
  #      division   0.5922  590
  #      division   0.6542  770
  #      division   0.6868 1202
  #      outer_grid  770
        outer_grid  302
  ################################################################################
  #
  #  Definition of "minimal" basis
  #
  ################################################################################
  #     valence basis states
      valence      1  s   1.
  #     ion occupancy
      ion_occ      1  s   0.5
  ################################################################################
  #
  #  Suggested additional basis functions. For production calculations,
  #  uncomment them one after another (the most important basis functions are
  #  listed first).
  #
  #  Basis constructed for dimers: 0.5 A, 0.7 A, 1.0 A, 1.5 A, 2.5 A
  #
  ################################################################################
  #  "First tier" - improvements: -1014.90 meV to -62.69 meV
       hydro 2 s 2.1
       hydro 2 p 3.5
  #  "Second tier" - improvements: -12.89 meV to -1.83 meV
  #     hydro 1 s 0.85
  #     hydro 2 p 3.7
  #     hydro 2 s 1.2
  #     hydro 3 d 7
  #  "Third tier" - improvements: -0.25 meV to -0.12 meV
  #     hydro 4 f 11.2
  #     hydro 3 p 4.8
  #     hydro 4 d 9
  #     hydro 3 s 3.2
  ################################################################################
  #
  #  FHI-aims code project
  #  VB, Fritz-Haber Institut, 2009
  #
  #  Suggested "light" defaults for C atom (to be pasted into control.in file)
  #  Be sure to double-check any results obtained with these settings for post-processing,
  #  e.g., with the "tight" defaults and larger basis sets.
  #
  ################################################################################
    species        C
  #     global species definitions
      nucleus             6
      mass                12.0107
  #
      l_hartree           4
  #
      cut_pot             3.5  1.5  1.0
      basis_dep_cutoff    1e-4
  #
      radial_base         34 5.0
      radial_multiplier   1
      angular_grids specified
        division   0.3326   50
        division   0.5710  110
        division   0.7727  194
        division   0.8772  302
  #      division   0.9334  434
  #      division   0.9625  590
  #      division   0.9924  770
  #      division   1.0230  974
  #      division   1.4589 1202
  #     outer_grid  974
       outer_grid 302
  ################################################################################
  #
  #  Definition of "minimal" basis
  #
  ################################################################################
  #     valence basis states
      valence      2  s   2.
      valence      2  p   2.
  #     ion occupancy
      ion_occ      2  s   1.
      ion_occ      2  p   1.
  ################################################################################
  #
  #  Suggested additional basis functions. For production calculations,
  #  uncomment them one after another (the most important basis functions are
  #  listed first).
  #
  #  Constructed for dimers: 1.0 A, 1.25 A, 1.5 A, 2.0 A, 3.0 A
  #
  ################################################################################
  #  "First tier" - improvements: -1214.57 meV to -155.61 meV
       hydro 2 p 1.7
       hydro 3 d 6
       hydro 2 s 4.9
  #  "Second tier" - improvements: -67.75 meV to -5.23 meV
  #     hydro 4 f 9.8
  #     hydro 3 p 5.2
  #     hydro 3 s 4.3
  #     hydro 5 g 14.4
  #     hydro 3 d 6.2
  #  "Third tier" - improvements: -2.43 meV to -0.60 meV
  #     hydro 2 p 5.6
  #     hydro 2 s 1.4
  #     hydro 3 d 4.9
  #     hydro 4 f 11.2
  #  "Fourth tier" - improvements: -0.39 meV to -0.18 meV
  #     hydro 2 p 2.1
  #     hydro 5 g 16.4
  #     hydro 4 d 13.2
  #     hydro 3 s 13.6
  #     hydro 4 f 17.6
  #  Further basis functions - improvements: -0.08 meV and below
  #     hydro 3 s 2
  #     hydro 3 p 6
  #     hydro 4 d 20
  ################################################################################
  #
  #  FHI-aims code project
  #  VB, Fritz-Haber Institut, 2009
  #
  #  Suggested "light" defaults for N atom (to be pasted into control.in file)
  #  Be sure to double-check any results obtained with these settings for post-processing,
  #  e.g., with the "tight" defaults and larger basis sets.
  #
  ################################################################################
    species        N
  #     global species definitions
      nucleus             7
      mass                14.0067
  #
      l_hartree           4
  #
      cut_pot             3.5  1.5  1.0
      basis_dep_cutoff    1e-4
  #
      radial_base         35 5.0
      radial_multiplier   1
      angular_grids       specified
        division   0.2599   50
        division   0.4601  110
        division   0.5885  194
        division   0.6503  302
  #      division   0.6939  434
  #      division   0.7396  590
  #      division   0.7632  770
  #      division   0.8122  974
  #      division   1.1604 1202
  #      outer_grid  974
        outer_grid  302
  ################################################################################
  #
  #  Definition of "minimal" basis
  #
  ################################################################################
  #     valence basis states
      valence      2  s   2.
      valence      2  p   3.
  #     ion occupancy
      ion_occ      2  s   1.
      ion_occ      2  p   2.
  ################################################################################
  #
  #  Suggested additional basis functions. For production calculations,
  #  uncomment them one after another (the most important basis functions are
  #  listed first).
  #
  #  Constructed for dimers: 1.0 A, 1.1 A, 1.5 A, 2.0 A, 3.0 A
  #
  ################################################################################
  #  "First tier" - improvements: -1193.42 meV to -220.60 meV
       hydro 2 p 1.8
       hydro 3 d 6.8
       hydro 3 s 5.8
  #  "Second tier" - improvements: -80.21 meV to -6.86 meV
  #     hydro 4 f 10.8
  #     hydro 3 p 5.8
  #     hydro 1 s 0.8
  #     hydro 5 g 16
  #     hydro 3 d 4.9
  #  "Third tier" - improvements: -4.29 meV to -0.53 meV
  #     hydro 3 s 16
  #     ionic 2 p auto
  #     hydro 3 d 6.6
  #     hydro 4 f 11.6
  #  "Fourth tier" - improvements: -0.75 meV to -0.25 meV
  #     hydro 2 p 4.5
  #     hydro 2 s 2.4
  #     hydro 5 g 14.4
  #     hydro 4 d 14.4
  #     hydro 4 f 16.8
  # Further basis functions - -0.21 meV and below
  #     hydro 3 p 14.8
  #     hydro 3 s 4.4
  #     hydro 3 d 19.6
  #     hydro 5 g 12.8
  ################################################################################
  #
  #  FHI-aims code project
  #  VB, Fritz-Haber Institut, 2009
  #
  #  Suggested "light" defaults for O atom (to be pasted into control.in file)
  #  Be sure to double-check any results obtained with these settings for post-processing,
  #  e.g., with the "tight" defaults and larger basis sets.
  #
  ################################################################################
    species        O
  #     global species definitions
      nucleus             8
      mass                15.9994
  #
      l_hartree           4
  #
      cut_pot             3.5  1.5  1.0
      basis_dep_cutoff    1e-4
  #
      radial_base         36 5.0
      radial_multiplier   1
       angular_grids specified
        division   0.2659   50
        division   0.4451  110
        division   0.6052  194
        division   0.7543  302
  #      division   0.8014  434
  #      division   0.8507  590
  #      division   0.8762  770
  #      division   0.9023  974
  #      division   1.2339 1202
  #      outer_grid 974
        outer_grid 302
  ################################################################################
  #
  #  Definition of "minimal" basis
  #
  ################################################################################
  #     valence basis states
      valence      2  s   2.
      valence      2  p   4.
  #     ion occupancy
      ion_occ      2  s   1.
      ion_occ      2  p   3.
  ################################################################################
  #
  #  Suggested additional basis functions. For production calculations,
  #  uncomment them one after another (the most important basis functions are
  #  listed first).
  #
  #  Constructed for dimers: 1.0 A, 1.208 A, 1.5 A, 2.0 A, 3.0 A
  #
  ################################################################################
  #  "First tier" - improvements: -699.05 meV to -159.38 meV
       hydro 2 p 1.8
       hydro 3 d 7.6
       hydro 3 s 6.4
  #  "Second tier" - improvements: -49.91 meV to -5.39 meV
  #     hydro 4 f 11.6
  #     hydro 3 p 6.2
  #     hydro 3 d 5.6
  #     hydro 5 g 17.6
  #     hydro 1 s 0.75
  #  "Third tier" - improvements: -2.83 meV to -0.50 meV
  #     ionic 2 p auto
  #     hydro 4 f 10.8
  #     hydro 4 d 4.7
  #     hydro 2 s 6.8
  #  "Fourth tier" - improvements: -0.40 meV to -0.12 meV
  #     hydro 3 p 5
  #     hydro 3 s 3.3
  #     hydro 5 g 15.6
  #     hydro 4 f 17.6
  #     hydro 4 d 14
  # Further basis functions - -0.08 meV and below
  #     hydro 3 s 2.1
  #     hydro 4 d 11.6
  #     hydro 3 p 16
  #     hydro 2 s 17.2
  
  -----------------------------------------------------------------------
  Completed first pass over input file control.in .
  -----------------------------------------------------------------------
  
  
  -----------------------------------------------------------------------
  Parsing geometry.in (first pass over file, find array dimensions only).
  The contents of geometry.in will be repeated verbatim below
  unless switched off by setting 'verbatim_writeout .false.' .
  in the first line of geometry.in .
  -----------------------------------------------------------------------
  
  atom  0.00000 0.00000 0.00000 C
  atom  1.09300 0.00000 0.00000 H
  atom  -0.47961 0.00000 -1.41207 N
  atom  -0.74231 0.95246 -1.66828 H
  atom  0.27250 -0.33117 -2.01272 H
  atom  -0.49584 1.26211 0.72868 C
  atom  -1.58789 1.28919 0.74431 H
  atom  -0.13407 1.27425 1.75947 H
  atom  -0.13407 2.16087 0.22380 H
  atom  -0.39425 -1.28861 0.74398 C
  atom  -0.10189 -1.56493 1.88303 O
  atom  -1.10210 -2.13717 0.06896 O
  atom  -0.39096 -2.75404 -0.17340 H
  
  -----------------------------------------------------------------------
  Completed first pass over input file geometry.in .
  -----------------------------------------------------------------------
  

  Basic array size parameters:
  | Number of species                 :        4
  | Number of atoms                   :       13
  | Max. basis fn. angular momentum   :        2
  | Max. atomic/ionic basis occupied n:        2
  | Max. number of basis fn. types    :        2
  | Max. radial fns per species/type  :        3
  | Max. logarithmic grid size        :     1301
  | Max. radial integration grid size :       36
  | Max. angular integration grid size:      302
  | Max. angular grid division number :        8
  | Radial grid for Hartree potential :     1301
  | Number of spin channels           :        1

------------------------------------------------------------
          Reading file control.in.
------------------------------------------------------------
  XC: Using PBE gradient-corrected functionals.
  Spin treatment: No spin polarisation.
  Non-relativistic treatment of kinetic energy.
  Charge =   0.000000E+00: Neutral system requested explicitly.
  Occupation type: Gaussian broadening, width =   0.100000E-01 eV.
  Using pulay charge density mixing.
  Pulay mixing - number of memorized iterations:   10
  Charge density mixing - mixing parameter:     0.2000
  Convergence accuracy of self-consistent charge density:  0.1000E-04
  Convergence accuracy of sum of eigenvalues:  0.1000E-02
  Convergence accuracy of total energy:  0.1000E-05
  Convergence accuracy of forces:  0.1000E-03
  Maximum number of s.-c. iterations  :   100
 
  Reading configuration options for species H                   .
  | Found nuclear charge :   1.0000
  | Found atomic mass :    1.00794000000000      amu
  | Found l_max for Hartree potential  :   4
  | Found cutoff potl. onset [A], width [A], scale factor :    3.50000    1.50000    1.00000
  | Threshold for basis-dependent cutoff potential is   0.100000E-03
  | Found data for basic radial integration grid :    24 points, outermost radius =    5.000 A
  | Found multiplier for basic radial grid :   1
  | Found angular grid specification: user-specified.
  | Specified grid contains     5 separate shells.
  | Check grid settings after all constraints further below.
  | Found free-atom valence shell :  1 s   1.000
  | No ionic wave fns used. Skipping ion_occ.
  | Found hydrogenic basis function :  2 s   2.100
  | Found hydrogenic basis function :  2 p   3.500
  Species H                   : Missing cutoff potential type.
  Defaulting to exp(1/x)/(1-x)^2 type cutoff potential.
  Species H : No 'logarithmic' tag. Using default grid for free atom:
  | Default logarithmic grid data [bohr] : 0.1000E-03 0.1000E+03 0.1012E+01
  Species H : On-site basis accuracy parameter (for Gram-Schmidt orthonormalisation) not specified.
  Using default value basis_acc =  0.1000000E-03.
  Species H                   : Using default innermost maximum threshold i_radial=  2 for radial functions.
  Species H                   : Default cutoff onset for free atom density etc. : 0.35000000E+01 AA.
  Species H                   : Basic radial grid will be enhanced according to radial_multiplier =   1, to contain    24 grid points.
 
  Reading configuration options for species C                   .
  | Found nuclear charge :   6.0000
  | Found atomic mass :    12.0107000000000      amu
  | Found l_max for Hartree potential  :   4
  | Found cutoff potl. onset [A], width [A], scale factor :    3.50000    1.50000    1.00000
  | Threshold for basis-dependent cutoff potential is   0.100000E-03
  | Found data for basic radial integration grid :    34 points, outermost radius =    5.000 A
  | Found multiplier for basic radial grid :   1
  | Found angular grid specification: user-specified.
  | Specified grid contains     5 separate shells.
  | Check grid settings after all constraints further below.
  | Found free-atom valence shell :  2 s   2.000
  | Found free-atom valence shell :  2 p   2.000
  | No ionic wave fns used. Skipping ion_occ.
  | No ionic wave fns used. Skipping ion_occ.
  | Found hydrogenic basis function :  2 p   1.700
  | Found hydrogenic basis function :  3 d   6.000
  | Found hydrogenic basis function :  2 s   4.900
  Species C                   : Missing cutoff potential type.
  Defaulting to exp(1/x)/(1-x)^2 type cutoff potential.
  Species C : No 'logarithmic' tag. Using default grid for free atom:
  | Default logarithmic grid data [bohr] : 0.1000E-03 0.1000E+03 0.1012E+01
  Species C : On-site basis accuracy parameter (for Gram-Schmidt orthonormalisation) not specified.
  Using default value basis_acc =  0.1000000E-03.
  Species C                   : Using default innermost maximum threshold i_radial=  2 for radial functions.
  Species C                   : Default cutoff onset for free atom density etc. : 0.35000000E+01 AA.
  Species C                   : Basic radial grid will be enhanced according to radial_multiplier =   1, to contain    34 grid points.
 
  Reading configuration options for species N                   .
  | Found nuclear charge :   7.0000
  | Found atomic mass :    14.0067000000000      amu
  | Found l_max for Hartree potential  :   4
  | Found cutoff potl. onset [A], width [A], scale factor :    3.50000    1.50000    1.00000
  | Threshold for basis-dependent cutoff potential is   0.100000E-03
  | Found data for basic radial integration grid :    35 points, outermost radius =    5.000 A
  | Found multiplier for basic radial grid :   1
  | Found angular grid specification: user-specified.
  | Specified grid contains     5 separate shells.
  | Check grid settings after all constraints further below.
  | Found free-atom valence shell :  2 s   2.000
  | Found free-atom valence shell :  2 p   3.000
  | No ionic wave fns used. Skipping ion_occ.
  | No ionic wave fns used. Skipping ion_occ.
  | Found hydrogenic basis function :  2 p   1.800
  | Found hydrogenic basis function :  3 d   6.800
  | Found hydrogenic basis function :  3 s   5.800
  Species N                   : Missing cutoff potential type.
  Defaulting to exp(1/x)/(1-x)^2 type cutoff potential.
  Species N : No 'logarithmic' tag. Using default grid for free atom:
  | Default logarithmic grid data [bohr] : 0.1000E-03 0.1000E+03 0.1012E+01
  Species N : On-site basis accuracy parameter (for Gram-Schmidt orthonormalisation) not specified.
  Using default value basis_acc =  0.1000000E-03.
  Species N                   : Using default innermost maximum threshold i_radial=  2 for radial functions.
  Species N                   : Default cutoff onset for free atom density etc. : 0.35000000E+01 AA.
  Species N                   : Basic radial grid will be enhanced according to radial_multiplier =   1, to contain    35 grid points.
 
  Reading configuration options for species O                   .
  | Found nuclear charge :   8.0000
  | Found atomic mass :    15.9994000000000      amu
  | Found l_max for Hartree potential  :   4
  | Found cutoff potl. onset [A], width [A], scale factor :    3.50000    1.50000    1.00000
  | Threshold for basis-dependent cutoff potential is   0.100000E-03
  | Found data for basic radial integration grid :    36 points, outermost radius =    5.000 A
  | Found multiplier for basic radial grid :   1
  | Found angular grid specification: user-specified.
  | Specified grid contains     5 separate shells.
  | Check grid settings after all constraints further below.
  | Found free-atom valence shell :  2 s   2.000
  | Found free-atom valence shell :  2 p   4.000
  | No ionic wave fns used. Skipping ion_occ.
  | No ionic wave fns used. Skipping ion_occ.
  | Found hydrogenic basis function :  2 p   1.800
  | Found hydrogenic basis function :  3 d   7.600
  | Found hydrogenic basis function :  3 s   6.400
  Species O                   : Missing cutoff potential type.
  Defaulting to exp(1/x)/(1-x)^2 type cutoff potential.
  Species O : No 'logarithmic' tag. Using default grid for free atom:
  | Default logarithmic grid data [bohr] : 0.1000E-03 0.1000E+03 0.1012E+01
  Species O : On-site basis accuracy parameter (for Gram-Schmidt orthonormalisation) not specified.
  Using default value basis_acc =  0.1000000E-03.
  Species O                   : Using default innermost maximum threshold i_radial=  2 for radial functions.
  Species O                   : Default cutoff onset for free atom density etc. : 0.35000000E+01 AA.
  Species O                   : Basic radial grid will be enhanced according to radial_multiplier =   1, to contain    36 grid points.
 
  Finished reading input file 'control.in'. Consistency checks are next.
 
  MPI_IN_PLACE appears to work with this MPI implementation.
  | Keeping use_mpi_in_place .true. (see manual).
  Target number of points in a grid batch is not set. Defaulting to  100
  Method for grid partitioning is not set. Defaulting to parallel hash+maxmin partitioning.
  Batch size limit is not set. Defaulting to    200
  By default, will store active basis functions for each batch.
  If in need of memory, prune_basis_once .false. can be used to disable this option.
  communication_type for Hartree potential was not specified.
  Defaulting to calc_hartree .
  Pulay mixer: Number of initial linear mixing iterations not set.
  Defaulting to    0 iterations.
  Work space size for distributed Hartree potential not set.
  Defaulting to   0.200000E+03 MB.
  Algorithm-dependent basis array size parameters:
  | n_max_pulay                         :       10
  Presetting      1001 iterations before the initial mixing cycle
  is restarted anyway using the sc_init_iter criterion / keyword.
  Presetting a factor      1.000 between actual scf density residual
  and density convergence criterion sc_accuracy_rho below which sc_init_iter
  takes no effect.
  Geometry relaxation not requested: no relaxation will be performed.
  Handling of forces: Unphysical translation and rotation will be removed from forces.
  No accuracy limit for integral partition fn. given. Defaulting to  0.1000E-14.
  No threshold value for u(r) in integrations given. Defaulting to  0.1000E-05.
  No accuracy for occupation numbers given. Defaulting to  0.1000E-12.
  No threshold value for occupation numbers given. Defaulting to  0.0000E+00.
  No accuracy for fermi level given. Defaulting to  0.1000E-19.
  Maximum # of iterations to find E_F not set. Defaulting to  200.
  Preferred method for the eigenvalue solver ('KS_method') not specified in 'control.in'.
  Defaulting to serial version, 'lapack_fast'.
  Will not use alltoall communication since running on < 1024 CPUs.
  Threshold for basis singularities not set.
  Default threshold for basis singularities:  0.1000E-04
  partition_type (choice of integration weights) for integrals was not specified.
  | Using a version of the partition function of Stratmann and coworkers ('stratmann_smoother').
  | At each grid point, the set of atoms used to build the partition table is smoothly restricted to
  | only those atoms whose free-atom density would be non-zero at that grid point.
  Partitioning for Hartree potential was not defined. Using partition_type for integrals.
  | Adjusted default value of keyword multip_moments_threshold to:       0.10000000E-11
  | This value may affect high angular momentum components of the Hartree potential in periodic systems.
  No q(lm)/r^(l+1) cutoff set for long-range Hartree potential.
  | Using default value of  0.100000E-09 .
  | Verify using the multipole_threshold keyword.
  Defaulting to new monopole extrapolation.
  Density update method: automatic selection selected.
------------------------------------------------------------


------------------------------------------------------------
          Reading geometry description geometry.in.
------------------------------------------------------------
  Input structure read successfully.
  The structure contains       13 atoms,  and a total of         48.000 electrons.

  Input geometry:
  | No unit cell requested.
  | Atomic structure:
  |       Atom                x [A]            y [A]            z [A]
  |    1: Species C             0.00000000        0.00000000        0.00000000
  |    2: Species H             1.09300000        0.00000000        0.00000000
  |    3: Species N            -0.47961000        0.00000000       -1.41207000
  |    4: Species H            -0.74231000        0.95246000       -1.66828000
  |    5: Species H             0.27250000       -0.33117000       -2.01272000
  |    6: Species C            -0.49584000        1.26211000        0.72868000
  |    7: Species H            -1.58789000        1.28919000        0.74431000
  |    8: Species H            -0.13407000        1.27425000        1.75947000
  |    9: Species H            -0.13407000        2.16087000        0.22380000
  |   10: Species C            -0.39425000       -1.28861000        0.74398000
  |   11: Species O            -0.10189000       -1.56493000        1.88303000
  |   12: Species O            -1.10210000       -2.13717000        0.06896000
  |   13: Species H            -0.39096000       -2.75404000       -0.17340000
  |

  | The smallest distance between any two atoms is         0.97210445 AA.
  |
  | The first atom of this pair is atom number                     12 .
  | The second atom of this pair is atom number                    13 .

  Number of empty states per atom not set in control.in - providing a guess from actual geometry.
  | Total number of empty states used during s.c.f. cycle:       29
  If you use a very high smearing, use empty_states (per atom!) in control.in to increase this value.

  Structure-dependent array size parameters: 
  | Maximum number of distinct radial functions  :       21
  | Maximum number of basis functions            :      119
  | Number of Kohn-Sham states (occupied + empty):       53
------------------------------------------------------------

------------------------------------------------------------
          Preparing all fixed parts of the calculation.
------------------------------------------------------------
  Determining machine precision:
    2.225073858507201E-308
  Setting up grids for atomic and cluster calculations.

  Creating wave function, potential, and density for free atoms.

  Species: H

  List of occupied orbitals and eigenvalues:
    n    l              occ      energy [Ha]    energy [eV]
    1    0           1.0000        -0.237589        -6.4651


  Species: C

  List of occupied orbitals and eigenvalues:
    n    l              occ      energy [Ha]    energy [eV]
    1    0           2.0000       -10.038835      -273.1706
    2    0           2.0000        -0.502696       -13.6791
    2    1           2.0000        -0.191971        -5.2238


  Species: N

  List of occupied orbitals and eigenvalues:
    n    l              occ      energy [Ha]    energy [eV]
    1    0           2.0000       -14.128000      -384.4424
    2    0           2.0000        -0.681077       -18.5330
    2    1           3.0000        -0.259788        -7.0692


  Species: O

  List of occupied orbitals and eigenvalues:
    n    l              occ      energy [Ha]    energy [eV]
    1    0           2.0000       -18.898188      -514.2459
    2    0           2.0000        -0.878505       -23.9053
    2    1           4.0000        -0.331779        -9.0282

  Creating fixed part of basis set: Ionic, confined, hydrogenic.
 
  H                    hydrogenic:
 
  List of hydrogenic basis orbitals: 
    n    l      effective z      eigenvalue [eV]  inner max. [A]     outer max. [A]     outer radius [A]   
    2    0         2.100000       -14.9728           0.193243           1.317208           4.583499
    2    1         3.500000       -41.6669           0.602369           0.602369           3.723403
 
 
  C                    hydrogenic:
 
  List of hydrogenic basis orbitals: 
    n    l      effective z      eigenvalue [eV]  inner max. [A]     outer max. [A]     outer radius [A]   
    2    1         1.700000        -9.7616           1.230570           1.230570           4.607917
    3    2         6.000000       -54.4224           0.792453           0.792453           3.883070
    2    0         4.900000       -81.6679           0.082559           0.562749           3.078220
 
 
  N                    hydrogenic:
 
  List of hydrogenic basis orbitals: 
    n    l      effective z      eigenvalue [eV]  inner max. [A]     outer max. [A]     outer radius [A]   
    2    1         1.800000       -10.9749           1.177451           1.177451           4.573712
    3    2         6.800000       -69.9026           0.704619           0.704619           3.538137
    3    0         5.800000       -50.8545           0.067388           1.191934           4.250239
 
 
  O                    hydrogenic:
 
  List of hydrogenic basis orbitals: 
    n    l      effective z      eigenvalue [eV]  inner max. [A]     outer max. [A]     outer radius [A]   
    2    1         1.800000       -10.9749           1.164242           1.164242           4.578029
    3    2         7.600000       -87.3180           0.624125           0.624125           3.251020
    3    0         6.400000       -61.9207           0.061167           1.081902           4.001998
 

  Adding cutoff potential to free-atom effective potential.
  Creating atomic-like basis functions for current effective potential.

  Species H                   :

  List of atomic basis orbitals and eigenvalues:
    n    l      energy [Ha]    energy [eV]    outer radius [A]
    1    0        -0.237589        -6.4651       4.527807


  Species C                   :

  List of atomic basis orbitals and eigenvalues:
    n    l      energy [Ha]    energy [eV]    outer radius [A]
    1    0       -10.038835      -273.1706       1.934409
    2    0        -0.502696       -13.6791       4.496620
    2    1        -0.191971        -5.2238       4.551928


  Species N                   :

  List of atomic basis orbitals and eigenvalues:
    n    l      energy [Ha]    energy [eV]    outer radius [A]
    1    0       -14.128000      -384.4424       1.637919
    2    0        -0.681077       -18.5330       4.463241
    2    1        -0.259788        -7.0692       4.518138


  Species O                   :

  List of atomic basis orbitals and eigenvalues:
    n    l      energy [Ha]    energy [eV]    outer radius [A]
    1    0       -18.898188      -514.2459       1.415765
    2    0        -0.878505       -23.9053       4.413171
    2    1        -0.331779        -9.0282       4.522403

  Assembling full basis from fixed parts.
  | Species H :   atomic orbital   1 s accepted.
  | Species H :    hydro orbital   2 s accepted.
  | Species H :    hydro orbital   2 p accepted.
  | Species C :   atomic orbital   1 s accepted.
  | Species C :    hydro orbital   2 s accepted.
  | Species C :   atomic orbital   2 s accepted.
  | Species C :   atomic orbital   2 p accepted.
  | Species C :    hydro orbital   2 p accepted.
  | Species C :    hydro orbital   3 d accepted.
  | Species N :   atomic orbital   1 s accepted.
  | Species N :    hydro orbital   3 s accepted.
  | Species N :   atomic orbital   2 s accepted.
  | Species N :   atomic orbital   2 p accepted.
  | Species N :    hydro orbital   2 p accepted.
  | Species N :    hydro orbital   3 d accepted.
  | Species O :   atomic orbital   1 s accepted.
  | Species O :    hydro orbital   3 s accepted.
  | Species O :   atomic orbital   2 s accepted.
  | Species O :   atomic orbital   2 p accepted.
  | Species O :    hydro orbital   2 p accepted.
  | Species O :    hydro orbital   3 d accepted.
 
  Basis size parameters after reduction:
  | Total number of radial functions:       21
  | Total number of basis functions :      119
 
  Per-task memory consumption for arrays in subroutine allocate_ext:
  |           5.250512MB.
  Testing on-site integration grid accuracy.
  |  Species  Function  <phi|h_atom|phi> (log., in eV)  <phi|h_atom|phi> (rad., in eV)
           1        1                 -6.4663192853                 -6.4651273558
           1        2                 13.7111246313                 13.7170609718
           1        3                 25.2673269279                 25.2674696378
           2        4               -273.1705927641               -273.1705631568
           2        5                -10.7109323383                -10.7107120029
           2        6                 17.4381822266                 17.4352413244
           2        7                 -5.2255326521                 -5.2270484734
           2        8                  8.6835629259                  8.6603288385
           2        9                 27.4952418996                 27.4953360207
           3       10               -384.4424306495               -384.4423701208
           3       11                 12.5842251816                 12.5842222903
           3       12                -15.7264628251                -15.7264433455
           3       13                 -7.0696854293                 -7.0701769954
           3       14                  8.8090390882                  8.7901077751
           3       15                 35.9586762123                 35.9588528632
           4       16               -514.2458688638               -514.2457643834
           4       17                 15.1795651126                 15.1795290741
           4       18                -21.5359799773                -21.5360846186
           4       19                 -9.0283069236                 -9.0284644067
           4       20                  8.3027758564                  8.2834874195
           4       21                 45.8339351984                 45.8338762259

  Preparing densities etc. for the partition functions (integrals / Hartree potential).

  Preparations completed.
  max(cpu_time)          :      0.146 s.
  Wall clock time (cpu1) :      0.147 s.
------------------------------------------------------------

------------------------------------------------------------
          Begin self-consistency loop: Initialization.

          Date     :  20200710, Time     :  144733.408
------------------------------------------------------------

  Initializing index lists of integration centers etc. from given atomic structure:
  | Number of centers in hartree potential         :        13
  | Number of centers in hartree multipole         :        13
  | Number of centers in electron density summation:        13
  | Number of centers in basis integrals           :        13
  | Number of centers in integrals                 :        13
  | Number of centers in hamiltonian               :        13
  Partitioning the integration grid into batches with parallel hashing+maxmin method.
  | Number of batches:      956
  | Maximal batch size:     139
  | Minimal batch size:      66
  | Average batch size:      72.851
  | Standard deviation of batch sizes:      17.504

  Integration load balanced across     1 MPI tasks.
  Work distribution over tasks is as follows:
  Task     0 has      69646 integration points.
  Initializing partition tables, free-atom densities, potentials, etc. across the integration grid (initialize_grid_storage).
  | initialize_grid_storage: Actual outermost partition radius vs. multipole_radius_free
  | (-- VB: in principle, multipole_radius_free should be larger, hence this output)
  | Species        1: Confinement radius =              4.999999999999999 AA, multipole_radius_free =              5.054417573612229 AA.
  | Species        1: outer_partition_radius set to              5.054417573612229 AA .
  | Species        2: Confinement radius =              4.999999999999999 AA, multipole_radius_free =              5.019602836301480 AA.
  | Species        2: outer_partition_radius set to              5.019602836301480 AA .
  | Species        3: Confinement radius =              4.999999999999999 AA, multipole_radius_free =              5.043624274424571 AA.
  | Species        3: outer_partition_radius set to              5.043624274424571 AA .
  | Species        4: Confinement radius =              4.999999999999999 AA, multipole_radius_free =              5.048384829883283 AA.
  | Species        4: outer_partition_radius set to              5.048384829883283 AA .
  | Original list of interatomic distances with          13 x         13 entries is created.
  | Net number of integration points:    69646
  | of which are non-zero points    :    59582
  Renormalizing the initial density to the exact electron count on the 3D integration grid.
  | Initial density: Formal number of electrons (from input files) :      48.0000000000
  | Integrated number of electrons on 3D grid     :      47.9998515028
  | Charge integration error                      :      -0.0001484972
  | Normalization factor for density and gradient :       1.0000030937
  Obtaining max. number of non-zero basis functions in each batch (get_n_compute_maxes).
  | Maximal number of non-zero basis functions:      119 in task     0
  Selecting the method for density update.
  Loop over occupied states selected for charge density update.
  Allocating        0.050 MB for KS_eigenvector
  Integrating Hamiltonian matrix: batch-based integration.
  Time summed over all CPUs for integration: real work        0.491 s, elapsed        0.491 s
  Integrating overlap matrix.
  Time summed over all CPUs for integration: real work        0.210 s, elapsed        0.210 s

  Updating Kohn-Sham eigenvalues and eigenvectors using ELSI and the ELPA eigensolver.
  Overlap matrix is nonsingular
  | Lowest eigenvalue of overlap  :  0.45E-02
  | Highest eigenvalue of overlap :  0.61E+01
  Finished singularity check of overlap matrix
  | Time :     0.002 s
  Finished Cholesky decomposition
  | Time :     0.000 s
  Finished transformation to standard eigenproblem
  | Time :     0.000 s
  Starting LAPACK eigensolver
  Finished solving standard eigenproblem
  | Time :     0.002 s
  Finished back-transformation of eigenvectors
  | Time :     0.000 s

  Obtaining occupation numbers and chemical potential using ELSI.
  | Chemical potential (Fermi level):    -9.76366244eV
  Writing Kohn-Sham eigenvalues.

  State    Occupation    Eigenvalue [Ha]    Eigenvalue [eV]
      1       2.00000         -19.007498         -517.22034
      2       2.00000         -18.977395         -516.40120
      3       2.00000         -14.245814         -387.64831
      4       2.00000         -10.166862         -276.65439
      5       2.00000         -10.141296         -275.95872
      6       2.00000         -10.131894         -275.70288
      7       2.00000          -1.183730          -32.21092
      8       2.00000          -1.096179          -29.82854
      9       2.00000          -0.991686          -26.98514
     10       2.00000          -0.859831          -23.39719
     11       2.00000          -0.758086          -20.62858
     12       2.00000          -0.680401          -18.51467
     13       2.00000          -0.622252          -16.93233
     14       2.00000          -0.599663          -16.31765
     15       2.00000          -0.592361          -16.11895
     16       2.00000          -0.578661          -15.74616
     17       2.00000          -0.554833          -15.09778
     18       2.00000          -0.530338          -14.43124
     19       2.00000          -0.515788          -14.03530
     20       2.00000          -0.497685          -13.54270
     21       2.00000          -0.458470          -12.47560
     22       2.00000          -0.428882          -11.67047
     23       2.00000          -0.410231          -11.16296
     24       2.00000          -0.379813          -10.33525
     25       0.00000          -0.162898           -4.43267
     26       0.00000          -0.065240           -1.77528
     27       0.00000          -0.029080           -0.79131
     28       0.00000          -0.026386           -0.71801
     29       0.00000          -0.003519           -0.09577
     30       0.00000           0.005577            0.15175
     31       0.00000           0.020800            0.56599
     32       0.00000           0.028765            0.78273
     33       0.00000           0.036236            0.98604
     34       0.00000           0.081577            2.21983
     35       0.00000           0.091102            2.47901
     36       0.00000           0.133520            3.63326
     37       0.00000           0.160256            4.36078
     38       0.00000           0.196345            5.34283
     39       0.00000           0.214732            5.84316
     40       0.00000           0.232922            6.33812
     41       0.00000           0.251098            6.83271
     42       0.00000           0.267558            7.28061
     43       0.00000           0.287055            7.81116
     44       0.00000           0.307385            8.36438
     45       0.00000           0.343918            9.35849
     46       0.00000           0.364773            9.92599
     47       0.00000           0.381330           10.37651
     48       0.00000           0.389738           10.60531
     49       0.00000           0.410906           11.18133
     50       0.00000           0.477540           12.99451
     51       0.00000           0.503429           13.69899
     52       0.00000           0.542672           14.76685
     53       0.00000           0.558341           15.19322

  Highest occupied state (VBM) at    -10.33525033 eV
  | Occupation number:      2.00000000

  Lowest unoccupied state (CBM) at    -4.43266904 eV
  | Occupation number:      0.00000000

  Overall HOMO-LUMO gap:      5.90258128 eV.
  Calculating total energy contributions from superposition of free atom densities.

  Total energy components:
  | Sum of eigenvalues            :        -188.81929850 Ha       -5138.03453237 eV
  | XC energy correction          :         -41.78324634 Ha       -1136.97998184 eV
  | XC potential correction       :          53.71237838 Ha        1461.58818063 eV
  | Free-atom electrostatic energy:        -146.86637638 Ha       -3996.43743772 eV
  | Hartree energy correction     :           0.00000000 Ha           0.00000000 eV
  | vdW energy correction         :           0.00000000 Ha           0.00000000 eV
  | Entropy correction            :           0.00000000 Ha           0.00000000 eV
  | ---------------------------
  | Total energy                  :        -323.75654283 Ha       -8809.86377130 eV
  | Total energy, T -> 0          :        -323.75654283 Ha       -8809.86377130 eV  <-- do not rely on this value for anything but (periodic) metals
  | Electronic free energy        :        -323.75654283 Ha       -8809.86377130 eV

  Derived energy quantities:
  | Kinetic energy                :         320.48837911 Ha        8720.93251163 eV
  | Electrostatic energy          :        -602.46167559 Ha      -16393.81630108 eV
  | Energy correction for multipole
  | error in Hartree potential    :           0.00000000 Ha           0.00000000 eV
  | Sum of eigenvalues per atom                           :        -395.23342557 eV
  | Total energy (T->0) per atom                          :        -677.68182856 eV  <-- do not rely on this value for anything but (periodic) metals
  | Electronic free energy per atom                       :        -677.68182856 eV
  Initialize hartree_potential_storage
  Max. number of atoms included in rho_multipole:           13

  End scf initialization - timings             :  max(cpu_time)    wall_clock(cpu1)
  | Time for scf. initialization               :        1.145 s           1.147 s
  | Boundary condition initialization          :        0.000 s           0.000 s
  | Integration                                :        0.702 s           0.702 s
  | Solution of K.-S. eqns.                    :        0.004 s           0.004 s
  | Grid partitioning                          :        0.112 s           0.113 s
  | Preloading free-atom quantities on grid    :        0.003 s           0.003 s
  | Free-atom superposition energy             :        0.085 s           0.085 s
  | Total energy evaluation                    :        0.000 s           0.000 s

  Partial memory accounting:
  | Current value for overall tracked memory usage on task 0  :           0.165 MB
  | Peak value for overall tracked memory usage on task 0     :           0.678 MB after allocating wave
  | Largest tracked array allocation on task 0 so far         :           0.132 MB  when allocating H_times_psi
  Note:  These values currently only include a subset of arrays which are explicitly tracked.
  The "true" memory usage will be greater.
------------------------------------------------------------

------------------------------------------------------------
          Begin self-consistency iteration #    1

  Date     :  20200710, Time     :  144734.555
------------------------------------------------------------
  Evaluating new KS density.
  Integration grid: deviation in total charge (<rho> - N_e) =   4.973799E-14
  Pulay mixing of updated and previous charge densities.

  Evaluating partitioned Hartree potential by multipole expansion.
  | Analytical far-field extrapolation by fixed multipoles:
  | Hartree multipole sum: apparent total charge =  -0.251965E-03
  Summing up the Hartree potential.
  Time summed over all CPUs for potential: real work        0.284 s, elapsed        0.284 s
  | RMS charge density error from multipole expansion :   0.587506E-02

  Integrating Hamiltonian matrix: batch-based integration.
  Time summed over all CPUs for integration: real work        0.491 s, elapsed        0.491 s

  Updating Kohn-Sham eigenvalues and eigenvectors using ELSI and the ELPA eigensolver.
  Finished Cholesky decomposition
  | Time :     0.000 s
  Finished transformation to standard eigenproblem
  | Time :     0.000 s
  Starting LAPACK eigensolver
  Finished solving standard eigenproblem
  | Time :     0.002 s
  Finished back-transformation of eigenvectors
  | Time :     0.000 s

  Obtaining occupation numbers and chemical potential using ELSI.
  | Chemical potential (Fermi level):    -4.57025799eV
  Writing Kohn-Sham eigenvalues.

  State    Occupation    Eigenvalue [Ha]    Eigenvalue [eV]
      1       2.00000         -18.889754         -514.01636
      2       2.00000         -18.838591         -512.62414
      3       2.00000         -14.095843         -383.56741
      4       2.00000         -10.114295         -275.22396
      5       2.00000         -10.062687         -273.81964
      6       2.00000         -10.032854         -273.00785
      7       2.00000          -1.129291          -30.72956
      8       2.00000          -1.030890          -28.05195
      9       2.00000          -0.921733          -25.08164
     10       2.00000          -0.794047          -21.60711
     11       2.00000          -0.705631          -19.20120
     12       2.00000          -0.632534          -17.21212
     13       2.00000          -0.559982          -15.23788
     14       2.00000          -0.545598          -14.84647
     15       2.00000          -0.530371          -14.43212
     16       2.00000          -0.520787          -14.17133
     17       2.00000          -0.490597          -13.34983
     18       2.00000          -0.469559          -12.77736
     19       2.00000          -0.451198          -12.27772
     20       2.00000          -0.439254          -11.95270
     21       2.00000          -0.395186          -10.75357
     22       2.00000          -0.366593           -9.97550
     23       2.00000          -0.337256           -9.17719
     24       2.00000          -0.307354           -8.36354
     25       0.00000          -0.126143           -3.43254
     26       0.00000          -0.041937           -1.14117
     27       0.00000          -0.007302           -0.19869
     28       0.00000           0.013969            0.38011
     29       0.00000           0.026301            0.71569
     30       0.00000           0.044531            1.21176
     31       0.00000           0.058723            1.59795
     32       0.00000           0.068678            1.86884
     33       0.00000           0.075783            2.06216
     34       0.00000           0.121591            3.30866
     35       0.00000           0.131998            3.59184
     36       0.00000           0.162830            4.43083
     37       0.00000           0.188778            5.13690
     38       0.00000           0.225796            6.14421
     39       0.00000           0.249117            6.77883
     40       0.00000           0.268336            7.30180
     41       0.00000           0.287424            7.82121
     42       0.00000           0.306071            8.32861
     43       0.00000           0.321557            8.75001
     44       0.00000           0.342355            9.31596
     45       0.00000           0.385669           10.49457
     46       0.00000           0.409883           11.15349
     47       0.00000           0.421260           11.46306
     48       0.00000           0.425536           11.57943
     49       0.00000           0.447936           12.18897
     50       0.00000           0.513400           13.97031
     51       0.00000           0.542726           14.76834
     52       0.00000           0.578430           15.73987
     53       0.00000           0.593095           16.13893

  Highest occupied state (VBM) at     -8.36353612 eV
  | Occupation number:      2.00000000

  Lowest unoccupied state (CBM) at    -3.43253700 eV
  | Occupation number:      0.00000000

  Overall HOMO-LUMO gap:      4.93099913 eV.

  Total energy components:
  | Sum of eigenvalues            :        -185.32376684 Ha       -5042.91627638 eV
  | XC energy correction          :         -42.11526358 Ha       -1146.01463060 eV
  | XC potential correction       :          54.14429585 Ha        1473.34125284 eV
  | Free-atom electrostatic energy:        -146.86637638 Ha       -3996.43743772 eV
  | Hartree energy correction     :          -3.40878794 Ha         -92.75783928 eV
  | vdW energy correction         :           0.00000000 Ha           0.00000000 eV
  | Entropy correction            :           0.00000000 Ha           0.00000000 eV
  | ---------------------------
  | Total energy                  :        -323.56989888 Ha       -8804.78493114 eV
  | Total energy, T -> 0          :        -323.56989888 Ha       -8804.78493114 eV  <-- do not rely on this value for anything but (periodic) metals
  | Electronic free energy        :        -323.56989888 Ha       -8804.78493114 eV

  Derived energy quantities:
  | Kinetic energy                :         322.30229937 Ha        8770.29179349 eV
  | Electrostatic energy          :        -603.75693468 Ha      -16429.06209403 eV
  | Energy correction for multipole
  | error in Hartree potential    :           0.01223055 Ha           0.33281011 eV
  | Sum of eigenvalues per atom                           :        -387.91663664 eV
  | Total energy (T->0) per atom                          :        -677.29114855 eV  <-- do not rely on this value for anything but (periodic) metals
  | Electronic free energy per atom                       :        -677.29114855 eV

  Self-consistency convergence accuracy:
  | Change of charge density      :  0.5906E+00
  | Change of sum of eigenvalues  :  0.9512E+02 eV
  | Change of total energy        :  0.5079E+01 eV

  End self-consistency iteration #     1       :  max(cpu_time)    wall_clock(cpu1)
  | Time for this iteration                    :        1.186 s           1.187 s
  | Charge density update                      :        0.393 s           0.394 s
  | Density mixing                             :        0.006 s           0.005 s
  | Hartree multipole update                   :        0.009 s           0.009 s
  | Hartree multipole summation                :        0.285 s           0.286 s
  | Integration                                :        0.491 s           0.491 s
  | Solution of K.-S. eqns.                    :        0.002 s           0.002 s
  | Total energy evaluation                    :        0.000 s           0.000 s

  Partial memory accounting:
  | Current value for overall tracked memory usage on task 0  :           0.165 MB
  | Peak value for overall tracked memory usage on task 0     :           0.695 MB after allocating gradient_basis_wave
  | Largest tracked array allocation on task 0 so far         :           0.397 MB  when allocating gradient_basis_wave
  Note:  These values currently only include a subset of arrays which are explicitly tracked.
  The "true" memory usage will be greater.
------------------------------------------------------------

------------------------------------------------------------
          Begin self-consistency iteration #    2

  Date     :  20200710, Time     :  144735.745
------------------------------------------------------------
  Evaluating new KS density.
  Integration grid: deviation in total charge (<rho> - N_e) =   6.394885E-14
  Pulay mixing of updated and previous charge densities.

  Evaluating partitioned Hartree potential by multipole expansion.
  | Analytical far-field extrapolation by fixed multipoles:
  | Hartree multipole sum: apparent total charge =  -0.383441E-03
  Summing up the Hartree potential.
  Time summed over all CPUs for potential: real work        0.284 s, elapsed        0.284 s
  | RMS charge density error from multipole expansion :   0.138802E-01

  Integrating Hamiltonian matrix: batch-based integration.
  Time summed over all CPUs for integration: real work        0.491 s, elapsed        0.491 s

  Updating Kohn-Sham eigenvalues and eigenvectors using ELSI and the ELPA eigensolver.
  Finished Cholesky decomposition
  | Time :     0.000 s
  Finished transformation to standard eigenproblem
  | Time :     0.000 s
  Starting LAPACK eigensolver
  Finished solving standard eigenproblem
  | Time :     0.001 s
  Finished back-transformation of eigenvectors
  | Time :     0.000 s

  Obtaining occupation numbers and chemical potential using ELSI.
  | Chemical potential (Fermi level):    -3.31329800eV
  Highest occupied state (VBM) at     -6.37729987 eV
  | Occupation number:      2.00000000

  Lowest unoccupied state (CBM) at    -2.18173681 eV
  | Occupation number:      0.00000000

  Overall HOMO-LUMO gap:      4.19556306 eV.

  Checking to see if s.c.f. parameters should be adjusted.

  Total energy components:
  | Sum of eigenvalues            :        -181.67566479 Ha       -4943.64636888 eV
  | XC energy correction          :         -42.47566672 Ha       -1155.82169892 eV
  | XC potential correction       :          54.61161102 Ha        1486.05754550 eV
  | Free-atom electrostatic energy:        -146.86637638 Ha       -3996.43743772 eV
  | Hartree energy correction     :          -7.08319297 Ha        -192.74348738 eV
  | vdW energy correction         :           0.00000000 Ha           0.00000000 eV
  | Entropy correction            :           0.00000000 Ha           0.00000000 eV
  | ---------------------------
  | Total energy                  :        -323.48928984 Ha       -8802.59144740 eV
  | Total energy, T -> 0          :        -323.48928984 Ha       -8802.59144740 eV  <-- do not rely on this value for anything but (periodic) metals
  | Electronic free energy        :        -323.48928984 Ha       -8802.59144740 eV

  Derived energy quantities:
  | Kinetic energy                :         323.62013710 Ha        8806.15198268 eV
  | Electrostatic energy          :        -604.63376022 Ha      -16452.92173116 eV
  | Energy correction for multipole
  | error in Hartree potential    :           0.02680418 Ha           0.72937875 eV
  | Sum of eigenvalues per atom                           :        -380.28048991 eV
  | Total energy (T->0) per atom                          :        -677.12241903 eV  <-- do not rely on this value for anything but (periodic) metals
  | Electronic free energy per atom                       :        -677.12241903 eV

  Self-consistency convergence accuracy:
  | Change of charge density      :  0.3691E+00
  | Change of sum of eigenvalues  :  0.9927E+02 eV
  | Change of total energy        :  0.2193E+01 eV

  End self-consistency iteration #     2       :  max(cpu_time)    wall_clock(cpu1)
  | Time for this iteration                    :        1.179 s           1.179 s
  | Charge density update                      :        0.385 s           0.385 s
  | Density mixing                             :        0.007 s           0.007 s
  | Hartree multipole update                   :        0.009 s           0.009 s
  | Hartree multipole summation                :        0.285 s           0.285 s
  | Integration                                :        0.491 s           0.491 s
  | Solution of K.-S. eqns.                    :        0.002 s           0.002 s
  | Total energy evaluation                    :        0.000 s           0.000 s

  Partial memory accounting:
  | Current value for overall tracked memory usage on task 0  :           0.166 MB
  | Peak value for overall tracked memory usage on task 0     :           0.695 MB after allocating gradient_basis_wave
  | Largest tracked array allocation on task 0 so far         :           0.397 MB  when allocating gradient_basis_wave
  Note:  These values currently only include a subset of arrays which are explicitly tracked.
  The "true" memory usage will be greater.
------------------------------------------------------------

------------------------------------------------------------
          Begin self-consistency iteration #    3

  Date     :  20200710, Time     :  144736.925
------------------------------------------------------------
  Evaluating new KS density.
  Integration grid: deviation in total charge (<rho> - N_e) =   7.105427E-15
  Pulay mixing of updated and previous charge densities.

  Evaluating partitioned Hartree potential by multipole expansion.
  | Analytical far-field extrapolation by fixed multipoles:
  | Hartree multipole sum: apparent total charge =  -0.477730E-03
  Summing up the Hartree potential.
  Time summed over all CPUs for potential: real work        0.284 s, elapsed        0.284 s
  | RMS charge density error from multipole expansion :   0.218756E-01

  Integrating Hamiltonian matrix: batch-based integration.
  Time summed over all CPUs for integration: real work        0.490 s, elapsed        0.490 s

  Updating Kohn-Sham eigenvalues and eigenvectors using ELSI and the ELPA eigensolver.
  Finished Cholesky decomposition
  | Time :     0.000 s
  Finished transformation to standard eigenproblem
  | Time :     0.000 s
  Starting LAPACK eigensolver
  Finished solving standard eigenproblem
  | Time :     0.001 s
  Finished back-transformation of eigenvectors
  | Time :     0.000 s

  Obtaining occupation numbers and chemical potential using ELSI.
  | Chemical potential (Fermi level):    -2.63523375eV
  Highest occupied state (VBM) at     -5.68361950 eV
  | Occupation number:      2.00000000

  Lowest unoccupied state (CBM) at    -1.48555698 eV
  | Occupation number:      0.00000000

  Overall HOMO-LUMO gap:      4.19806252 eV.

  Total energy components:
  | Sum of eigenvalues            :        -180.33997370 Ha       -4907.30036513 eV
  | XC energy correction          :         -42.62749349 Ha       -1159.95311560 eV
  | XC potential correction       :          54.80532852 Ha        1491.32886693 eV
  | Free-atom electrostatic energy:        -146.86637638 Ha       -3996.43743772 eV
  | Hartree energy correction     :          -8.44703183 Ha        -229.85543097 eV
  | vdW energy correction         :           0.00000000 Ha           0.00000000 eV
  | Entropy correction            :           0.00000000 Ha           0.00000000 eV
  | ---------------------------
  | Total energy                  :        -323.47554688 Ha       -8802.21748249 eV
  | Total energy, T -> 0          :        -323.47554688 Ha       -8802.21748249 eV  <-- do not rely on this value for anything but (periodic) metals
  | Electronic free energy        :        -323.47554688 Ha       -8802.21748249 eV

  Derived energy quantities:
  | Kinetic energy                :         323.18488892 Ha        8794.30827712 eV
  | Electrostatic energy          :        -604.03294232 Ha      -16436.57264401 eV
  | Energy correction for multipole
  | error in Hartree potential    :           0.03785510 Ha           1.03008980 eV
  | Sum of eigenvalues per atom                           :        -377.48464347 eV
  | Total energy (T->0) per atom                          :        -677.09365250 eV  <-- do not rely on this value for anything but (periodic) metals
  | Electronic free energy per atom                       :        -677.09365250 eV

  Self-consistency convergence accuracy:
  | Change of charge density      :  0.2077E+00
  | Change of sum of eigenvalues  :  0.3635E+02 eV
  | Change of total energy        :  0.3740E+00 eV

  End self-consistency iteration #     3       :  max(cpu_time)    wall_clock(cpu1)
  | Time for this iteration                    :        1.179 s           1.179 s
  | Charge density update                      :        0.384 s           0.384 s
  | Density mixing                             :        0.008 s           0.009 s
  | Hartree multipole update                   :        0.008 s           0.009 s
  | Hartree multipole summation                :        0.285 s           0.284 s
  | Integration                                :        0.490 s           0.491 s
  | Solution of K.-S. eqns.                    :        0.002 s           0.002 s
  | Total energy evaluation                    :        0.000 s           0.000 s

  Partial memory accounting:
  | Current value for overall tracked memory usage on task 0  :           0.166 MB
  | Peak value for overall tracked memory usage on task 0     :           0.695 MB after allocating gradient_basis_wave
  | Largest tracked array allocation on task 0 so far         :           0.397 MB  when allocating gradient_basis_wave
  Note:  These values currently only include a subset of arrays which are explicitly tracked.
  The "true" memory usage will be greater.
------------------------------------------------------------

------------------------------------------------------------
          Begin self-consistency iteration #    4

  Date     :  20200710, Time     :  144738.105
------------------------------------------------------------
  Evaluating new KS density.
  Integration grid: deviation in total charge (<rho> - N_e) =  -6.394885E-14
  Pulay mixing of updated and previous charge densities.

  Evaluating partitioned Hartree potential by multipole expansion.
  | Analytical far-field extrapolation by fixed multipoles:
  | Hartree multipole sum: apparent total charge =  -0.508825E-03
  Summing up the Hartree potential.
  Time summed over all CPUs for potential: real work        0.285 s, elapsed        0.285 s
  | RMS charge density error from multipole expansion :   0.251577E-01

  Integrating Hamiltonian matrix: batch-based integration.
  Time summed over all CPUs for integration: real work        0.491 s, elapsed        0.491 s

  Updating Kohn-Sham eigenvalues and eigenvectors using ELSI and the ELPA eigensolver.
  Finished Cholesky decomposition
  | Time :     0.000 s
  Finished transformation to standard eigenproblem
  | Time :     0.000 s
  Starting LAPACK eigensolver
  Finished solving standard eigenproblem
  | Time :     0.001 s
  Finished back-transformation of eigenvectors
  | Time :     0.000 s

  Obtaining occupation numbers and chemical potential using ELSI.
  | Chemical potential (Fermi level):    -2.53199731eV
  Highest occupied state (VBM) at     -5.49198715 eV
  | Occupation number:      2.00000000

  Lowest unoccupied state (CBM) at    -1.38370279 eV
  | Occupation number:      0.00000000

  Overall HOMO-LUMO gap:      4.10828437 eV.

  Total energy components:
  | Sum of eigenvalues            :        -180.17311390 Ha       -4902.75987902 eV
  | XC energy correction          :         -42.66544440 Ha       -1160.98581238 eV
  | XC potential correction       :          54.85321517 Ha        1492.63192897 eV
  | Free-atom electrostatic energy:        -146.86637638 Ha       -3996.43743772 eV
  | Hartree energy correction     :          -8.62284385 Ha        -234.63951939 eV
  | vdW energy correction         :           0.00000000 Ha           0.00000000 eV
  | Entropy correction            :           0.00000000 Ha           0.00000000 eV
  | ---------------------------
  | Total energy                  :        -323.47456336 Ha       -8802.19071953 eV
  | Total energy, T -> 0          :        -323.47456336 Ha       -8802.19071953 eV  <-- do not rely on this value for anything but (periodic) metals
  | Electronic free energy        :        -323.47456336 Ha       -8802.19071953 eV

  Derived energy quantities:
  | Kinetic energy                :         322.81364713 Ha        8784.20627381 eV
  | Electrostatic energy          :        -603.62276609 Ha      -16425.41118096 eV
  | Energy correction for multipole
  | error in Hartree potential    :           0.04195118 Ha           1.14154969 eV
  | Sum of eigenvalues per atom                           :        -377.13537531 eV
  | Total energy (T->0) per atom                          :        -677.09159381 eV  <-- do not rely on this value for anything but (periodic) metals
  | Electronic free energy per atom                       :        -677.09159381 eV

  Self-consistency convergence accuracy:
  | Change of charge density      :  0.6500E-01
  | Change of sum of eigenvalues  :  0.4540E+01 eV
  | Change of total energy        :  0.2676E-01 eV

  End self-consistency iteration #     4       :  max(cpu_time)    wall_clock(cpu1)
  | Time for this iteration                    :        1.180 s           1.181 s
  | Charge density update                      :        0.384 s           0.384 s
  | Density mixing                             :        0.010 s           0.010 s
  | Hartree multipole update                   :        0.009 s           0.008 s
  | Hartree multipole summation                :        0.285 s           0.286 s
  | Integration                                :        0.491 s           0.490 s
  | Solution of K.-S. eqns.                    :        0.002 s           0.003 s
  | Total energy evaluation                    :        0.000 s           0.000 s

  Partial memory accounting:
  | Current value for overall tracked memory usage on task 0  :           0.166 MB
  | Peak value for overall tracked memory usage on task 0     :           0.696 MB after allocating gradient_basis_wave
  | Largest tracked array allocation on task 0 so far         :           0.397 MB  when allocating gradient_basis_wave
  Note:  These values currently only include a subset of arrays which are explicitly tracked.
  The "true" memory usage will be greater.
------------------------------------------------------------

------------------------------------------------------------
          Begin self-consistency iteration #    5

  Date     :  20200710, Time     :  144739.288
------------------------------------------------------------
  Evaluating new KS density.
  Integration grid: deviation in total charge (<rho> - N_e) =   0.000000E+00
  Pulay mixing of updated and previous charge densities.

  Evaluating partitioned Hartree potential by multipole expansion.
  | Analytical far-field extrapolation by fixed multipoles:
  | Hartree multipole sum: apparent total charge =  -0.502942E-03
  Summing up the Hartree potential.
  Time summed over all CPUs for potential: real work        0.292 s, elapsed        0.292 s
  | RMS charge density error from multipole expansion :   0.249499E-01

  Integrating Hamiltonian matrix: batch-based integration.
  Time summed over all CPUs for integration: real work        0.490 s, elapsed        0.490 s

  Updating Kohn-Sham eigenvalues and eigenvectors using ELSI and the ELPA eigensolver.
  Finished Cholesky decomposition
  | Time :     0.000 s
  Finished transformation to standard eigenproblem
  | Time :     0.000 s
  Starting LAPACK eigensolver
  Finished solving standard eigenproblem
  | Time :     0.002 s
  Finished back-transformation of eigenvectors
  | Time :     0.000 s

  Obtaining occupation numbers and chemical potential using ELSI.
  | Chemical potential (Fermi level):    -2.61040318eV
  Highest occupied state (VBM) at     -5.59208040 eV
  | Occupation number:      2.00000000

  Lowest unoccupied state (CBM) at    -1.48611559 eV
  | Occupation number:      0.00000000

  Overall HOMO-LUMO gap:      4.10596480 eV.

  Total energy components:
  | Sum of eigenvalues            :        -180.40424466 Ha       -4909.04926686 eV
  | XC energy correction          :         -42.63803868 Ha       -1160.24006492 eV
  | XC potential correction       :          54.81762998 Ha        1491.66360677 eV
  | Free-atom electrostatic energy:        -146.86637638 Ha       -3996.43743772 eV
  | Hartree energy correction     :          -8.38323585 Ha        -228.11945407 eV
  | vdW energy correction         :           0.00000000 Ha           0.00000000 eV
  | Entropy correction            :           0.00000000 Ha           0.00000000 eV
  | ---------------------------
  | Total energy                  :        -323.47426559 Ha       -8802.18261679 eV
  | Total energy, T -> 0          :        -323.47426559 Ha       -8802.18261679 eV  <-- do not rely on this value for anything but (periodic) metals
  | Electronic free energy        :        -323.47426559 Ha       -8802.18261679 eV

  Derived energy quantities:
  | Kinetic energy                :         322.67377040 Ha        8780.40003434 eV
  | Electrostatic energy          :        -603.50999730 Ha      -16422.34258621 eV
  | Energy correction for multipole
  | error in Hartree potential    :           0.04131098 Ha           1.12412896 eV
  | Sum of eigenvalues per atom                           :        -377.61917437 eV
  | Total energy (T->0) per atom                          :        -677.09097052 eV  <-- do not rely on this value for anything but (periodic) metals
  | Electronic free energy per atom                       :        -677.09097052 eV

  Self-consistency convergence accuracy:
  | Change of charge density      :  0.2038E-01
  | Change of sum of eigenvalues  : -0.6289E+01 eV
  | Change of total energy        :  0.8103E-02 eV

  End self-consistency iteration #     5       :  max(cpu_time)    wall_clock(cpu1)
  | Time for this iteration                    :        1.181 s           1.188 s
  | Charge density update                      :        0.384 s           0.384 s
  | Density mixing                             :        0.011 s           0.011 s
  | Hartree multipole update                   :        0.009 s           0.009 s
  | Hartree multipole summation                :        0.285 s           0.292 s
  | Integration                                :        0.490 s           0.490 s
  | Solution of K.-S. eqns.                    :        0.002 s           0.002 s
  | Total energy evaluation                    :        0.000 s           0.000 s

  Partial memory accounting:
  | Current value for overall tracked memory usage on task 0  :           0.166 MB
  | Peak value for overall tracked memory usage on task 0     :           0.696 MB after allocating gradient_basis_wave
  | Largest tracked array allocation on task 0 so far         :           0.397 MB  when allocating gradient_basis_wave
  Note:  These values currently only include a subset of arrays which are explicitly tracked.
  The "true" memory usage will be greater.
------------------------------------------------------------

------------------------------------------------------------
          Begin self-consistency iteration #    6

  Date     :  20200710, Time     :  144740.477
------------------------------------------------------------
  Evaluating new KS density.
  Integration grid: deviation in total charge (<rho> - N_e) =   2.131628E-14
  Pulay mixing of updated and previous charge densities.

  Evaluating partitioned Hartree potential by multipole expansion.
  | Analytical far-field extrapolation by fixed multipoles:
  | Hartree multipole sum: apparent total charge =  -0.507815E-03
  Summing up the Hartree potential.
  Time summed over all CPUs for potential: real work        0.285 s, elapsed        0.285 s
  | RMS charge density error from multipole expansion :   0.254240E-01

  Integrating Hamiltonian matrix: batch-based integration.
  Time summed over all CPUs for integration: real work        0.490 s, elapsed        0.490 s

  Updating Kohn-Sham eigenvalues and eigenvectors using ELSI and the ELPA eigensolver.
  Finished Cholesky decomposition
  | Time :     0.000 s
  Finished transformation to standard eigenproblem
  | Time :     0.000 s
  Starting LAPACK eigensolver
  Finished solving standard eigenproblem
  | Time :     0.001 s
  Finished back-transformation of eigenvectors
  | Time :     0.000 s

  Obtaining occupation numbers and chemical potential using ELSI.
  | Chemical potential (Fermi level):    -2.59599108eV
  Highest occupied state (VBM) at     -5.54520529 eV
  | Occupation number:      2.00000000

  Lowest unoccupied state (CBM) at    -1.47966313 eV
  | Occupation number:      0.00000000

  Overall HOMO-LUMO gap:      4.06554215 eV.

  Total energy components:
  | Sum of eigenvalues            :        -180.36303826 Ha       -4907.92798362 eV
  | XC energy correction          :         -42.64169358 Ha       -1160.33951974 eV
  | XC potential correction       :          54.82235644 Ha        1491.79222018 eV
  | Free-atom electrostatic energy:        -146.86637638 Ha       -3996.43743772 eV
  | Hartree energy correction     :          -8.42547567 Ha        -229.26885793 eV
  | vdW energy correction         :           0.00000000 Ha           0.00000000 eV
  | Entropy correction            :           0.00000000 Ha           0.00000000 eV
  | ---------------------------
  | Total energy                  :        -323.47422744 Ha       -8802.18157883 eV
  | Total energy, T -> 0          :        -323.47422744 Ha       -8802.18157883 eV  <-- do not rely on this value for anything but (periodic) metals
  | Electronic free energy        :        -323.47422744 Ha       -8802.18157883 eV

  Derived energy quantities:
  | Kinetic energy                :         322.61448717 Ha        8778.78685575 eV
  | Electrostatic energy          :        -603.44702104 Ha      -16420.62891483 eV
  | Energy correction for multipole
  | error in Hartree potential    :           0.04181704 Ha           1.13789957 eV
  | Sum of eigenvalues per atom                           :        -377.53292182 eV
  | Total energy (T->0) per atom                          :        -677.09089068 eV  <-- do not rely on this value for anything but (periodic) metals
  | Electronic free energy per atom                       :        -677.09089068 eV

  Self-consistency convergence accuracy:
  | Change of charge density      :  0.1043E-01
  | Change of sum of eigenvalues  :  0.1121E+01 eV
  | Change of total energy        :  0.1038E-02 eV

  End self-consistency iteration #     6       :  max(cpu_time)    wall_clock(cpu1)
  | Time for this iteration                    :        1.183 s           1.184 s
  | Charge density update                      :        0.384 s           0.384 s
  | Density mixing                             :        0.012 s           0.013 s
  | Hartree multipole update                   :        0.009 s           0.009 s
  | Hartree multipole summation                :        0.285 s           0.285 s
  | Integration                                :        0.490 s           0.490 s
  | Solution of K.-S. eqns.                    :        0.002 s           0.003 s
  | Total energy evaluation                    :        0.000 s           0.000 s

  Partial memory accounting:
  | Current value for overall tracked memory usage on task 0  :           0.166 MB
  | Peak value for overall tracked memory usage on task 0     :           0.696 MB after allocating gradient_basis_wave
  | Largest tracked array allocation on task 0 so far         :           0.397 MB  when allocating gradient_basis_wave
  Note:  These values currently only include a subset of arrays which are explicitly tracked.
  The "true" memory usage will be greater.
------------------------------------------------------------

------------------------------------------------------------
          Begin self-consistency iteration #    7

  Date     :  20200710, Time     :  144741.662
------------------------------------------------------------
  Evaluating new KS density.
  Integration grid: deviation in total charge (<rho> - N_e) =  -3.552714E-14
  Pulay mixing of updated and previous charge densities.

  Evaluating partitioned Hartree potential by multipole expansion.
  | Analytical far-field extrapolation by fixed multipoles:
  | Hartree multipole sum: apparent total charge =  -0.508494E-03
  Summing up the Hartree potential.
  Time summed over all CPUs for potential: real work        0.284 s, elapsed        0.285 s
  | RMS charge density error from multipole expansion :   0.255093E-01

  Integrating Hamiltonian matrix: batch-based integration.
  Time summed over all CPUs for integration: real work        0.490 s, elapsed        0.490 s

  Updating Kohn-Sham eigenvalues and eigenvectors using ELSI and the ELPA eigensolver.
  Finished Cholesky decomposition
  | Time :     0.000 s
  Finished transformation to standard eigenproblem
  | Time :     0.000 s
  Starting LAPACK eigensolver
  Finished solving standard eigenproblem
  | Time :     0.002 s
  Finished back-transformation of eigenvectors
  | Time :     0.000 s

[...]
  |   Hirshfeld dipole moment :      0.06009950
  |   Hirshfeld second moments:      0.00813544      -0.03207836      -0.02053669
  |                                 -0.03207836      -0.02004879       0.01010865
  |                                 -0.02053669       0.01010865      -0.01728669
  ----------------------------------------------------------------------
  | Atom    12: O
  |   Hirshfeld charge        :     -0.17157256
  |   Free atom volume        :     23.61338643
  |   Hirshfeld volume        :     21.20142560
  |   Hirshfeld dipole vector :      0.03758542       0.01204627       0.01759952
  |   Hirshfeld dipole moment :      0.04321481
  |   Hirshfeld second moments:      0.05019325      -0.02329978      -0.01941172
  |                                 -0.02329978       0.07595569       0.04035938
  |                                 -0.01941172       0.04035938       0.01973599
  ----------------------------------------------------------------------
  | Atom    13: H
  |   Hirshfeld charge        :      0.18407276
  |   Free atom volume        :      9.95071624
  |   Hirshfeld volume        :      6.08589119
  |   Hirshfeld dipole vector :      0.09007906      -0.08583518      -0.04291870
  |   Hirshfeld dipole moment :      0.13162040
  |   Hirshfeld second moments:      0.11872684       0.00238651      -0.00398945
  |                                  0.00238651       0.12442238       0.00701319
  |                                 -0.00398945       0.00701319       0.10850217
  ----------------------------------------------------------------------


  Total energy components:
  | Sum of eigenvalues            :        -180.36654417 Ha       -4908.02338424 eV
  | XC energy correction          :         -42.63795661 Ha       -1160.23783162 eV
  | XC potential correction       :          54.81760591 Ha        1491.66295174 eV
  | Free-atom electrostatic energy:        -146.86637638 Ha       -3996.43743772 eV
  | Hartree energy correction     :          -8.42093110 Ha        -229.14519400 eV
  | vdW energy correction         :          -0.00331230 Ha          -0.09013222 eV
  | Entropy correction            :           0.00000000 Ha           0.00000000 eV
  | ---------------------------
  | Total energy                  :        -323.47751464 Ha       -8802.27102805 eV
  | Total energy, T -> 0          :        -323.47751464 Ha       -8802.27102805 eV  <-- do not rely on this value for anything but (periodic) metals
  | Electronic free energy        :        -323.47751464 Ha       -8802.27102805 eV

  Derived energy quantities:
  | Kinetic energy                :         322.57708494 Ha        8777.76908911 eV
  | Electrostatic energy          :        -603.41333067 Ha      -16419.71215333 eV
  | Energy correction for multipole
  | error in Hartree potential    :           0.04183746 Ha           1.13845517 eV
  | Sum of eigenvalues per atom                           :        -377.54026033 eV
  | Total energy (T->0) per atom                          :        -677.09777139 eV  <-- do not rely on this value for anything but (periodic) metals
  | Electronic free energy per atom                       :        -677.09777139 eV

  atomic forces [eV/Ang]:
  -----------------------
  atom #    1
   Hellmann-Feynman              :  0.554027E+00  0.207210E+00  0.903849E+00
   Ionic forces                  :  0.000000E+00  0.000000E+00  0.000000E+00
   Multipole                     :  0.191834E+00  0.398225E+00 -0.316279E+00
   Pulay + GGA                   : -0.117122E+01 -0.860141E-01 -0.118008E+01
   Van der Waals                 :  0.260059E-02  0.760181E-02 -0.872694E-03
   ----------------------------------------------------------------
   Total forces(   1)            : -0.422757E+00  0.527023E+00 -0.593384E+00
  atom #    2
   Hellmann-Feynman              :  0.389374E+00 -0.218572E-01  0.283139E+00
   Ionic forces                  :  0.000000E+00  0.000000E+00  0.000000E+00
   Multipole                     :  0.159194E+00  0.434890E-01 -0.161140E-01
   Pulay + GGA                   : -0.120356E+00  0.303291E-01  0.315713E-01
   Van der Waals                 :  0.736590E-02 -0.700734E-02 -0.359700E-02
   ----------------------------------------------------------------
   Total forces(   2)            :  0.435578E+00  0.449535E-01  0.294999E+00
  atom #    3
   Hellmann-Feynman              : -0.947685E+01 -0.699066E+01  0.272936E+00
   Ionic forces                  :  0.000000E+00  0.000000E+00  0.000000E+00
   Multipole                     : -0.118251E+00  0.102370E+00 -0.869088E+00
   Pulay + GGA                   :  0.957412E+01  0.681537E+01  0.137989E+01
   Van der Waals                 :  0.345364E-02 -0.538929E-02 -0.830977E-02
   ----------------------------------------------------------------
   Total forces(   3)            : -0.175269E-01 -0.783125E-01  0.775430E+00
  atom #    4
   Hellmann-Feynman              :  0.242882E+00  0.849421E-01 -0.170058E+00
   Ionic forces                  :  0.000000E+00  0.000000E+00  0.000000E+00
   Multipole                     : -0.153597E-01  0.719370E-01 -0.920729E-01
   Pulay + GGA                   : -0.325928E-01 -0.228039E+00  0.539416E-01
   Van der Waals                 : -0.185974E-02 -0.668173E-02 -0.631111E-02
   ----------------------------------------------------------------
   Total forces(   4)            :  0.193070E+00 -0.778421E-01 -0.214501E+00
  atom #    5
   Hellmann-Feynman              :  0.869620E-01  0.156070E+00 -0.280938E+00
   Ionic forces                  :  0.000000E+00  0.000000E+00  0.000000E+00
   Multipole                     :  0.396700E-01 -0.498354E-04 -0.115005E+00
   Pulay + GGA                   : -0.201163E+00  0.168354E-01  0.118341E+00
   Van der Waals                 : -0.302662E-02  0.849757E-03  0.295206E-02
   ----------------------------------------------------------------
   Total forces(   5)            : -0.775572E-01  0.173705E+00 -0.274650E+00
  atom #    6
   Hellmann-Feynman              : -0.160099E+00 -0.410293E+00  0.250076E+00
   Ionic forces                  :  0.000000E+00  0.000000E+00  0.000000E+00
   Multipole                     : -0.166554E-01  0.607998E+00  0.262805E+00
   Pulay + GGA                   :  0.364216E+00 -0.626381E+00 -0.412228E+00
   Van der Waals                 : -0.168120E-02  0.464700E-02 -0.386935E-02
   ----------------------------------------------------------------
   Total forces(   6)            :  0.185781E+00 -0.424029E+00  0.967837E-01
  atom #    7
   Hellmann-Feynman              : -0.229666E+00 -0.526757E-01 -0.386134E-01
   Ionic forces                  :  0.000000E+00  0.000000E+00  0.000000E+00
   Multipole                     : -0.120943E+00  0.482253E-01  0.288169E-01
   Pulay + GGA                   :  0.115142E+00 -0.105438E-01 -0.113687E-02
   Van der Waals                 : -0.358553E-02  0.352154E-02  0.929360E-02
   ----------------------------------------------------------------
   Total forces(   7)            : -0.239053E+00 -0.114727E-01 -0.163974E-02
  atom #    8
   Hellmann-Feynman              :  0.367754E-01 -0.325508E-01  0.151143E+00
   Ionic forces                  :  0.000000E+00  0.000000E+00  0.000000E+00
   Multipole                     :  0.182361E-01  0.653224E-01  0.119732E+00
   Pulay + GGA                   : -0.489667E-01 -0.466435E-01 -0.113335E+00
   Van der Waals                 : -0.268382E-02  0.116235E-01  0.803634E-03
   ----------------------------------------------------------------
   Total forces(   8)            :  0.336101E-02 -0.224847E-02  0.158344E+00
  atom #    9
   Hellmann-Feynman              :  0.125374E+00  0.793201E-01 -0.172251E+00
   Ionic forces                  :  0.000000E+00  0.000000E+00  0.000000E+00
   Multipole                     :  0.197105E-01  0.127831E+00 -0.803314E-02
   Pulay + GGA                   : -0.287444E-01 -0.754804E-01  0.676213E-01
   Van der Waals                 : -0.763959E-03  0.582762E-02  0.718646E-02
   ----------------------------------------------------------------
   Total forces(   9)            :  0.115576E+00  0.137498E+00 -0.105477E+00
  atom #   10
   Hellmann-Feynman              :  0.293582E+01  0.513130E+01  0.144247E+01
   Ionic forces                  :  0.000000E+00  0.000000E+00  0.000000E+00
   Multipole                     : -0.182591E-01 -0.118779E+00  0.369495E+00
   Pulay + GGA                   : -0.211349E+01 -0.263091E+01  0.687360E-01
   Van der Waals                 :  0.106621E-02 -0.115449E-01  0.879525E-03
   ----------------------------------------------------------------
   Total forces(  10)            :  0.805138E+00  0.237007E+01  0.188158E+01
  atom #   11
   Hellmann-Feynman              :  0.411232E+01 -0.219815E+01  0.137485E+02
   Ionic forces                  :  0.000000E+00  0.000000E+00  0.000000E+00
   Multipole                     :  0.231906E-01 -0.690614E+00  0.795399E+00
   Pulay + GGA                   : -0.313821E+01  0.364496E+01 -0.134004E+02
   Van der Waals                 : -0.292877E-02 -0.110333E-01  0.428679E-02
   ----------------------------------------------------------------
   Total forces(  11)            :  0.994380E+00  0.745165E+00  0.114784E+01
  atom #   12
   Hellmann-Feynman              : -0.146564E+02 -0.172861E+01 -0.598727E+01
   Ionic forces                  :  0.000000E+00  0.000000E+00  0.000000E+00
   Multipole                     : -0.103670E+01 -0.112450E+01 -0.328232E+00
   Pulay + GGA                   :  0.143039E+02  0.506552E+00  0.355553E+01
   Van der Waals                 :  0.163419E-02  0.926058E-02  0.134132E-02
   ----------------------------------------------------------------
   Total forces(  12)            : -0.138753E+01 -0.233730E+01 -0.275863E+01
  atom #   13
   Hellmann-Feynman              : -0.281008E+00 -0.127021E+01 -0.501999E+00
   Ionic forces                  :  0.000000E+00  0.000000E+00  0.000000E+00
   Multipole                     :  0.374177E-01 -0.325248E-01 -0.189452E-01
   Pulay + GGA                   : -0.343047E+00  0.233880E+00  0.112953E+00
   Van der Waals                 :  0.409113E-03 -0.167522E-02 -0.378346E-02
   ----------------------------------------------------------------
   Total forces(  13)            : -0.586229E+00 -0.107053E+01 -0.411775E+00

  Timings for VdW correction (Tkatchenko-Scheffler 2009 or later):
  | CPU time:        0.089 s, Wall clock time:        0.090 s.
  Removing unitary transformations (pure translations, rotations) from forces on atoms.
  Atomic forces before filtering:
  | Net force on center of mass :   0.223021E-02 -0.332308E-02 -0.508019E-02 eV/A
  | Net torque on center of mass:  -0.236077E-02  0.194402E-02  0.888604E-02 eV
  Atomic forces after filtering:
  | Net force on center of mass :  -0.446015E-15  0.000000E+00 -0.178406E-15 eV/A
  | Net torque on center of mass:   0.708063E-15  0.678561E-15  0.377634E-15 eV

  Energy and forces in a compact form:
  | Total energy uncorrected      :         -0.880227102805253E+04 eV
  | Total energy corrected        :         -0.880227102805253E+04 eV  <-- do not rely on this value for anything but (periodic) metals
  | Electronic free energy        :         -0.880227102805253E+04 eV
  Total atomic forces (unitary forces cleaned) [eV/Ang]:
  |   1         -0.422897905763871E+00          0.527191624683526E+00         -0.592959287478831E+00
  |   2          0.435437607196306E+00          0.448145423613758E-01          0.295523033171039E+00
  |   3         -0.175398001392017E-01         -0.779263583874268E-01          0.775812032662610E+00
  |   4          0.193348707163710E+00         -0.773670288816335E-01         -0.214087158744389E+00
  |   5         -0.776089050429115E-01          0.173914909274431E+00         -0.274219495622466E+00
  |   6          0.185929337971452E+00         -0.423763615964611E+00          0.972376668527982E-01
  |   7         -0.238897957229175E+00         -0.109004608153826E-01         -0.128313796481941E-02
  |   8          0.341961514570647E-02         -0.214478174815970E-02          0.158830974430828E+00
  |   9          0.116023254872967E+00          0.137691562389640E+00         -0.104937694372022E+00
  |  10          0.804567550235418E+00          0.237030287015861E+01          0.188189353512075E+01
  |  11          0.993628460114159E+00          0.745252534638641E+00          0.114816420753018E+01
  |  12         -0.138828089084759E+01         -0.233682223222380E+01         -0.275842900526376E+01
  |  13         -0.587129073676973E+00         -0.107024356548521E+01         -0.411545670321918E+00

  ------------------------------------ 
  Start decomposition of the XC Energy 
  ------------------------------------ 
  X and C from original XC functional choice 
  Hartree-Fock Energy :          0.000000000 Ha              0.000000000 eV
  X Energy            :        -41.037761273 Ha          -1116.694301022 eV
  C Energy            :         -1.600195337 Ha            -43.543530598 eV
  Total XC Energy     :        -42.637956610 Ha          -1160.237831620 eV
  ------------------------------------ 
  LDA X and C from self-consistent density 
  X Energy LDA        :        -37.255548438 Ha          -1013.775053305 eV
  C Energy LDA        :         -3.138521543 Ha            -85.403516458 eV
  ------------------------------------ 
  End decomposition of the XC Energy 
  ------------------------------------ 

------------------------------------------------------------

------------------------------------------------------------------------------
  Final output of selected total energy values:

  The following output summarizes some interesting total energy values
  at the end of a run (AFTER all relaxation, molecular dynamics, etc.).

  | Total energy of the DFT / Hartree-Fock s.c.f. calculation      :          -8802.271028053 eV
  | Final zero-broadening corrected energy (caution - metals only) :          -8802.271028053 eV
  | For reference only, the value of 1 Hartree used in FHI-aims is :             27.211384500 eV

  Before relying on these values, please be sure to understand exactly which
  total energy value is referred to by a given number. Different objects may
  all carry the same name 'total energy'. Definitions:

  Total energy of the DFT / Hartree-Fock s.c.f. calculation:
  | Note that this energy does not include ANY quantities calculated after the
  | s.c.f. cycle, in particular not ANY RPA, MP2, etc. many-body perturbation terms.

  Final zero-broadening corrected energy:
  | For metallic systems only, a broadening of the occupation numbers at the Fermi
  | level can be extrapolated back to zero broadening by an electron-gas inspired
  | formula. For all systems that are not real metals, this value can be
  | meaningless and should be avoided.

------------------------------------------------------------------------------
  Methods described in the following list of references were used in this FHI-aims run.
  If you publish the results, please make sure to cite these reference if they apply.
  FHI-aims is an academic code, and for our developers (often, Ph.D. students
  and postdocs), scientific credit in the community is essential.
  Thank you for helping us!

  For any use of FHI-aims, please cite:

    Volker Blum, Ralf Gehrke, Felix Hanke, Paula Havu, Ville Havu,
    Xinguo Ren, Karsten Reuter, and Matthias Scheffler
    'Ab initio molecular simulations with numeric atom-centered orbitals'
    Computer Physics Communications 180, 2175-2196 (2009)
    http://dx.doi.org/10.1016/j.cpc.2009.06.022


  The scalable eigensolver library ELPA was used in your run.
  ELPA is essential especially for large systems on hundreds or thousands of CPUs.
  For ELPA, please cite:

    Andreas Marek, Volker Blum, Rainer Johanni, Ville Havu, Bruno Lang,
    Thomas Auckenthaler, Alexander Heinecke, Hans-Joachim Bungartz, and Hermann Lederer,
    'The ELPA Library - Scalable Parallel Eigenvalue Solutions
    for Electronic Structure Theory and Computational Science'
    The Journal of Physics: Condensed Matter 26, 213201 (2014).
    http://dx.doi.org/10.1088/0953-8984/26/21/213201


  The ELSI infrastructure was used in your run to solve the Kohn-Sham electronic structure.
  Please check out http://elsi-interchange.org to learn more.
  If scalability is important for your project, please acknowledge ELSI by citing:

    V. W-z. Yu, F. Corsetti, A. Garcia, W. P. Huhn, M. Jacquelin, W. Jia,
    B. Lange, L. Lin, J. Lu, W. Mi, A. Seifitokaldani, A. Vazquez-Mayagoitia,
    C. Yang, H. Yang, and V. Blum
    'ELSI: A unified software interface for Kohn-Sham electronic structure solvers'
    Computer Physics Communications 222, 267-285 (2018).
    http://dx.doi.org/10.1016/j.cpc.2017.09.007


  For the real-space grid partitioning and parallelization used in this calculation, please cite:

    Ville Havu, Volker Blum, Paula Havu, and Matthias Scheffler,
    'Efficient O(N) integration for all-electron electronic structure calculation'
    'using numerically tabulated basis functions'
    Journal of Computational Physics 228, 8367-8379 (2009).
    http://dx.doi.org/10.1016/j.jcp.2009.08.008

  Of course, there are many other important community references, e.g., those cited in the
  above references. Our list is limited to references that describe implementations in the
  FHI-aims code. The reason is purely practical (length of this list) - please credit others as well.

------------------------------------------------------------
          Leaving FHI-aims.
          Date     :  20200710, Time     :  144755.942

          Computational steps:
          | Number of self-consistency cycles          :           16
          | Number of SCF (re)initializations          :            1

          Detailed time accounting                     :  max(cpu_time)    wall_clock(cpu1)
          | Total time                                 :       22.623 s          22.695 s
          | Preparation time                           :        0.146 s           0.147 s
          | Boundary condition initalization           :        0.000 s           0.000 s
          | Grid partitioning                          :        0.112 s           0.113 s
          | Preloading free-atom quantities on grid    :        0.003 s           0.003 s
          | Free-atom superposition energy             :        0.085 s           0.085 s
          | Total time for integrations                :        8.551 s           8.565 s
          | Total time for solution of K.-S. equations :        0.037 s           0.039 s
          | Total time for density & force components  :        7.103 s           7.118 s
          | Total time for mixing                      :        0.219 s           0.221 s
          | Total time for Hartree multipole update    :        0.139 s           0.140 s
          | Total time for Hartree multipole sum       :        5.831 s           5.845 s
          | Total time for total energy evaluation     :        0.003 s           0.004 s
          | Total time for vdW correction              :        0.089 s           0.090 s

          Partial memory accounting:
          | Residual value for overall tracked memory usage across tasks :           0.000 MB (should be 0.000 MB)
          | Peak values for overall tracked memory usage (after allocating hessian_basis_wave):
          |   Minimum:        1.622 MB (on task 1)
          |   Maximum:        1.622 MB (on task 1)
          |   Average:        1.622 MB
          | Largest tracked array allocation (hessian_basis_wave):
          |   Minimum:        0.794 MB (on task 1)
          |   Maximum:        0.794 MB (on task 1)
          |   Average:        0.794 MB
          Note:  These values currently only include a subset of arrays which are explicitly tracked.
          The "true" memory usage will be greater.

          Have a nice day.
------------------------------------------------------------
