  MPI-parallelism will be employed.
------------------------------------------------------------
          Invoking FHI-aims ...
          Version 171221_1
          Compiled on 2019/09/09 at 14:39:39 on host puhti-login2.bullx.

          When using FHI-aims, please cite the following reference:

          Volker Blum, Ralf Gehrke, Felix Hanke, Paula Havu,
          Ville Havu, Xinguo Ren, Karsten Reuter, and Matthias Scheffler,
          'Ab Initio Molecular Simulations with Numeric Atom-Centered Orbitals',
          Computer Physics Communications 180, 2175-2196 (2009)

          For any questions about FHI-aims, please visit the aimsclub website
          with its forums and wiki. Contributions to both the forums and the
          wiki are warmly encouraged - they are for you, and everyone is welcome there.

------------------------------------------------------------



  Date     :  20200902, Time     :  104540.278
  Time zero on CPU 1             :   0.171570000000000E-01  s.
  Internal wall clock time zero  :           368275540.278  s.

  FHI-aims created a unique identifier for this run for later identification
  aims_uuid : 566C5C0E-928D-4D91-A918-D89D24278039

  Using        1 parallel tasks.
  Task        0 on host r18c45.bullx reporting.

  Performing system and environment tests:
  | Environment variable OMP_NUM_THREADS correctly set to 1.
  | Stacksize not measured: no C compiler
  | Checking for scalapack...
  | Testing pdtran()...
  | All pdtran() tests passed.

  Obtaining array dimensions for all initial allocations:
  
  -----------------------------------------------------------------------
  Parsing control.in (first pass over file, find array dimensions only).
  The contents of control.in will be repeated verbatim below
  unless switched off by setting 'verbatim_writeout .false.' .
  in the first line of control.in .
  -----------------------------------------------------------------------
  
  #########################################################################################
  #
  #  Volker Blum, FHI 2009 : Test run input file control.in for simple H2O
  #
  #########################################################################################
  #
  #  Physical model
  #
    xc                 pbe
    vdw_correction_hirshfeld
    spin               none
    relativistic       none
    charge             0.
  #
  #  SCF convergence
  #
    occupation_type    gaussian 0.01
    mixer              pulay
      n_max_pulay        10
      charge_mix_param   0.2
    sc_accuracy_rho    1E-5
    sc_accuracy_eev    1E-3
    sc_accuracy_etot   1E-6
    sc_accuracy_forces 1E-4
    sc_iter_limit      100
  #
  #  Relaxation
  #
  #  relax_geometry   bfgs 1.e-3
  #
  ################################################################################
  #
  #  FHI-aims code project
  #  VB, Fritz-Haber Institut, 2009
  #
  #  Suggested "light" defaults for H atom (to be pasted into control.in file)
  #  Be sure to double-check any results obtained with these settings for post-processing,
  #  e.g., with the "tight" defaults and larger basis sets.
  #
  ################################################################################
    species        H
  #     global species definitions
      nucleus             1
      mass                1.00794
  #
      l_hartree           4
  #
      cut_pot             3.5  1.5  1.0
      basis_dep_cutoff    1e-4
  #
      radial_base         24 5.0
      radial_multiplier   1
      angular_grids       specified
        division   0.2421   50
        division   0.3822  110
        division   0.4799  194
        division   0.5341  302
  #      division   0.5626  434
  #      division   0.5922  590
  #      division   0.6542  770
  #      division   0.6868 1202
  #      outer_grid  770
        outer_grid  302
  ################################################################################
  #
  #  Definition of "minimal" basis
  #
  ################################################################################
  #     valence basis states
      valence      1  s   1.
  #     ion occupancy
      ion_occ      1  s   0.5
  ################################################################################
  #
  #  Suggested additional basis functions. For production calculations,
  #  uncomment them one after another (the most important basis functions are
  #  listed first).
  #
  #  Basis constructed for dimers: 0.5 A, 0.7 A, 1.0 A, 1.5 A, 2.5 A
  #
  ################################################################################
  #  "First tier" - improvements: -1014.90 meV to -62.69 meV
       hydro 2 s 2.1
       hydro 2 p 3.5
  #  "Second tier" - improvements: -12.89 meV to -1.83 meV
  #     hydro 1 s 0.85
  #     hydro 2 p 3.7
  #     hydro 2 s 1.2
  #     hydro 3 d 7
  #  "Third tier" - improvements: -0.25 meV to -0.12 meV
  #     hydro 4 f 11.2
  #     hydro 3 p 4.8
  #     hydro 4 d 9
  #     hydro 3 s 3.2
  ################################################################################
  #
  #  FHI-aims code project
  #  VB, Fritz-Haber Institut, 2009
  #
  #  Suggested "light" defaults for C atom (to be pasted into control.in file)
  #  Be sure to double-check any results obtained with these settings for post-processing,
  #  e.g., with the "tight" defaults and larger basis sets.
  #
  ################################################################################
    species        C
  #     global species definitions
      nucleus             6
      mass                12.0107
  #
      l_hartree           4
  #
      cut_pot             3.5  1.5  1.0
      basis_dep_cutoff    1e-4
  #
      radial_base         34 5.0
      radial_multiplier   1
      angular_grids specified
        division   0.3326   50
        division   0.5710  110
        division   0.7727  194
        division   0.8772  302
  #      division   0.9334  434
  #      division   0.9625  590
  #      division   0.9924  770
  #      division   1.0230  974
  #      division   1.4589 1202
  #     outer_grid  974
       outer_grid 302
  ################################################################################
  #
  #  Definition of "minimal" basis
  #
  ################################################################################
  #     valence basis states
      valence      2  s   2.
      valence      2  p   2.
  #     ion occupancy
      ion_occ      2  s   1.
      ion_occ      2  p   1.
  ################################################################################
  #
  #  Suggested additional basis functions. For production calculations,
  #  uncomment them one after another (the most important basis functions are
  #  listed first).
  #
  #  Constructed for dimers: 1.0 A, 1.25 A, 1.5 A, 2.0 A, 3.0 A
  #
  ################################################################################
  #  "First tier" - improvements: -1214.57 meV to -155.61 meV
       hydro 2 p 1.7
       hydro 3 d 6
       hydro 2 s 4.9
  #  "Second tier" - improvements: -67.75 meV to -5.23 meV
  #     hydro 4 f 9.8
  #     hydro 3 p 5.2
  #     hydro 3 s 4.3
  #     hydro 5 g 14.4
  #     hydro 3 d 6.2
  #  "Third tier" - improvements: -2.43 meV to -0.60 meV
  #     hydro 2 p 5.6
  #     hydro 2 s 1.4
  #     hydro 3 d 4.9
  #     hydro 4 f 11.2
  #  "Fourth tier" - improvements: -0.39 meV to -0.18 meV
  #     hydro 2 p 2.1
  #     hydro 5 g 16.4
  #     hydro 4 d 13.2
  #     hydro 3 s 13.6
  #     hydro 4 f 17.6
  #  Further basis functions - improvements: -0.08 meV and below
  #     hydro 3 s 2
  #     hydro 3 p 6
  #     hydro 4 d 20
  ################################################################################
  #
  #  FHI-aims code project
  #  VB, Fritz-Haber Institut, 2009
  #
  #  Suggested "light" defaults for N atom (to be pasted into control.in file)
  #  Be sure to double-check any results obtained with these settings for post-processing,
  #  e.g., with the "tight" defaults and larger basis sets.
  #
  ################################################################################
    species        N
  #     global species definitions
      nucleus             7
      mass                14.0067
  #
      l_hartree           4
  #
      cut_pot             3.5  1.5  1.0
      basis_dep_cutoff    1e-4
  #
      radial_base         35 5.0
      radial_multiplier   1
      angular_grids       specified
        division   0.2599   50
        division   0.4601  110
        division   0.5885  194
        division   0.6503  302
  #      division   0.6939  434
  #      division   0.7396  590
  #      division   0.7632  770
  #      division   0.8122  974
  #      division   1.1604 1202
  #      outer_grid  974
        outer_grid  302
  ################################################################################
  #
  #  Definition of "minimal" basis
  #
  ################################################################################
  #     valence basis states
      valence      2  s   2.
      valence      2  p   3.
  #     ion occupancy
      ion_occ      2  s   1.
      ion_occ      2  p   2.
  ################################################################################
  #
  #  Suggested additional basis functions. For production calculations,
  #  uncomment them one after another (the most important basis functions are
  #  listed first).
  #
  #  Constructed for dimers: 1.0 A, 1.1 A, 1.5 A, 2.0 A, 3.0 A
  #
  ################################################################################
  #  "First tier" - improvements: -1193.42 meV to -220.60 meV
       hydro 2 p 1.8
       hydro 3 d 6.8
       hydro 3 s 5.8
  #  "Second tier" - improvements: -80.21 meV to -6.86 meV
  #     hydro 4 f 10.8
  #     hydro 3 p 5.8
  #     hydro 1 s 0.8
  #     hydro 5 g 16
  #     hydro 3 d 4.9
  #  "Third tier" - improvements: -4.29 meV to -0.53 meV
  #     hydro 3 s 16
  #     ionic 2 p auto
  #     hydro 3 d 6.6
  #     hydro 4 f 11.6
  #  "Fourth tier" - improvements: -0.75 meV to -0.25 meV
  #     hydro 2 p 4.5
  #     hydro 2 s 2.4
  #     hydro 5 g 14.4
  #     hydro 4 d 14.4
  #     hydro 4 f 16.8
  # Further basis functions - -0.21 meV and below
  #     hydro 3 p 14.8
  #     hydro 3 s 4.4
  #     hydro 3 d 19.6
  #     hydro 5 g 12.8
  ################################################################################
  #
  #  FHI-aims code project
  #  VB, Fritz-Haber Institut, 2009
  #
  #  Suggested "light" defaults for O atom (to be pasted into control.in file)
  #  Be sure to double-check any results obtained with these settings for post-processing,
  #  e.g., with the "tight" defaults and larger basis sets.
  #
  ################################################################################
    species        O
  #     global species definitions
      nucleus             8
      mass                15.9994
  #
      l_hartree           4
  #
      cut_pot             3.5  1.5  1.0
      basis_dep_cutoff    1e-4
  #
      radial_base         36 5.0
      radial_multiplier   1
       angular_grids specified
        division   0.2659   50
        division   0.4451  110
        division   0.6052  194
        division   0.7543  302
  #      division   0.8014  434
  #      division   0.8507  590
  #      division   0.8762  770
  #      division   0.9023  974
  #      division   1.2339 1202
  #      outer_grid 974
        outer_grid 302
  ################################################################################
  #
  #  Definition of "minimal" basis
  #
  ################################################################################
  #     valence basis states
      valence      2  s   2.
      valence      2  p   4.
  #     ion occupancy
      ion_occ      2  s   1.
      ion_occ      2  p   3.
  ################################################################################
  #
  #  Suggested additional basis functions. For production calculations,
  #  uncomment them one after another (the most important basis functions are
  #  listed first).
  #
  #  Constructed for dimers: 1.0 A, 1.208 A, 1.5 A, 2.0 A, 3.0 A
  #
  ################################################################################
  #  "First tier" - improvements: -699.05 meV to -159.38 meV
       hydro 2 p 1.8
       hydro 3 d 7.6
       hydro 3 s 6.4
  #  "Second tier" - improvements: -49.91 meV to -5.39 meV
  #     hydro 4 f 11.6
  #     hydro 3 p 6.2
  #     hydro 3 d 5.6
  #     hydro 5 g 17.6
  #     hydro 1 s 0.75
  #  "Third tier" - improvements: -2.83 meV to -0.50 meV
  #     ionic 2 p auto
  #     hydro 4 f 10.8
  #     hydro 4 d 4.7
  #     hydro 2 s 6.8
  #  "Fourth tier" - improvements: -0.40 meV to -0.12 meV
  #     hydro 3 p 5
  #     hydro 3 s 3.3
  #     hydro 5 g 15.6
  #     hydro 4 f 17.6
  #     hydro 4 d 14
  # Further basis functions - -0.08 meV and below
  #     hydro 3 s 2.1
  #     hydro 4 d 11.6
  #     hydro 3 p 16
  #     hydro 2 s 17.2
  
  -----------------------------------------------------------------------
  Completed first pass over input file control.in .
  -----------------------------------------------------------------------
  
  
  -----------------------------------------------------------------------
  Parsing geometry.in (first pass over file, find array dimensions only).
  The contents of geometry.in will be repeated verbatim below
  unless switched off by setting 'verbatim_writeout .false.' .
  in the first line of geometry.in .
  -----------------------------------------------------------------------
  
  atom  0.00000 0.00000 0.00000 C
  atom  1.09300 0.00000 0.00000 H
  atom  -0.47961 0.00000 -1.41207 N
  atom  -1.45972 0.28469 -1.42461 H
  atom  0.08418 0.65592 -1.94876 H
  atom  -0.49584 1.26211 0.72868 C
  atom  -1.58789 1.28919 0.74431 H
  atom  -0.13407 1.27425 1.75947 H
  atom  -0.13407 2.16087 0.22380 H
  atom  -0.39425 -1.28861 0.74398 C
  atom  -0.10189 -1.56493 1.88303 O
  atom  -1.10210 -2.13717 0.06896 O
  atom  -1.89986 -1.59435 -0.04895 H
  
  -----------------------------------------------------------------------
  Completed first pass over input file geometry.in .
  -----------------------------------------------------------------------
  

  Basic array size parameters:
  | Number of species                 :        4
  | Number of atoms                   :       13
  | Max. basis fn. angular momentum   :        2
  | Max. atomic/ionic basis occupied n:        2
  | Max. number of basis fn. types    :        2
  | Max. radial fns per species/type  :        3
  | Max. logarithmic grid size        :     1301
  | Max. radial integration grid size :       36
  | Max. angular integration grid size:      302
  | Max. angular grid division number :        8
  | Radial grid for Hartree potential :     1301
  | Number of spin channels           :        1

------------------------------------------------------------
          Reading file control.in.
------------------------------------------------------------
  XC: Using PBE gradient-corrected functionals.
  Spin treatment: No spin polarisation.
  Non-relativistic treatment of kinetic energy.
  Charge =   0.000000E+00: Neutral system requested explicitly.
  Occupation type: Gaussian broadening, width =   0.100000E-01 eV.
  Using pulay charge density mixing.
  Pulay mixing - number of memorized iterations:   10
  Charge density mixing - mixing parameter:     0.2000
  Convergence accuracy of self-consistent charge density:  0.1000E-04
  Convergence accuracy of sum of eigenvalues:  0.1000E-02
  Convergence accuracy of total energy:  0.1000E-05
  Convergence accuracy of forces:  0.1000E-03
  Maximum number of s.-c. iterations  :   100
 
  Reading configuration options for species H                   .
  | Found nuclear charge :   1.0000
  | Found atomic mass :    1.00794000000000      amu
  | Found l_max for Hartree potential  :   4
  | Found cutoff potl. onset [A], width [A], scale factor :    3.50000    1.50000    1.00000
  | Threshold for basis-dependent cutoff potential is   0.100000E-03
  | Found data for basic radial integration grid :    24 points, outermost radius =    5.000 A
  | Found multiplier for basic radial grid :   1
  | Found angular grid specification: user-specified.
  | Specified grid contains     5 separate shells.
  | Check grid settings after all constraints further below.
  | Found free-atom valence shell :  1 s   1.000
  | No ionic wave fns used. Skipping ion_occ.
  | Found hydrogenic basis function :  2 s   2.100
  | Found hydrogenic basis function :  2 p   3.500
  Species H                   : Missing cutoff potential type.
  Defaulting to exp(1/x)/(1-x)^2 type cutoff potential.
  Species H : No 'logarithmic' tag. Using default grid for free atom:
  | Default logarithmic grid data [bohr] : 0.1000E-03 0.1000E+03 0.1012E+01
  Species H : On-site basis accuracy parameter (for Gram-Schmidt orthonormalisation) not specified.
  Using default value basis_acc =  0.1000000E-03.
  Species H                   : Using default innermost maximum threshold i_radial=  2 for radial functions.
  Species H                   : Default cutoff onset for free atom density etc. : 0.35000000E+01 AA.
  Species H                   : Basic radial grid will be enhanced according to radial_multiplier =   1, to contain    24 grid points.
 
  Reading configuration options for species C                   .
  | Found nuclear charge :   6.0000
  | Found atomic mass :    12.0107000000000      amu
  | Found l_max for Hartree potential  :   4
  | Found cutoff potl. onset [A], width [A], scale factor :    3.50000    1.50000    1.00000
  | Threshold for basis-dependent cutoff potential is   0.100000E-03
  | Found data for basic radial integration grid :    34 points, outermost radius =    5.000 A
  | Found multiplier for basic radial grid :   1
  | Found angular grid specification: user-specified.
  | Specified grid contains     5 separate shells.
  | Check grid settings after all constraints further below.
  | Found free-atom valence shell :  2 s   2.000
  | Found free-atom valence shell :  2 p   2.000
  | No ionic wave fns used. Skipping ion_occ.
  | No ionic wave fns used. Skipping ion_occ.
  | Found hydrogenic basis function :  2 p   1.700
  | Found hydrogenic basis function :  3 d   6.000
  | Found hydrogenic basis function :  2 s   4.900
  Species C                   : Missing cutoff potential type.
  Defaulting to exp(1/x)/(1-x)^2 type cutoff potential.
  Species C : No 'logarithmic' tag. Using default grid for free atom:
  | Default logarithmic grid data [bohr] : 0.1000E-03 0.1000E+03 0.1012E+01
  Species C : On-site basis accuracy parameter (for Gram-Schmidt orthonormalisation) not specified.
  Using default value basis_acc =  0.1000000E-03.
  Species C                   : Using default innermost maximum threshold i_radial=  2 for radial functions.
  Species C                   : Default cutoff onset for free atom density etc. : 0.35000000E+01 AA.
  Species C                   : Basic radial grid will be enhanced according to radial_multiplier =   1, to contain    34 grid points.
 
  Reading configuration options for species N                   .
  | Found nuclear charge :   7.0000
  | Found atomic mass :    14.0067000000000      amu
  | Found l_max for Hartree potential  :   4
  | Found cutoff potl. onset [A], width [A], scale factor :    3.50000    1.50000    1.00000
  | Threshold for basis-dependent cutoff potential is   0.100000E-03
  | Found data for basic radial integration grid :    35 points, outermost radius =    5.000 A
  | Found multiplier for basic radial grid :   1
  | Found angular grid specification: user-specified.
  | Specified grid contains     5 separate shells.
  | Check grid settings after all constraints further below.
  | Found free-atom valence shell :  2 s   2.000
  | Found free-atom valence shell :  2 p   3.000
  | No ionic wave fns used. Skipping ion_occ.
  | No ionic wave fns used. Skipping ion_occ.
  | Found hydrogenic basis function :  2 p   1.800
  | Found hydrogenic basis function :  3 d   6.800
  | Found hydrogenic basis function :  3 s   5.800
  Species N                   : Missing cutoff potential type.
  Defaulting to exp(1/x)/(1-x)^2 type cutoff potential.
  Species N : No 'logarithmic' tag. Using default grid for free atom:
  | Default logarithmic grid data [bohr] : 0.1000E-03 0.1000E+03 0.1012E+01
  Species N : On-site basis accuracy parameter (for Gram-Schmidt orthonormalisation) not specified.
  Using default value basis_acc =  0.1000000E-03.
  Species N                   : Using default innermost maximum threshold i_radial=  2 for radial functions.
  Species N                   : Default cutoff onset for free atom density etc. : 0.35000000E+01 AA.
  Species N                   : Basic radial grid will be enhanced according to radial_multiplier =   1, to contain    35 grid points.
 
  Reading configuration options for species O                   .
  | Found nuclear charge :   8.0000
  | Found atomic mass :    15.9994000000000      amu
  | Found l_max for Hartree potential  :   4
  | Found cutoff potl. onset [A], width [A], scale factor :    3.50000    1.50000    1.00000
  | Threshold for basis-dependent cutoff potential is   0.100000E-03
  | Found data for basic radial integration grid :    36 points, outermost radius =    5.000 A
  | Found multiplier for basic radial grid :   1
  | Found angular grid specification: user-specified.
  | Specified grid contains     5 separate shells.
  | Check grid settings after all constraints further below.
  | Found free-atom valence shell :  2 s   2.000
  | Found free-atom valence shell :  2 p   4.000
  | No ionic wave fns used. Skipping ion_occ.
  | No ionic wave fns used. Skipping ion_occ.
  | Found hydrogenic basis function :  2 p   1.800
  | Found hydrogenic basis function :  3 d   7.600
  | Found hydrogenic basis function :  3 s   6.400
  Species O                   : Missing cutoff potential type.
  Defaulting to exp(1/x)/(1-x)^2 type cutoff potential.
  Species O : No 'logarithmic' tag. Using default grid for free atom:
  | Default logarithmic grid data [bohr] : 0.1000E-03 0.1000E+03 0.1012E+01
  Species O : On-site basis accuracy parameter (for Gram-Schmidt orthonormalisation) not specified.
  Using default value basis_acc =  0.1000000E-03.
  Species O                   : Using default innermost maximum threshold i_radial=  2 for radial functions.
  Species O                   : Default cutoff onset for free atom density etc. : 0.35000000E+01 AA.
  Species O                   : Basic radial grid will be enhanced according to radial_multiplier =   1, to contain    36 grid points.
 
  Finished reading input file 'control.in'. Consistency checks are next.
 
  MPI_IN_PLACE appears to work with this MPI implementation.
  | Keeping use_mpi_in_place .true. (see manual).
  Target number of points in a grid batch is not set. Defaulting to  100
  Method for grid partitioning is not set. Defaulting to parallel hash+maxmin partitioning.
  Batch size limit is not set. Defaulting to    200
  By default, will store active basis functions for each batch.
  If in need of memory, prune_basis_once .false. can be used to disable this option.
  communication_type for Hartree potential was not specified.
  Defaulting to calc_hartree .
  Pulay mixer: Number of initial linear mixing iterations not set.
  Defaulting to    0 iterations.
  Work space size for distributed Hartree potential not set.
  Defaulting to   0.200000E+03 MB.
  Algorithm-dependent basis array size parameters:
  | n_max_pulay                         :       10
  Presetting      1001 iterations before the initial mixing cycle
  is restarted anyway using the sc_init_iter criterion / keyword.
  Presetting a factor      1.000 between actual scf density residual
  and density convergence criterion sc_accuracy_rho below which sc_init_iter
  takes no effect.
  Geometry relaxation not requested: no relaxation will be performed.
  Handling of forces: Unphysical translation and rotation will be removed from forces.
  No accuracy limit for integral partition fn. given. Defaulting to  0.1000E-14.
  No threshold value for u(r) in integrations given. Defaulting to  0.1000E-05.
  No accuracy for occupation numbers given. Defaulting to  0.1000E-12.
  No threshold value for occupation numbers given. Defaulting to  0.0000E+00.
  No accuracy for fermi level given. Defaulting to  0.1000E-19.
  Maximum # of iterations to find E_F not set. Defaulting to  200.
  Preferred method for the eigenvalue solver ('KS_method') not specified in 'control.in'.
  Defaulting to serial version, 'lapack_fast'.
  Will not use alltoall communication since running on < 1024 CPUs.
  Threshold for basis singularities not set.
  Default threshold for basis singularities:  0.1000E-04
  partition_type (choice of integration weights) for integrals was not specified.
  | Using a version of the partition function of Stratmann and coworkers ('stratmann_smoother').
  | At each grid point, the set of atoms used to build the partition table is smoothly restricted to
  | only those atoms whose free-atom density would be non-zero at that grid point.
  Partitioning for Hartree potential was not defined. Using partition_type for integrals.
  | Adjusted default value of keyword multip_moments_threshold to:       0.10000000E-11
  | This value may affect high angular momentum components of the Hartree potential in periodic systems.
  No q(lm)/r^(l+1) cutoff set for long-range Hartree potential.
  | Using default value of  0.100000E-09 .
  | Verify using the multipole_threshold keyword.
  Defaulting to new monopole extrapolation.
  Density update method: automatic selection selected.
------------------------------------------------------------


------------------------------------------------------------
          Reading geometry description geometry.in.
------------------------------------------------------------
  Input structure read successfully.
  The structure contains       13 atoms,  and a total of         48.000 electrons.

  Input geometry:
  | No unit cell requested.
  | Atomic structure:
  |       Atom                x [A]            y [A]            z [A]
  |    1: Species C             0.00000000        0.00000000        0.00000000
  |    2: Species H             1.09300000        0.00000000        0.00000000
  |    3: Species N            -0.47961000        0.00000000       -1.41207000
  |    4: Species H            -1.45972000        0.28469000       -1.42461000
  |    5: Species H             0.08418000        0.65592000       -1.94876000
  |    6: Species C            -0.49584000        1.26211000        0.72868000
  |    7: Species H            -1.58789000        1.28919000        0.74431000
  |    8: Species H            -0.13407000        1.27425000        1.75947000
  |    9: Species H            -0.13407000        2.16087000        0.22380000
  |   10: Species C            -0.39425000       -1.28861000        0.74398000
  |   11: Species O            -0.10189000       -1.56493000        1.88303000
  |   12: Species O            -1.10210000       -2.13717000        0.06896000
  |   13: Species H            -1.89986000       -1.59435000       -0.04895000
  |

  | The smallest distance between any two atoms is         0.97209945 AA.
  |
  | The first atom of this pair is atom number                     12 .
  | The second atom of this pair is atom number                    13 .

  Number of empty states per atom not set in control.in - providing a guess from actual geometry.
  | Total number of empty states used during s.c.f. cycle:       29
  If you use a very high smearing, use empty_states (per atom!) in control.in to increase this value.

  Structure-dependent array size parameters: 
  | Maximum number of distinct radial functions  :       21
  | Maximum number of basis functions            :      119
  | Number of Kohn-Sham states (occupied + empty):       53
------------------------------------------------------------

------------------------------------------------------------
          Preparing all fixed parts of the calculation.
------------------------------------------------------------
  Determining machine precision:
    2.225073858507201E-308
  Setting up grids for atomic and cluster calculations.

  Creating wave function, potential, and density for free atoms.

  Species: H

  List of occupied orbitals and eigenvalues:
    n    l              occ      energy [Ha]    energy [eV]
    1    0           1.0000        -0.237589        -6.4651


  Species: C

  List of occupied orbitals and eigenvalues:
    n    l              occ      energy [Ha]    energy [eV]
    1    0           2.0000       -10.038835      -273.1706
    2    0           2.0000        -0.502696       -13.6791
    2    1           2.0000        -0.191971        -5.2238


  Species: N

  List of occupied orbitals and eigenvalues:
    n    l              occ      energy [Ha]    energy [eV]
    1    0           2.0000       -14.128000      -384.4424
    2    0           2.0000        -0.681077       -18.5330
    2    1           3.0000        -0.259788        -7.0692


  Species: O

  List of occupied orbitals and eigenvalues:
    n    l              occ      energy [Ha]    energy [eV]
    1    0           2.0000       -18.898188      -514.2459
    2    0           2.0000        -0.878505       -23.9053
    2    1           4.0000        -0.331779        -9.0282

  Creating fixed part of basis set: Ionic, confined, hydrogenic.
 
  H                    hydrogenic:
 
  List of hydrogenic basis orbitals: 
    n    l      effective z      eigenvalue [eV]  inner max. [A]     outer max. [A]     outer radius [A]   
    2    0         2.100000       -14.9728           0.193243           1.317208           4.583499
    2    1         3.500000       -41.6669           0.602369           0.602369           3.723403
 
 
  C                    hydrogenic:
 
  List of hydrogenic basis orbitals: 
    n    l      effective z      eigenvalue [eV]  inner max. [A]     outer max. [A]     outer radius [A]   
    2    1         1.700000        -9.7616           1.230570           1.230570           4.607917
    3    2         6.000000       -54.4224           0.792453           0.792453           3.883070
    2    0         4.900000       -81.6679           0.082559           0.562749           3.078220
 
 
  N                    hydrogenic:
 
  List of hydrogenic basis orbitals: 
    n    l      effective z      eigenvalue [eV]  inner max. [A]     outer max. [A]     outer radius [A]   
    2    1         1.800000       -10.9749           1.177451           1.177451           4.573712
    3    2         6.800000       -69.9026           0.704619           0.704619           3.538137
    3    0         5.800000       -50.8545           0.067388           1.191934           4.250239
 
 
  O                    hydrogenic:
 
  List of hydrogenic basis orbitals: 
    n    l      effective z      eigenvalue [eV]  inner max. [A]     outer max. [A]     outer radius [A]   
    2    1         1.800000       -10.9749           1.164242           1.164242           4.578029
    3    2         7.600000       -87.3180           0.624125           0.624125           3.251020
    3    0         6.400000       -61.9207           0.061167           1.081902           4.001998
 

  Adding cutoff potential to free-atom effective potential.
  Creating atomic-like basis functions for current effective potential.

  Species H                   :

  List of atomic basis orbitals and eigenvalues:
    n    l      energy [Ha]    energy [eV]    outer radius [A]
    1    0        -0.237589        -6.4651       4.527807


  Species C                   :

  List of atomic basis orbitals and eigenvalues:
    n    l      energy [Ha]    energy [eV]    outer radius [A]
    1    0       -10.038835      -273.1706       1.934409
    2    0        -0.502696       -13.6791       4.496620
    2    1        -0.191971        -5.2238       4.551928


  Species N                   :

  List of atomic basis orbitals and eigenvalues:
    n    l      energy [Ha]    energy [eV]    outer radius [A]
    1    0       -14.128000      -384.4424       1.637919
    2    0        -0.681077       -18.5330       4.463241
    2    1        -0.259788        -7.0692       4.518138


  Species O                   :

  List of atomic basis orbitals and eigenvalues:
    n    l      energy [Ha]    energy [eV]    outer radius [A]
    1    0       -18.898188      -514.2459       1.415765
    2    0        -0.878505       -23.9053       4.413171
    2    1        -0.331779        -9.0282       4.522403

  Assembling full basis from fixed parts.
  | Species H :   atomic orbital   1 s accepted.
  | Species H :    hydro orbital   2 s accepted.
  | Species H :    hydro orbital   2 p accepted.
  | Species C :   atomic orbital   1 s accepted.
  | Species C :    hydro orbital   2 s accepted.
  | Species C :   atomic orbital   2 s accepted.
  | Species C :   atomic orbital   2 p accepted.
  | Species C :    hydro orbital   2 p accepted.
  | Species C :    hydro orbital   3 d accepted.
  | Species N :   atomic orbital   1 s accepted.
  | Species N :    hydro orbital   3 s accepted.
  | Species N :   atomic orbital   2 s accepted.
  | Species N :   atomic orbital   2 p accepted.
  | Species N :    hydro orbital   2 p accepted.
  | Species N :    hydro orbital   3 d accepted.
  | Species O :   atomic orbital   1 s accepted.
  | Species O :    hydro orbital   3 s accepted.
  | Species O :   atomic orbital   2 s accepted.
  | Species O :   atomic orbital   2 p accepted.
  | Species O :    hydro orbital   2 p accepted.
  | Species O :    hydro orbital   3 d accepted.
 
  Basis size parameters after reduction:
  | Total number of radial functions:       21
  | Total number of basis functions :      119
 
  Per-task memory consumption for arrays in subroutine allocate_ext:
  |           5.250512MB.
  Testing on-site integration grid accuracy.
  |  Species  Function  <phi|h_atom|phi> (log., in eV)  <phi|h_atom|phi> (rad., in eV)
           1        1                 -6.4663192853                 -6.4651273558
           1        2                 13.7111246313                 13.7170609718
           1        3                 25.2673269279                 25.2674696378
           2        4               -273.1705927641               -273.1705631568
           2        5                -10.7109323383                -10.7107120029
           2        6                 17.4381822266                 17.4352413244
           2        7                 -5.2255326521                 -5.2270484734
           2        8                  8.6835629259                  8.6603288385
           2        9                 27.4952418996                 27.4953360207
           3       10               -384.4424306495               -384.4423701208
           3       11                 12.5842251816                 12.5842222903
           3       12                -15.7264628251                -15.7264433455
           3       13                 -7.0696854293                 -7.0701769954
           3       14                  8.8090390882                  8.7901077751
           3       15                 35.9586762123                 35.9588528632
           4       16               -514.2458688638               -514.2457643834
           4       17                 15.1795651126                 15.1795290741
           4       18                -21.5359799773                -21.5360846186
           4       19                 -9.0283069236                 -9.0284644067
           4       20                  8.3027758564                  8.2834874195
           4       21                 45.8339351984                 45.8338762259

  Preparing densities etc. for the partition functions (integrals / Hartree potential).

  Preparations completed.
  max(cpu_time)          :      0.146 s.
  Wall clock time (cpu1) :      0.147 s.
------------------------------------------------------------

------------------------------------------------------------
          Begin self-consistency loop: Initialization.

          Date     :  20200902, Time     :  104540.441
------------------------------------------------------------

  Initializing index lists of integration centers etc. from given atomic structure:
  | Number of centers in hartree potential         :        13
  | Number of centers in hartree multipole         :        13
  | Number of centers in electron density summation:        13
  | Number of centers in basis integrals           :        13
  | Number of centers in integrals                 :        13
  | Number of centers in hamiltonian               :        13
  Partitioning the integration grid into batches with parallel hashing+maxmin method.
  | Number of batches:      961
  | Maximal batch size:     138
  | Minimal batch size:      66
  | Average batch size:      72.472
  | Standard deviation of batch sizes:      16.883

  Integration load balanced across     1 MPI tasks.
  Work distribution over tasks is as follows:
  Task     0 has      69646 integration points.
  Initializing partition tables, free-atom densities, potentials, etc. across the integration grid (initialize_grid_storage).
  | initialize_grid_storage: Actual outermost partition radius vs. multipole_radius_free
  | (-- VB: in principle, multipole_radius_free should be larger, hence this output)
  | Species        1: Confinement radius =              4.999999999999999 AA, multipole_radius_free =              5.054417573612229 AA.
  | Species        1: outer_partition_radius set to              5.054417573612229 AA .
  | Species        2: Confinement radius =              4.999999999999999 AA, multipole_radius_free =              5.019602836301480 AA.
  | Species        2: outer_partition_radius set to              5.019602836301480 AA .
  | Species        3: Confinement radius =              4.999999999999999 AA, multipole_radius_free =              5.043624274424571 AA.
  | Species        3: outer_partition_radius set to              5.043624274424571 AA .
  | Species        4: Confinement radius =              4.999999999999999 AA, multipole_radius_free =              5.048384829883283 AA.
  | Species        4: outer_partition_radius set to              5.048384829883283 AA .
  | Original list of interatomic distances with          13 x         13 entries is created.
  | Net number of integration points:    69646
  | of which are non-zero points    :    59419
  Renormalizing the initial density to the exact electron count on the 3D integration grid.
  | Initial density: Formal number of electrons (from input files) :      48.0000000000
  | Integrated number of electrons on 3D grid     :      48.0000064290
  | Charge integration error                      :       0.0000064290
  | Normalization factor for density and gradient :       0.9999998661
  Obtaining max. number of non-zero basis functions in each batch (get_n_compute_maxes).
  | Maximal number of non-zero basis functions:      119 in task     0
  Selecting the method for density update.
  Loop over occupied states selected for charge density update.
  Allocating        0.050 MB for KS_eigenvector
  Integrating Hamiltonian matrix: batch-based integration.
  Time summed over all CPUs for integration: real work        0.494 s, elapsed        0.494 s
  Integrating overlap matrix.
  Time summed over all CPUs for integration: real work        0.212 s, elapsed        0.212 s

  Updating Kohn-Sham eigenvalues and eigenvectors using ELSI and the ELPA eigensolver.
  Overlap matrix is nonsingular
  | Lowest eigenvalue of overlap  :  0.51E-02
  | Highest eigenvalue of overlap :  0.63E+01
  Finished singularity check of overlap matrix
  | Time :     0.002 s
  Finished Cholesky decomposition
  | Time :     0.000 s
  Finished transformation to standard eigenproblem
  | Time :     0.000 s
  Starting LAPACK eigensolver
  Finished solving standard eigenproblem
  | Time :     0.002 s
  Finished back-transformation of eigenvectors
  | Time :     0.000 s

  Obtaining occupation numbers and chemical potential using ELSI.
  | Chemical potential (Fermi level):    -8.59633063eV
  Writing Kohn-Sham eigenvalues.

  State    Occupation    Eigenvalue [Ha]    Eigenvalue [eV]
      1       2.00000         -19.007527         -517.22112
      2       2.00000         -18.977191         -516.39563
      3       2.00000         -14.245983         -387.65293
      4       2.00000         -10.166815         -276.65312
      5       2.00000         -10.141467         -275.96336
      6       2.00000         -10.131909         -275.70328
      7       2.00000          -1.182086          -32.16619
      8       2.00000          -1.098801          -29.89989
      9       2.00000          -0.992071          -26.99561
     10       2.00000          -0.858465          -23.36003
     11       2.00000          -0.756975          -20.59835
     12       2.00000          -0.678294          -18.45733
     13       2.00000          -0.638695          -17.37977
     14       2.00000          -0.602308          -16.38963
     15       2.00000          -0.572953          -15.59084
     16       2.00000          -0.571580          -15.55350
     17       2.00000          -0.553382          -15.05830
     18       2.00000          -0.541734          -14.74133
     19       2.00000          -0.523744          -14.25181
     20       2.00000          -0.490095          -13.33618
     21       2.00000          -0.462323          -12.58045
     22       2.00000          -0.423803          -11.53226
     23       2.00000          -0.410084          -11.15895
     24       2.00000          -0.385790          -10.49788
     25       0.00000          -0.159152           -4.33075
     26       0.00000          -0.073750           -2.00683
     27       0.00000          -0.031283           -0.85126
     28       0.00000          -0.017939           -0.48813
     29       0.00000           0.005916            0.16098
     30       0.00000           0.008154            0.22189
     31       0.00000           0.019350            0.52653
     32       0.00000           0.038430            1.04574
     33       0.00000           0.043872            1.19381
     34       0.00000           0.063047            1.71560
     35       0.00000           0.083741            2.27872
     36       0.00000           0.133797            3.64080
     37       0.00000           0.159879            4.35053
     38       0.00000           0.204884            5.57517
     39       0.00000           0.219612            5.97594
     40       0.00000           0.226275            6.15725
     41       0.00000           0.246720            6.71360
     42       0.00000           0.273245            7.43537
     43       0.00000           0.283739            7.72092
     44       0.00000           0.295246            8.03406
     45       0.00000           0.331805            9.02886
     46       0.00000           0.344014            9.36110
     47       0.00000           0.372978           10.14925
     48       0.00000           0.396827           10.79822
     49       0.00000           0.426769           11.61297
     50       0.00000           0.461979           12.57109
     51       0.00000           0.518097           14.09814
     52       0.00000           0.535236           14.56452
     53       0.00000           0.603351           16.41800

  Highest occupied state (VBM) at    -10.49788165 eV
  | Occupation number:      2.00000000

  Lowest unoccupied state (CBM) at    -4.33075183 eV
  | Occupation number:      0.00000000

  Overall HOMO-LUMO gap:      6.16712982 eV.
  Calculating total energy contributions from superposition of free atom densities.

  Total energy components:
  | Sum of eigenvalues            :        -188.82815239 Ha       -5138.27545909 eV
  | XC energy correction          :         -41.78781102 Ha       -1137.10419296 eV
  | XC potential correction       :          53.71893144 Ha        1461.76649824 eV
  | Free-atom electrostatic energy:        -146.86124334 Ha       -3996.29776054 eV
  | Hartree energy correction     :           0.00000000 Ha           0.00000000 eV
  | vdW energy correction         :           0.00000000 Ha           0.00000000 eV
  | Entropy correction            :           0.00000000 Ha           0.00000000 eV
  | ---------------------------
  | Total energy                  :        -323.75827530 Ha       -8809.91091435 eV
  | Total energy, T -> 0          :        -323.75827530 Ha       -8809.91091435 eV  <-- do not rely on this value for anything but (periodic) metals
  | Electronic free energy        :        -323.75827530 Ha       -8809.91091435 eV

  Derived energy quantities:
  | Kinetic energy                :         320.49516968 Ha        8721.11729257 eV
  | Electrostatic energy          :        -602.46563397 Ha      -16393.92401396 eV
  | Energy correction for multipole
  | error in Hartree potential    :           0.00000000 Ha           0.00000000 eV
  | Sum of eigenvalues per atom                           :        -395.25195839 eV
  | Total energy (T->0) per atom                          :        -677.68545495 eV  <-- do not rely on this value for anything but (periodic) metals
  | Electronic free energy per atom                       :        -677.68545495 eV
  Initialize hartree_potential_storage
  Max. number of atoms included in rho_multipole:           13

  End scf initialization - timings             :  max(cpu_time)    wall_clock(cpu1)
  | Time for scf. initialization               :        1.148 s           1.150 s
  | Boundary condition initialization          :        0.000 s           0.000 s
  | Integration                                :        0.706 s           0.707 s
  | Solution of K.-S. eqns.                    :        0.004 s           0.004 s
  | Grid partitioning                          :        0.111 s           0.112 s
  | Preloading free-atom quantities on grid    :        0.002 s           0.003 s
  | Free-atom superposition energy             :        0.084 s           0.084 s
  | Total energy evaluation                    :        0.000 s           0.000 s

  Partial memory accounting:
  | Current value for overall tracked memory usage on task 0  :           0.165 MB
  | Peak value for overall tracked memory usage on task 0     :           0.676 MB after allocating wave
  | Largest tracked array allocation on task 0 so far         :           0.131 MB  when allocating H_times_psi
  Note:  These values currently only include a subset of arrays which are explicitly tracked.
  The "true" memory usage will be greater.
------------------------------------------------------------

------------------------------------------------------------
          Begin self-consistency iteration #    1

  Date     :  20200902, Time     :  104541.591
------------------------------------------------------------
  Evaluating new KS density.
  Integration grid: deviation in total charge (<rho> - N_e) =   4.973799E-14
  Pulay mixing of updated and previous charge densities.

  Evaluating partitioned Hartree potential by multipole expansion.
  | Analytical far-field extrapolation by fixed multipoles:
  | Hartree multipole sum: apparent total charge =  -0.103773E-03
  Summing up the Hartree potential.
  Time summed over all CPUs for potential: real work        0.281 s, elapsed        0.281 s
  | RMS charge density error from multipole expansion :   0.586910E-02

  Integrating Hamiltonian matrix: batch-based integration.
  Time summed over all CPUs for integration: real work        0.495 s, elapsed        0.495 s

  Updating Kohn-Sham eigenvalues and eigenvectors using ELSI and the ELPA eigensolver.
  Finished Cholesky decomposition
  | Time :     0.000 s
  Finished transformation to standard eigenproblem
  | Time :     0.000 s
  Starting LAPACK eigensolver
  Finished solving standard eigenproblem
  | Time :     0.001 s
  Finished back-transformation of eigenvectors
  | Time :     0.000 s

  Obtaining occupation numbers and chemical potential using ELSI.
  | Chemical potential (Fermi level):    -7.46657769eV
  Writing Kohn-Sham eigenvalues.

  State    Occupation    Eigenvalue [Ha]    Eigenvalue [eV]
      1       2.00000         -18.894346         -514.14132
      2       2.00000         -18.835918         -512.55142
      3       2.00000         -14.100421         -383.69199
      4       2.00000         -10.114881         -275.23991
      5       2.00000         -10.065284         -273.89031
      6       2.00000         -10.034558         -273.05422
      7       2.00000          -1.128976          -30.72100
      8       2.00000          -1.033353          -28.11896
      9       2.00000          -0.925192          -25.17577
     10       2.00000          -0.795227          -21.63922
     11       2.00000          -0.705768          -19.20492
     12       2.00000          -0.630715          -17.16264
     13       2.00000          -0.588647          -16.01790
     14       2.00000          -0.540490          -14.70747
     15       2.00000          -0.518189          -14.10064
     16       2.00000          -0.509835          -13.87333
     17       2.00000          -0.488917          -13.30412
     18       2.00000          -0.482785          -13.13725
     19       2.00000          -0.463387          -12.60940
     20       2.00000          -0.437986          -11.91822
     21       2.00000          -0.400073          -10.88653
     22       2.00000          -0.364550           -9.91992
     23       2.00000          -0.336321           -9.15177
     24       2.00000          -0.312185           -8.49499
     25       0.00000          -0.121800           -3.31433
     26       0.00000          -0.054368           -1.47943
     27       0.00000           0.000804            0.02187
     28       0.00000           0.014979            0.40760
     29       0.00000           0.028440            0.77389
     30       0.00000           0.044394            1.20803
     31       0.00000           0.059154            1.60967
     32       0.00000           0.071388            1.94256
     33       0.00000           0.084343            2.29509
     34       0.00000           0.099704            2.71308
     35       0.00000           0.122909            3.34452
     36       0.00000           0.163383            4.44588
     37       0.00000           0.186050            5.06269
     38       0.00000           0.233422            6.35173
     39       0.00000           0.252749            6.87765
     40       0.00000           0.263302            7.16482
     41       0.00000           0.276567            7.52577
     42       0.00000           0.307569            8.36938
     43       0.00000           0.317151            8.63012
     44       0.00000           0.330626            8.99679
     45       0.00000           0.368970           10.04017
     46       0.00000           0.382884           10.41881
     47       0.00000           0.418227           11.38053
     48       0.00000           0.435121           11.84026
     49       0.00000           0.461691           12.56326
     50       0.00000           0.495253           13.47653
     51       0.00000           0.556186           15.13460
     52       0.00000           0.568193           15.46133
     53       0.00000           0.641344           17.45185

  Highest occupied state (VBM) at     -8.49498791 eV
  | Occupation number:      2.00000000

  Lowest unoccupied state (CBM) at    -3.31433410 eV
  | Occupation number:      0.00000000

  Overall HOMO-LUMO gap:      5.18065381 eV.

  Total energy components:
  | Sum of eigenvalues            :        -185.41601179 Ha       -5045.42638932 eV
  | XC energy correction          :         -42.11765464 Ha       -1146.07969457 eV
  | XC potential correction       :          54.14793698 Ha        1473.44033315 eV
  | Free-atom electrostatic energy:        -146.86124334 Ha       -3996.29776054 eV
  | Hartree energy correction     :          -3.32544169 Ha         -90.48987246 eV
  | vdW energy correction         :           0.00000000 Ha           0.00000000 eV
  | Entropy correction            :           0.00000000 Ha           0.00000000 eV
  | ---------------------------
  | Total energy                  :        -323.57241447 Ha       -8804.85338375 eV
  | Total energy, T -> 0          :        -323.57241447 Ha       -8804.85338375 eV  <-- do not rely on this value for anything but (periodic) metals
  | Electronic free energy        :        -323.57241447 Ha       -8804.85338375 eV

  Derived energy quantities:
  | Kinetic energy                :         322.29797299 Ha        8770.17406672 eV
  | Electrostatic energy          :        -603.75273283 Ha      -16428.94775589 eV
  | Energy correction for multipole
  | error in Hartree potential    :           0.01166010 Ha           0.31728756 eV
  | Sum of eigenvalues per atom                           :        -388.10972226 eV
  | Total energy (T->0) per atom                          :        -677.29641413 eV  <-- do not rely on this value for anything but (periodic) metals
  | Electronic free energy per atom                       :        -677.29641413 eV

  Self-consistency convergence accuracy:
  | Change of charge density      :  0.5878E+00
  | Change of sum of eigenvalues  :  0.9285E+02 eV
  | Change of total energy        :  0.5058E+01 eV

  End self-consistency iteration #     1       :  max(cpu_time)    wall_clock(cpu1)
  | Time for this iteration                    :        1.188 s           1.190 s
  | Charge density update                      :        0.394 s           0.396 s
  | Density mixing                             :        0.005 s           0.005 s
  | Hartree multipole update                   :        0.009 s           0.009 s
  | Hartree multipole summation                :        0.282 s           0.283 s
  | Integration                                :        0.495 s           0.495 s
  | Solution of K.-S. eqns.                    :        0.002 s           0.002 s
  | Total energy evaluation                    :        0.000 s           0.000 s

  Partial memory accounting:
  | Current value for overall tracked memory usage on task 0  :           0.165 MB
  | Peak value for overall tracked memory usage on task 0     :           0.691 MB after allocating gradient_basis_wave
  | Largest tracked array allocation on task 0 so far         :           0.394 MB  when allocating gradient_basis_wave
  Note:  These values currently only include a subset of arrays which are explicitly tracked.
  The "true" memory usage will be greater.
------------------------------------------------------------

------------------------------------------------------------
          Begin self-consistency iteration #    2

  Date     :  20200902, Time     :  104542.784
------------------------------------------------------------
  Evaluating new KS density.
  Integration grid: deviation in total charge (<rho> - N_e) =   6.394885E-14
  Pulay mixing of updated and previous charge densities.

  Evaluating partitioned Hartree potential by multipole expansion.
  | Analytical far-field extrapolation by fixed multipoles:
  | Hartree multipole sum: apparent total charge =  -0.243835E-03
  Summing up the Hartree potential.
  Time summed over all CPUs for potential: real work        0.288 s, elapsed        0.288 s
  | RMS charge density error from multipole expansion :   0.138764E-01

  Integrating Hamiltonian matrix: batch-based integration.
  Time summed over all CPUs for integration: real work        0.495 s, elapsed        0.495 s

  Updating Kohn-Sham eigenvalues and eigenvectors using ELSI and the ELPA eigensolver.
  Finished Cholesky decomposition
  | Time :     0.000 s
  Finished transformation to standard eigenproblem
  | Time :     0.000 s
  Starting LAPACK eigensolver
  Finished solving standard eigenproblem
  | Time :     0.002 s
  Finished back-transformation of eigenvectors
  | Time :     0.000 s

  Obtaining occupation numbers and chemical potential using ELSI.
  | Chemical potential (Fermi level):    -6.21930169eV
  Highest occupied state (VBM) at     -6.51544047 eV
  | Occupation number:      2.00000000

  Lowest unoccupied state (CBM) at    -2.03889274 eV
  | Occupation number:      0.00000000

  Overall HOMO-LUMO gap:      4.47654773 eV.

  Checking to see if s.c.f. parameters should be adjusted.

  Total energy components:
  | Sum of eigenvalues            :        -181.85560970 Ha       -4948.54291903 eV
  | XC energy correction          :         -42.47498202 Ha       -1155.80306730 eV
  | XC potential correction       :          54.61110920 Ha        1486.04389044 eV
  | Free-atom electrostatic energy:        -146.86124334 Ha       -3996.29776054 eV
  | Hartree energy correction     :          -6.91102510 Ha        -188.05856126 eV
  | vdW energy correction         :           0.00000000 Ha           0.00000000 eV
  | Entropy correction            :           0.00000000 Ha           0.00000000 eV
  | ---------------------------
  | Total energy                  :        -323.49175095 Ha       -8802.65841769 eV
  | Total energy, T -> 0          :        -323.49175095 Ha       -8802.65841769 eV  <-- do not rely on this value for anything but (periodic) metals
  | Electronic free energy        :        -323.49175095 Ha       -8802.65841769 eV

  Derived energy quantities:
  | Kinetic energy                :         323.60910312 Ha        8805.85173270 eV
  | Electrostatic energy          :        -604.62587205 Ha      -16452.70708309 eV
  | Energy correction for multipole
  | error in Hartree potential    :           0.02545201 Ha           0.69258436 eV
  | Sum of eigenvalues per atom                           :        -380.65714762 eV
  | Total energy (T->0) per atom                          :        -677.12757059 eV  <-- do not rely on this value for anything but (periodic) metals
  | Electronic free energy per atom                       :        -677.12757059 eV

  Self-consistency convergence accuracy:
  | Change of charge density      :  0.3673E+00
  | Change of sum of eigenvalues  :  0.9688E+02 eV
  | Change of total energy        :  0.2195E+01 eV

  End self-consistency iteration #     2       :  max(cpu_time)    wall_clock(cpu1)
  | Time for this iteration                    :        1.181 s           1.189 s
  | Charge density update                      :        0.387 s           0.388 s
  | Density mixing                             :        0.007 s           0.006 s
  | Hartree multipole update                   :        0.009 s           0.009 s
  | Hartree multipole summation                :        0.282 s           0.288 s
  | Integration                                :        0.495 s           0.496 s
  | Solution of K.-S. eqns.                    :        0.002 s           0.002 s
  | Total energy evaluation                    :        0.000 s           0.000 s

  Partial memory accounting:
  | Current value for overall tracked memory usage on task 0  :           0.166 MB
  | Peak value for overall tracked memory usage on task 0     :           0.691 MB after allocating gradient_basis_wave
  | Largest tracked array allocation on task 0 so far         :           0.394 MB  when allocating gradient_basis_wave
  Note:  These values currently only include a subset of arrays which are explicitly tracked.
  The "true" memory usage will be greater.
------------------------------------------------------------

------------------------------------------------------------
          Begin self-consistency iteration #    3

  Date     :  20200902, Time     :  104543.974
------------------------------------------------------------
  Evaluating new KS density.
  Integration grid: deviation in total charge (<rho> - N_e) =  -2.842171E-14
  Pulay mixing of updated and previous charge densities.

  Evaluating partitioned Hartree potential by multipole expansion.
  | Analytical far-field extrapolation by fixed multipoles:
  | Hartree multipole sum: apparent total charge =  -0.344523E-03
  Summing up the Hartree potential.
  Time summed over all CPUs for potential: real work        0.281 s, elapsed        0.281 s
  | RMS charge density error from multipole expansion :   0.218434E-01

  Integrating Hamiltonian matrix: batch-based integration.
  Time summed over all CPUs for integration: real work        0.495 s, elapsed        0.495 s

  Updating Kohn-Sham eigenvalues and eigenvectors using ELSI and the ELPA eigensolver.
  Finished Cholesky decomposition
  | Time :     0.000 s
  Finished transformation to standard eigenproblem
  | Time :     0.000 s
  Starting LAPACK eigensolver
  Finished solving standard eigenproblem
  | Time :     0.001 s
  Finished back-transformation of eigenvectors
  | Time :     0.000 s

  Obtaining occupation numbers and chemical potential using ELSI.
  | Chemical potential (Fermi level):    -5.64779441eV
  Highest occupied state (VBM) at     -5.83754068 eV
  | Occupation number:      2.00000000

  Lowest unoccupied state (CBM) at    -1.34982585 eV
  | Occupation number:      0.00000000

  Overall HOMO-LUMO gap:      4.48771483 eV.

  Total energy components:
  | Sum of eigenvalues            :        -180.54897651 Ha       -4912.98762096 eV
  | XC energy correction          :         -42.62617663 Ha       -1159.91728198 eV
  | XC potential correction       :          54.80386665 Ha        1491.28908754 eV
  | Free-atom electrostatic energy:        -146.86124334 Ha       -3996.29776054 eV
  | Hartree energy correction     :          -8.24581531 Ha        -224.38005086 eV
  | vdW energy correction         :           0.00000000 Ha           0.00000000 eV
  | Entropy correction            :          -0.00000000 Ha          -0.00000000 eV
  | ---------------------------
  | Total energy                  :        -323.47834513 Ha       -8802.29362680 eV
  | Total energy, T -> 0          :        -323.47834513 Ha       -8802.29362680 eV  <-- do not rely on this value for anything but (periodic) metals
  | Electronic free energy        :        -323.47834513 Ha       -8802.29362680 eV

  Derived energy quantities:
  | Kinetic energy                :         323.19940965 Ha        8794.70340619 eV
  | Electrostatic energy          :        -604.05157816 Ha      -16437.07975101 eV
  | Energy correction for multipole
  | error in Hartree potential    :           0.03578571 Ha           0.97377867 eV
  | Sum of eigenvalues per atom                           :        -377.92212469 eV
  | Total energy (T->0) per atom                          :        -677.09950975 eV  <-- do not rely on this value for anything but (periodic) metals
  | Electronic free energy per atom                       :        -677.09950975 eV

  Self-consistency convergence accuracy:
  | Change of charge density      :  0.2072E+00
  | Change of sum of eigenvalues  :  0.3556E+02 eV
  | Change of total energy        :  0.3648E+00 eV

  End self-consistency iteration #     3       :  max(cpu_time)    wall_clock(cpu1)
  | Time for this iteration                    :        1.181 s           1.183 s
  | Charge density update                      :        0.386 s           0.387 s
  | Density mixing                             :        0.008 s           0.008 s
  | Hartree multipole update                   :        0.009 s           0.009 s
  | Hartree multipole summation                :        0.281 s           0.282 s
  | Integration                                :        0.494 s           0.494 s
  | Solution of K.-S. eqns.                    :        0.002 s           0.003 s
  | Total energy evaluation                    :        0.000 s           0.000 s

  Partial memory accounting:
  | Current value for overall tracked memory usage on task 0  :           0.166 MB
  | Peak value for overall tracked memory usage on task 0     :           0.692 MB after allocating gradient_basis_wave
  | Largest tracked array allocation on task 0 so far         :           0.394 MB  when allocating gradient_basis_wave
  Note:  These values currently only include a subset of arrays which are explicitly tracked.
  The "true" memory usage will be greater.
------------------------------------------------------------

------------------------------------------------------------
          Begin self-consistency iteration #    4

  Date     :  20200902, Time     :  104545.158
------------------------------------------------------------
  Evaluating new KS density.
  Integration grid: deviation in total charge (<rho> - N_e) =  -3.552714E-14
  Pulay mixing of updated and previous charge densities.

  Evaluating partitioned Hartree potential by multipole expansion.
  | Analytical far-field extrapolation by fixed multipoles:
  | Hartree multipole sum: apparent total charge =  -0.379237E-03
  Summing up the Hartree potential.
  Time summed over all CPUs for potential: real work        0.281 s, elapsed        0.281 s
  | RMS charge density error from multipole expansion :   0.253084E-01

  Integrating Hamiltonian matrix: batch-based integration.
  Time summed over all CPUs for integration: real work        0.495 s, elapsed        0.495 s

  Updating Kohn-Sham eigenvalues and eigenvectors using ELSI and the ELPA eigensolver.
  Finished Cholesky decomposition
  | Time :     0.000 s
  Finished transformation to standard eigenproblem
  | Time :     0.000 s
  Starting LAPACK eigensolver
  Finished solving standard eigenproblem
  | Time :     0.002 s
  Finished back-transformation of eigenvectors
  | Time :     0.000 s

  Obtaining occupation numbers and chemical potential using ELSI.
  | Chemical potential (Fermi level):    -5.53659872eV
  Highest occupied state (VBM) at     -5.65490502 eV
  | Occupation number:      2.00000000

  Lowest unoccupied state (CBM) at    -1.25026602 eV
  | Occupation number:      0.00000000

  Overall HOMO-LUMO gap:      4.40463900 eV.

  Total energy components:
  | Sum of eigenvalues            :        -180.40424642 Ha       -4909.04931480 eV
  | XC energy correction          :         -42.66548006 Ha       -1160.98678285 eV
  | XC potential correction       :          54.85330835 Ha        1492.63446466 eV
  | Free-atom electrostatic energy:        -146.86124334 Ha       -3996.29776054 eV
  | Hartree energy correction     :          -8.39960022 Ha        -228.56475115 eV
  | vdW energy correction         :           0.00000000 Ha           0.00000000 eV
  | Entropy correction            :          -0.00000000 Ha          -0.00000000 eV
  | ---------------------------
  | Total energy                  :        -323.47726168 Ha       -8802.26414468 eV
  | Total energy, T -> 0          :        -323.47726168 Ha       -8802.26414468 eV  <-- do not rely on this value for anything but (periodic) metals
  | Electronic free energy        :        -323.47726168 Ha       -8802.26414468 eV

  Derived energy quantities:
  | Kinetic energy                :         322.81133577 Ha        8784.14337861 eV
  | Electrostatic energy          :        -603.62311739 Ha      -16425.42074044 eV
  | Energy correction for multipole
  | error in Hartree potential    :           0.03986314 Ha           1.08473133 eV
  | Sum of eigenvalues per atom                           :        -377.61917806 eV
  | Total energy (T->0) per atom                          :        -677.09724190 eV  <-- do not rely on this value for anything but (periodic) metals
  | Electronic free energy per atom                       :        -677.09724190 eV

  Self-consistency convergence accuracy:
  | Change of charge density      :  0.6784E-01
  | Change of sum of eigenvalues  :  0.3938E+01 eV
  | Change of total energy        :  0.2948E-01 eV

  End self-consistency iteration #     4       :  max(cpu_time)    wall_clock(cpu1)
  | Time for this iteration                    :        1.183 s           1.184 s
  | Charge density update                      :        0.386 s           0.387 s
  | Density mixing                             :        0.009 s           0.009 s
  | Hartree multipole update                   :        0.009 s           0.009 s
  | Hartree multipole summation                :        0.281 s           0.282 s
  | Integration                                :        0.494 s           0.495 s
  | Solution of K.-S. eqns.                    :        0.002 s           0.002 s
  | Total energy evaluation                    :        0.000 s           0.000 s

  Partial memory accounting:
  | Current value for overall tracked memory usage on task 0  :           0.166 MB
  | Peak value for overall tracked memory usage on task 0     :           0.692 MB after allocating gradient_basis_wave
  | Largest tracked array allocation on task 0 so far         :           0.394 MB  when allocating gradient_basis_wave
  Note:  These values currently only include a subset of arrays which are explicitly tracked.
  The "true" memory usage will be greater.
------------------------------------------------------------

------------------------------------------------------------
          Begin self-consistency iteration #    5

  Date     :  20200902, Time     :  104546.345
------------------------------------------------------------
  Evaluating new KS density.
  Integration grid: deviation in total charge (<rho> - N_e) =  -4.263256E-14
  Pulay mixing of updated and previous charge densities.

  Evaluating partitioned Hartree potential by multipole expansion.
  | Analytical far-field extrapolation by fixed multipoles:
  | Hartree multipole sum: apparent total charge =  -0.372746E-03
  Summing up the Hartree potential.
  Time summed over all CPUs for potential: real work        0.281 s, elapsed        0.281 s
  | RMS charge density error from multipole expansion :   0.250506E-01

  Integrating Hamiltonian matrix: batch-based integration.
  Time summed over all CPUs for integration: real work        0.494 s, elapsed        0.494 s

  Updating Kohn-Sham eigenvalues and eigenvectors using ELSI and the ELPA eigensolver.
  Finished Cholesky decomposition
  | Time :     0.000 s
  Finished transformation to standard eigenproblem
  | Time :     0.000 s
  Starting LAPACK eigensolver
  Finished solving standard eigenproblem
  | Time :     0.002 s
  Finished back-transformation of eigenvectors
  | Time :     0.000 s

  Obtaining occupation numbers and chemical potential using ELSI.
  | Chemical potential (Fermi level):    -5.59924558eV
  Highest occupied state (VBM) at     -5.75712687 eV
  | Occupation number:      2.00000000

  Lowest unoccupied state (CBM) at    -1.34876767 eV
  | Occupation number:      0.00000000

  Overall HOMO-LUMO gap:      4.40835919 eV.

  Total energy components:
  | Sum of eigenvalues            :        -180.61217895 Ha       -4914.70744676 eV
  | XC energy correction          :         -42.64018625 Ha       -1160.29850328 eV
  | XC potential correction       :          54.82048331 Ha        1491.74124978 eV
  | Free-atom electrostatic energy:        -146.86124334 Ha       -3996.29776054 eV
  | Hartree energy correction     :          -8.18383983 Ha        -222.69361229 eV
  | vdW energy correction         :           0.00000000 Ha           0.00000000 eV
  | Entropy correction            :          -0.00000000 Ha          -0.00000000 eV
  | ---------------------------
  | Total energy                  :        -323.47696506 Ha       -8802.25607310 eV
  | Total energy, T -> 0          :        -323.47696506 Ha       -8802.25607310 eV  <-- do not rely on this value for anything but (periodic) metals
  | Electronic free energy        :        -323.47696506 Ha       -8802.25607310 eV

  Derived energy quantities:
  | Kinetic energy                :         322.69417687 Ha        8780.95532259 eV
  | Electrostatic energy          :        -603.53095567 Ha      -16422.91289241 eV
  | Energy correction for multipole
  | error in Hartree potential    :           0.03922595 Ha           1.06739245 eV
  | Sum of eigenvalues per atom                           :        -378.05441898 eV
  | Total energy (T->0) per atom                          :        -677.09662101 eV  <-- do not rely on this value for anything but (periodic) metals
  | Electronic free energy per atom                       :        -677.09662101 eV

  Self-consistency convergence accuracy:
  | Change of charge density      :  0.2071E-01
  | Change of sum of eigenvalues  : -0.5658E+01 eV
  | Change of total energy        :  0.8072E-02 eV

  End self-consistency iteration #     5       :  max(cpu_time)    wall_clock(cpu1)
  | Time for this iteration                    :        1.185 s           1.187 s
  | Charge density update                      :        0.388 s           0.388 s
  | Density mixing                             :        0.011 s           0.011 s
  | Hartree multipole update                   :        0.009 s           0.009 s
  | Hartree multipole summation                :        0.281 s           0.282 s
  | Integration                                :        0.494 s           0.494 s
  | Solution of K.-S. eqns.                    :        0.002 s           0.002 s
  | Total energy evaluation                    :        0.000 s           0.000 s

  Partial memory accounting:
  | Current value for overall tracked memory usage on task 0  :           0.166 MB
  | Peak value for overall tracked memory usage on task 0     :           0.692 MB after allocating gradient_basis_wave
  | Largest tracked array allocation on task 0 so far         :           0.394 MB  when allocating gradient_basis_wave
  Note:  These values currently only include a subset of arrays which are explicitly tracked.
  The "true" memory usage will be greater.
------------------------------------------------------------

------------------------------------------------------------
          Begin self-consistency iteration #    6

  Date     :  20200902, Time     :  104547.535
------------------------------------------------------------
  Evaluating new KS density.
  Integration grid: deviation in total charge (<rho> - N_e) =  -3.552714E-14
  Pulay mixing of updated and previous charge densities.

  Evaluating partitioned Hartree potential by multipole expansion.
  | Analytical far-field extrapolation by fixed multipoles:
  | Hartree multipole sum: apparent total charge =  -0.376943E-03
  Summing up the Hartree potential.
  Time summed over all CPUs for potential: real work        0.281 s, elapsed        0.281 s
  | RMS charge density error from multipole expansion :   0.254789E-01

  Integrating Hamiltonian matrix: batch-based integration.
  Time summed over all CPUs for integration: real work        0.495 s, elapsed        0.495 s

  Updating Kohn-Sham eigenvalues and eigenvectors using ELSI and the ELPA eigensolver.
  Finished Cholesky decomposition
  | Time :     0.000 s
  Finished transformation to standard eigenproblem
  | Time :     0.000 s
  Starting LAPACK eigensolver
  Finished solving standard eigenproblem
  | Time :     0.001 s
  Finished back-transformation of eigenvectors
  | Time :     0.000 s

  Obtaining occupation numbers and chemical potential using ELSI.
  | Chemical potential (Fermi level):    -5.58499029eV
  Highest occupied state (VBM) at     -5.72135652 eV
  | Occupation number:      2.00000000

  Lowest unoccupied state (CBM) at    -1.35377604 eV
  | Occupation number:      0.00000000

  Overall HOMO-LUMO gap:      4.36758048 eV.

  Total energy components:
  | Sum of eigenvalues            :        -180.59481411 Ha       -4914.23492554 eV
  | XC energy correction          :         -42.64180857 Ha       -1160.34264876 eV
  | XC potential correction       :          54.82255952 Ha        1491.79774650 eV
  | Free-atom electrostatic energy:        -146.86124334 Ha       -3996.29776054 eV
  | Hartree energy correction     :          -8.20161651 Ha        -223.17734047 eV
  | vdW energy correction         :           0.00000000 Ha           0.00000000 eV
  | Entropy correction            :          -0.00000000 Ha          -0.00000000 eV
  | ---------------------------
  | Total energy                  :        -323.47692301 Ha       -8802.25492880 eV
  | Total energy, T -> 0          :        -323.47692301 Ha       -8802.25492880 eV  <-- do not rely on this value for anything but (periodic) metals
  | Electronic free energy        :        -323.47692301 Ha       -8802.25492880 eV

  Derived energy quantities:
  | Kinetic energy                :         322.63109892 Ha        8779.23888428 eV
  | Electrostatic energy          :        -603.46621335 Ha      -16421.15116432 eV
  | Energy correction for multipole
  | error in Hartree potential    :           0.03963335 Ha           1.07847826 eV
  | Sum of eigenvalues per atom                           :        -378.01807120 eV
  | Total energy (T->0) per atom                          :        -677.09653298 eV  <-- do not rely on this value for anything but (periodic) metals
  | Electronic free energy per atom                       :        -677.09653298 eV

  Self-consistency convergence accuracy:
  | Change of charge density      :  0.1054E-01
  | Change of sum of eigenvalues  :  0.4725E+00 eV
  | Change of total energy        :  0.1144E-02 eV

  End self-consistency iteration #     6       :  max(cpu_time)    wall_clock(cpu1)
  | Time for this iteration                    :        1.186 s           1.188 s
  | Charge density update                      :        0.387 s           0.387 s
  | Density mixing                             :        0.012 s           0.012 s
  | Hartree multipole update                   :        0.009 s           0.009 s
  | Hartree multipole summation                :        0.281 s           0.282 s
  | Integration                                :        0.494 s           0.496 s
  | Solution of K.-S. eqns.                    :        0.002 s           0.002 s
  | Total energy evaluation                    :        0.000 s           0.000 s

  Partial memory accounting:
  | Current value for overall tracked memory usage on task 0  :           0.166 MB
  | Peak value for overall tracked memory usage on task 0     :           0.692 MB after allocating gradient_basis_wave
  | Largest tracked array allocation on task 0 so far         :           0.394 MB  when allocating gradient_basis_wave
  Note:  These values currently only include a subset of arrays which are explicitly tracked.
  The "true" memory usage will be greater.
------------------------------------------------------------

------------------------------------------------------------
          Begin self-consistency iteration #    7

  Date     :  20200902, Time     :  104548.724
------------------------------------------------------------
  Evaluating new KS density.
  Integration grid: deviation in total charge (<rho> - N_e) =   3.552714E-14
  Pulay mixing of updated and previous charge densities.

  Evaluating partitioned Hartree potential by multipole expansion.
  | Analytical far-field extrapolation by fixed multipoles:
  | Hartree multipole sum: apparent total charge =  -0.377561E-03
  Summing up the Hartree potential.
  Time summed over all CPUs for potential: real work        0.282 s, elapsed        0.282 s
  | RMS charge density error from multipole expansion :   0.255689E-01

  Integrating Hamiltonian matrix: batch-based integration.
  Time summed over all CPUs for integration: real work        0.495 s, elapsed        0.495 s

  Updating Kohn-Sham eigenvalues and eigenvectors using ELSI and the ELPA eigensolver.
  Finished Cholesky decomposition
  | Time :     0.000 s
  Finished transformation to standard eigenproblem
  | Time :     0.000 s
  Starting LAPACK eigensolver
  Finished solving standard eigenproblem
  | Time :     0.002 s
  Finished back-transformation of eigenvectors
  | Time :     0.000 s

[...]
  |   Hirshfeld dipole moment :      0.05819816
  |   Hirshfeld second moments:      0.00715069      -0.03131585      -0.02050445
  |                                 -0.03131585      -0.02203887       0.00901382
  |                                 -0.02050445       0.00901382      -0.01530149
  ----------------------------------------------------------------------
  | Atom    12: O
  |   Hirshfeld charge        :     -0.16028841
  |   Free atom volume        :     23.61338643
  |   Hirshfeld volume        :     21.21758020
  |   Hirshfeld dipole vector :      0.00589784       0.04040403       0.00833030
  |   Hirshfeld dipole moment :      0.04167330
  |   Hirshfeld second moments:      0.10263427      -0.01680141       0.01680506
  |                                 -0.01680141       0.02880967       0.01270145
  |                                  0.01680506       0.01270145       0.01811729
  ----------------------------------------------------------------------
  | Atom    13: H
  |   Hirshfeld charge        :      0.17632302
  |   Free atom volume        :      9.95071624
  |   Hirshfeld volume        :      6.32606513
  |   Hirshfeld dipole vector :     -0.11249957       0.05557139      -0.00870391
  |   Hirshfeld dipole moment :      0.12577795
  |   Hirshfeld second moments:      0.12157723       0.00030685       0.00567185
  |                                  0.00030685       0.10566172       0.00959486
  |                                  0.00567185       0.00959486       0.10715356
  ----------------------------------------------------------------------


  Total energy components:
  | Sum of eigenvalues            :        -180.59886955 Ha       -4914.34527956 eV
  | XC energy correction          :         -42.63806933 Ha       -1160.24089885 eV
  | XC potential correction       :          54.81780127 Ha        1491.66826769 eV
  | Free-atom electrostatic energy:        -146.86124334 Ha       -3996.29776054 eV
  | Hartree energy correction     :          -8.19651511 Ha        -223.03852432 eV
  | vdW energy correction         :          -0.00338662 Ha          -0.09215464 eV
  | Entropy correction            :          -0.00000000 Ha          -0.00000000 eV
  | ---------------------------
  | Total energy                  :        -323.48028268 Ha       -8802.34635023 eV
  | Total energy, T -> 0          :        -323.48028268 Ha       -8802.34635023 eV  <-- do not rely on this value for anything but (periodic) metals
  | Electronic free energy        :        -323.48028268 Ha       -8802.34635023 eV

  Derived energy quantities:
  | Kinetic energy                :         322.59242158 Ha        8778.18642048 eV
  | Electrostatic energy          :        -603.43124831 Ha      -16420.19971721 eV
  | Energy correction for multipole
  | error in Hartree potential    :           0.03966649 Ha           1.07938011 eV
  | Sum of eigenvalues per atom                           :        -378.02655997 eV
  | Total energy (T->0) per atom                          :        -677.10356540 eV  <-- do not rely on this value for anything but (periodic) metals
  | Electronic free energy per atom                       :        -677.10356540 eV

  atomic forces [eV/Ang]:
  -----------------------
  atom #    1
   Hellmann-Feynman              :  0.147841E+00  0.627070E+00  0.112875E+01
   Ionic forces                  :  0.000000E+00  0.000000E+00  0.000000E+00
   Multipole                     : -0.118137E+00  0.397774E+00 -0.245480E+00
   Pulay + GGA                   : -0.652477E+00 -0.333728E+00 -0.140716E+01
   Van der Waals                 :  0.394596E-02  0.208536E-02 -0.134370E-02
   ----------------------------------------------------------------
   Total forces(   1)            : -0.618827E+00  0.693202E+00 -0.525229E+00
  atom #    2
   Hellmann-Feynman              :  0.233359E+00 -0.542335E-01 -0.133247E+00
   Ionic forces                  :  0.000000E+00  0.000000E+00  0.000000E+00
   Multipole                     :  0.188472E+00  0.309483E-01  0.123864E-03
   Pulay + GGA                   : -0.153997E+00 -0.478600E-02  0.361282E-01
   Van der Waals                 :  0.280487E-02 -0.523186E-02 -0.631071E-02
   ----------------------------------------------------------------
   Total forces(   2)            :  0.270639E+00 -0.333031E-01 -0.103306E+00
  atom #    3
   Hellmann-Feynman              :  0.151034E+01 -0.113532E+02 -0.329524E+01
   Ionic forces                  :  0.000000E+00  0.000000E+00  0.000000E+00
   Multipole                     : -0.203519E+00  0.416395E-01 -0.841182E+00
   Pulay + GGA                   : -0.763881E+00  0.106257E+02  0.474993E+01
   Van der Waals                 :  0.585798E-02 -0.288734E-02 -0.104835E-01
   ----------------------------------------------------------------
   Total forces(   3)            :  0.548799E+00 -0.688777E+00  0.603021E+00
  atom #    4
   Hellmann-Feynman              : -0.792120E-01  0.351795E+00 -0.136263E+00
   Ionic forces                  :  0.000000E+00  0.000000E+00  0.000000E+00
   Multipole                     : -0.794153E-01  0.505352E-01 -0.567604E-01
   Pulay + GGA                   :  0.210191E+00 -0.100160E+00 -0.582142E-01
   Van der Waals                 : -0.402697E-03  0.775756E-02 -0.132977E-01
   ----------------------------------------------------------------
   Total forces(   4)            :  0.511610E-01  0.309928E+00 -0.264536E+00
  atom #    5
   Hellmann-Feynman              : -0.123205E+00  0.352251E+00 -0.807447E-01
   Ionic forces                  :  0.000000E+00  0.000000E+00  0.000000E+00
   Multipole                     :  0.534524E-02  0.603144E-01 -0.995149E-01
   Pulay + GGA                   : -0.887706E-01 -0.223468E+00  0.694182E-01
   Van der Waals                 : -0.268591E-02 -0.671115E-02 -0.414440E-02
   ----------------------------------------------------------------
   Total forces(   5)            : -0.209317E+00  0.182385E+00 -0.114986E+00
  atom #    6
   Hellmann-Feynman              :  0.694313E+00 -0.831177E+00  0.627707E+00
   Ionic forces                  :  0.000000E+00  0.000000E+00  0.000000E+00
   Multipole                     : -0.141776E+00  0.606136E+00  0.198046E+00
   Pulay + GGA                   : -0.149369E+00 -0.153871E+00 -0.444324E+00
   Van der Waals                 : -0.461149E-02  0.758727E-02  0.718179E-02
   ----------------------------------------------------------------
   Total forces(   6)            :  0.398557E+00 -0.371325E+00  0.388612E+00
  atom #    7
   Hellmann-Feynman              : -0.263243E+00 -0.578511E-01 -0.572812E-01
   Ionic forces                  :  0.000000E+00  0.000000E+00  0.000000E+00
   Multipole                     : -0.120274E+00  0.494279E-01  0.335176E-01
   Pulay + GGA                   :  0.109459E+00  0.457397E-01  0.443009E-01
   Van der Waals                 : -0.189839E-02  0.202034E-02  0.676558E-02
   ----------------------------------------------------------------
   Total forces(   7)            : -0.275956E+00  0.393368E-01  0.273029E-01
  atom #    8
   Hellmann-Feynman              :  0.166609E-01  0.450442E-01  0.249679E+00
   Ionic forces                  :  0.000000E+00  0.000000E+00  0.000000E+00
   Multipole                     :  0.171219E-01  0.643608E-01  0.125479E+00
   Pulay + GGA                   : -0.447776E-01 -0.447730E-01 -0.107003E+00
   Van der Waals                 : -0.326418E-02  0.110703E-01  0.420687E-03
   ----------------------------------------------------------------
   Total forces(   8)            : -0.142590E-01  0.757023E-01  0.268575E+00
  atom #    9
   Hellmann-Feynman              :  0.810553E-01  0.635460E-01 -0.167766E+00
   Ionic forces                  :  0.000000E+00  0.000000E+00  0.000000E+00
   Multipole                     :  0.201042E-01  0.130944E+00 -0.918136E-02
   Pulay + GGA                   : -0.451817E-01 -0.834024E-01  0.569948E-01
   Van der Waals                 : -0.303638E-02  0.545754E-02  0.670447E-02
   ----------------------------------------------------------------
   Total forces(   9)            :  0.529414E-01  0.116545E+00 -0.113248E+00
  atom #   10
   Hellmann-Feynman              :  0.263695E+01  0.481024E+01  0.191320E+01
   Ionic forces                  :  0.000000E+00  0.000000E+00  0.000000E+00
   Multipole                     :  0.746644E-01 -0.130657E+00  0.254818E+00
   Pulay + GGA                   : -0.834088E+00 -0.321375E+01 -0.390652E+00
   Van der Waals                 :  0.603564E-02 -0.139827E-01  0.112741E-02
   ----------------------------------------------------------------
   Total forces(  10)            :  0.188356E+01  0.145186E+01  0.177850E+01
  atom #   11
   Hellmann-Feynman              :  0.375443E+01 -0.221106E+01  0.139719E+02
   Ionic forces                  :  0.000000E+00  0.000000E+00  0.000000E+00
   Multipole                     :  0.608458E-01 -0.577965E+00  0.739145E+00
   Pulay + GGA                   : -0.271912E+01  0.341186E+01 -0.138373E+02
   Van der Waals                 :  0.142422E-03 -0.121214E-01  0.617169E-02
   ----------------------------------------------------------------
   Total forces(  11)            :  0.109630E+01  0.610709E+00  0.879905E+00
  atom #   12
   Hellmann-Feynman              :  0.360501E+00 -0.147821E+02 -0.481400E+01
   Ionic forces                  :  0.000000E+00  0.000000E+00  0.000000E+00
   Multipole                     : -0.674715E+00 -0.150151E+01 -0.232523E+00
   Pulay + GGA                   : -0.215853E+01  0.144529E+02  0.336640E+01
   Van der Waals                 :  0.149423E-02  0.376642E-02  0.532887E-02
   ----------------------------------------------------------------
   Total forces(  12)            : -0.247125E+01 -0.182701E+01 -0.167479E+01
  atom #   13
   Hellmann-Feynman              : -0.974976E+00 -0.281703E+00 -0.122079E+01
   Ionic forces                  :  0.000000E+00  0.000000E+00  0.000000E+00
   Multipole                     : -0.695883E-01  0.268060E-01  0.532392E-02
   Pulay + GGA                   :  0.332591E+00 -0.302803E+00  0.599763E-01
   Van der Waals                 : -0.438205E-02  0.118968E-02  0.187954E-02
   ----------------------------------------------------------------
   Total forces(  13)            : -0.716355E+00 -0.556510E+00 -0.115361E+01

  Timings for VdW correction (Tkatchenko-Scheffler 2009 or later):
  | CPU time:        0.090 s, Wall clock time:        0.091 s.
  Removing unitary transformations (pure translations, rotations) from forces on atoms.
  Atomic forces before filtering:
  | Net force on center of mass :  -0.400035E-02  0.274396E-02 -0.378470E-02 eV/A
  | Net torque on center of mass:  -0.240535E-02  0.431298E-03 -0.112752E-01 eV
  Atomic forces after filtering:
  | Net force on center of mass :   0.000000E+00  0.356812E-15 -0.178406E-15 eV/A
  | Net torque on center of mass:   0.967687E-15  0.755268E-15 -0.755268E-15 eV

  Energy and forces in a compact form:
  | Total energy uncorrected      :         -0.880234635022816E+04 eV
  | Total energy corrected        :         -0.880234635022816E+04 eV  <-- do not rely on this value for anything but (periodic) metals
  | Electronic free energy        :         -0.880234635022816E+04 eV
  Total atomic forces (unitary forces cleaned) [eV/Ang]:
  |   1         -0.618506660644711E+00          0.693195650556820E+00         -0.524925408686392E+00
  |   2          0.270960003598105E+00         -0.328840665188084E-01         -0.102973093993313E+00
  |   3          0.549157971037706E+00         -0.688866273141248E+00          0.603310862201800E+00
  |   4          0.514098997535014E-01          0.309458128103244E+00         -0.264251707903909E+00
  |   5         -0.209197660545288E+00          0.182554024023419E+00         -0.114632618998725E+00
  |   6          0.398366959647922E+00         -0.371576916890992E+00          0.388992988653102E+00
  |   7         -0.276156714681588E+00          0.386593438247017E-01          0.276564954779092E-01
  |   8         -0.144817050347170E-01          0.755162116956709E-01          0.268967298428867E+00
  |   9          0.524158944281563E-01          0.116470321670659E+00         -0.112791089191999E+00
  |  10          0.188436540047650E+01          0.145164430423051E+01          0.177869582248389E+01
  |  11          0.109718233883550E+01          0.610526306661526E+00          0.880091419746262E+00
  |  12         -0.247010279258217E+01         -0.182744556744240E+01         -0.167466907815951E+01
  |  13         -0.715412934288918E+00         -0.557251466773099E+00         -0.115347189005798E+01

  ------------------------------------ 
  Start decomposition of the XC Energy 
  ------------------------------------ 
  X and C from original XC functional choice 
  Hartree-Fock Energy :          0.000000000 Ha              0.000000000 eV
  X Energy            :        -41.037473964 Ha          -1116.686482950 eV
  C Energy            :         -1.600595365 Ha            -43.554415901 eV
  Total XC Energy     :        -42.638069329 Ha          -1160.240898851 eV
  ------------------------------------ 
  LDA X and C from self-consistent density 
  X Energy LDA        :        -37.255834846 Ha          -1013.782846856 eV
  C Energy LDA        :         -3.138585830 Ha            -85.405265800 eV
  ------------------------------------ 
  End decomposition of the XC Energy 
  ------------------------------------ 

------------------------------------------------------------

------------------------------------------------------------------------------
  Final output of selected total energy values:

  The following output summarizes some interesting total energy values
  at the end of a run (AFTER all relaxation, molecular dynamics, etc.).

  | Total energy of the DFT / Hartree-Fock s.c.f. calculation      :          -8802.346350228 eV
  | Final zero-broadening corrected energy (caution - metals only) :          -8802.346350228 eV
  | For reference only, the value of 1 Hartree used in FHI-aims is :             27.211384500 eV

  Before relying on these values, please be sure to understand exactly which
  total energy value is referred to by a given number. Different objects may
  all carry the same name 'total energy'. Definitions:

  Total energy of the DFT / Hartree-Fock s.c.f. calculation:
  | Note that this energy does not include ANY quantities calculated after the
  | s.c.f. cycle, in particular not ANY RPA, MP2, etc. many-body perturbation terms.

  Final zero-broadening corrected energy:
  | For metallic systems only, a broadening of the occupation numbers at the Fermi
  | level can be extrapolated back to zero broadening by an electron-gas inspired
  | formula. For all systems that are not real metals, this value can be
  | meaningless and should be avoided.

------------------------------------------------------------------------------
  Methods described in the following list of references were used in this FHI-aims run.
  If you publish the results, please make sure to cite these reference if they apply.
  FHI-aims is an academic code, and for our developers (often, Ph.D. students
  and postdocs), scientific credit in the community is essential.
  Thank you for helping us!

  For any use of FHI-aims, please cite:

    Volker Blum, Ralf Gehrke, Felix Hanke, Paula Havu, Ville Havu,
    Xinguo Ren, Karsten Reuter, and Matthias Scheffler
    'Ab initio molecular simulations with numeric atom-centered orbitals'
    Computer Physics Communications 180, 2175-2196 (2009)
    http://dx.doi.org/10.1016/j.cpc.2009.06.022


  The scalable eigensolver library ELPA was used in your run.
  ELPA is essential especially for large systems on hundreds or thousands of CPUs.
  For ELPA, please cite:

    Andreas Marek, Volker Blum, Rainer Johanni, Ville Havu, Bruno Lang,
    Thomas Auckenthaler, Alexander Heinecke, Hans-Joachim Bungartz, and Hermann Lederer,
    'The ELPA Library - Scalable Parallel Eigenvalue Solutions
    for Electronic Structure Theory and Computational Science'
    The Journal of Physics: Condensed Matter 26, 213201 (2014).
    http://dx.doi.org/10.1088/0953-8984/26/21/213201


  The ELSI infrastructure was used in your run to solve the Kohn-Sham electronic structure.
  Please check out http://elsi-interchange.org to learn more.
  If scalability is important for your project, please acknowledge ELSI by citing:

    V. W-z. Yu, F. Corsetti, A. Garcia, W. P. Huhn, M. Jacquelin, W. Jia,
    B. Lange, L. Lin, J. Lu, W. Mi, A. Seifitokaldani, A. Vazquez-Mayagoitia,
    C. Yang, H. Yang, and V. Blum
    'ELSI: A unified software interface for Kohn-Sham electronic structure solvers'
    Computer Physics Communications 222, 267-285 (2018).
    http://dx.doi.org/10.1016/j.cpc.2017.09.007


  For the real-space grid partitioning and parallelization used in this calculation, please cite:

    Ville Havu, Volker Blum, Paula Havu, and Matthias Scheffler,
    'Efficient O(N) integration for all-electron electronic structure calculation'
    'using numerically tabulated basis functions'
    Journal of Computational Physics 228, 8367-8379 (2009).
    http://dx.doi.org/10.1016/j.jcp.2009.08.008

  Of course, there are many other important community references, e.g., those cited in the
  above references. Our list is limited to references that describe implementations in the
  FHI-aims code. The reason is purely practical (length of this list) - please credit others as well.

------------------------------------------------------------
          Leaving FHI-aims.
          Date     :  20200902, Time     :  104602.972

          Computational steps:
          | Number of self-consistency cycles          :           16
          | Number of SCF (re)initializations          :            1

          Detailed time accounting                     :  max(cpu_time)    wall_clock(cpu1)
          | Total time                                 :       22.624 s          22.694 s
          | Preparation time                           :        0.146 s           0.147 s
          | Boundary condition initalization           :        0.000 s           0.000 s
          | Grid partitioning                          :        0.111 s           0.112 s
          | Preloading free-atom quantities on grid    :        0.002 s           0.003 s
          | Free-atom superposition energy             :        0.084 s           0.084 s
          | Total time for integrations                :        8.615 s           8.632 s
          | Total time for solution of K.-S. equations :        0.037 s           0.040 s
          | Total time for density & force components  :        7.137 s           7.149 s
          | Total time for mixing                      :        0.214 s           0.216 s
          | Total time for Hartree multipole update    :        0.141 s           0.143 s
          | Total time for Hartree multipole sum       :        5.735 s           5.746 s
          | Total time for total energy evaluation     :        0.003 s           0.003 s
          | Total time for vdW correction              :        0.090 s           0.091 s

          Partial memory accounting:
          | Residual value for overall tracked memory usage across tasks :           0.000 MB (should be 0.000 MB)
          | Peak values for overall tracked memory usage (after allocating hessian_basis_wave):
          |   Minimum:        1.612 MB (on task 1)
          |   Maximum:        1.612 MB (on task 1)
          |   Average:        1.612 MB
          | Largest tracked array allocation (hessian_basis_wave):
          |   Minimum:        0.788 MB (on task 1)
          |   Maximum:        0.788 MB (on task 1)
          |   Average:        0.788 MB
          Note:  These values currently only include a subset of arrays which are explicitly tracked.
          The "true" memory usage will be greater.

          Have a nice day.
------------------------------------------------------------
