  MPI-parallelism will be employed.
------------------------------------------------------------
          Invoking FHI-aims ...
          Version 171221_1
          Compiled on 2019/09/09 at 14:39:39 on host puhti-login2.bullx.

          When using FHI-aims, please cite the following reference:

          Volker Blum, Ralf Gehrke, Felix Hanke, Paula Havu,
          Ville Havu, Xinguo Ren, Karsten Reuter, and Matthias Scheffler,
          'Ab Initio Molecular Simulations with Numeric Atom-Centered Orbitals',
          Computer Physics Communications 180, 2175-2196 (2009)

          For any questions about FHI-aims, please visit the aimsclub website
          with its forums and wiki. Contributions to both the forums and the
          wiki are warmly encouraged - they are for you, and everyone is welcome there.

------------------------------------------------------------



  Date     :  20200710, Time     :  145358.316
  Time zero on CPU 1             :   0.112730000000000E-01  s.
  Internal wall clock time zero  :           363624838.316  s.

  FHI-aims created a unique identifier for this run for later identification
  aims_uuid : 0E4425A8-68BF-4EFF-A49B-4F87FAD2BBD3

  Using        1 parallel tasks.
  Task        0 on host r18c44.bullx reporting.

  Performing system and environment tests:
  | Environment variable OMP_NUM_THREADS correctly set to 1.
  | Stacksize not measured: no C compiler
  | Checking for scalapack...
  | Testing pdtran()...
  | All pdtran() tests passed.

  Obtaining array dimensions for all initial allocations:
  
  -----------------------------------------------------------------------
  Parsing control.in (first pass over file, find array dimensions only).
  The contents of control.in will be repeated verbatim below
  unless switched off by setting 'verbatim_writeout .false.' .
  in the first line of control.in .
  -----------------------------------------------------------------------
  
  #########################################################################################
  #
  #  Volker Blum, FHI 2009 : Test run input file control.in for simple H2O
  #
  #########################################################################################
  #
  #  Physical model
  #
    xc                 pbe
    vdw_correction_hirshfeld
    spin               none
    relativistic       none
    charge             0.
  #
  #  SCF convergence
  #
    occupation_type    gaussian 0.01
    mixer              pulay
      n_max_pulay        10
      charge_mix_param   0.2
    sc_accuracy_rho    1E-5
    sc_accuracy_eev    1E-3
    sc_accuracy_etot   1E-6
    sc_accuracy_forces 1E-4
    sc_iter_limit      100
  #
  #  Relaxation
  #
  #  relax_geometry   bfgs 1.e-3
  #
  ################################################################################
  #
  #  FHI-aims code project
  #  VB, Fritz-Haber Institut, 2009
  #
  #  Suggested "light" defaults for H atom (to be pasted into control.in file)
  #  Be sure to double-check any results obtained with these settings for post-processing,
  #  e.g., with the "tight" defaults and larger basis sets.
  #
  ################################################################################
    species        H
  #     global species definitions
      nucleus             1
      mass                1.00794
  #
      l_hartree           4
  #
      cut_pot             3.5  1.5  1.0
      basis_dep_cutoff    1e-4
  #
      radial_base         24 5.0
      radial_multiplier   1
      angular_grids       specified
        division   0.2421   50
        division   0.3822  110
        division   0.4799  194
        division   0.5341  302
  #      division   0.5626  434
  #      division   0.5922  590
  #      division   0.6542  770
  #      division   0.6868 1202
  #      outer_grid  770
        outer_grid  302
  ################################################################################
  #
  #  Definition of "minimal" basis
  #
  ################################################################################
  #     valence basis states
      valence      1  s   1.
  #     ion occupancy
      ion_occ      1  s   0.5
  ################################################################################
  #
  #  Suggested additional basis functions. For production calculations,
  #  uncomment them one after another (the most important basis functions are
  #  listed first).
  #
  #  Basis constructed for dimers: 0.5 A, 0.7 A, 1.0 A, 1.5 A, 2.5 A
  #
  ################################################################################
  #  "First tier" - improvements: -1014.90 meV to -62.69 meV
       hydro 2 s 2.1
       hydro 2 p 3.5
  #  "Second tier" - improvements: -12.89 meV to -1.83 meV
  #     hydro 1 s 0.85
  #     hydro 2 p 3.7
  #     hydro 2 s 1.2
  #     hydro 3 d 7
  #  "Third tier" - improvements: -0.25 meV to -0.12 meV
  #     hydro 4 f 11.2
  #     hydro 3 p 4.8
  #     hydro 4 d 9
  #     hydro 3 s 3.2
  ################################################################################
  #
  #  FHI-aims code project
  #  VB, Fritz-Haber Institut, 2009
  #
  #  Suggested "light" defaults for C atom (to be pasted into control.in file)
  #  Be sure to double-check any results obtained with these settings for post-processing,
  #  e.g., with the "tight" defaults and larger basis sets.
  #
  ################################################################################
    species        C
  #     global species definitions
      nucleus             6
      mass                12.0107
  #
      l_hartree           4
  #
      cut_pot             3.5  1.5  1.0
      basis_dep_cutoff    1e-4
  #
      radial_base         34 5.0
      radial_multiplier   1
      angular_grids specified
        division   0.3326   50
        division   0.5710  110
        division   0.7727  194
        division   0.8772  302
  #      division   0.9334  434
  #      division   0.9625  590
  #      division   0.9924  770
  #      division   1.0230  974
  #      division   1.4589 1202
  #     outer_grid  974
       outer_grid 302
  ################################################################################
  #
  #  Definition of "minimal" basis
  #
  ################################################################################
  #     valence basis states
      valence      2  s   2.
      valence      2  p   2.
  #     ion occupancy
      ion_occ      2  s   1.
      ion_occ      2  p   1.
  ################################################################################
  #
  #  Suggested additional basis functions. For production calculations,
  #  uncomment them one after another (the most important basis functions are
  #  listed first).
  #
  #  Constructed for dimers: 1.0 A, 1.25 A, 1.5 A, 2.0 A, 3.0 A
  #
  ################################################################################
  #  "First tier" - improvements: -1214.57 meV to -155.61 meV
       hydro 2 p 1.7
       hydro 3 d 6
       hydro 2 s 4.9
  #  "Second tier" - improvements: -67.75 meV to -5.23 meV
  #     hydro 4 f 9.8
  #     hydro 3 p 5.2
  #     hydro 3 s 4.3
  #     hydro 5 g 14.4
  #     hydro 3 d 6.2
  #  "Third tier" - improvements: -2.43 meV to -0.60 meV
  #     hydro 2 p 5.6
  #     hydro 2 s 1.4
  #     hydro 3 d 4.9
  #     hydro 4 f 11.2
  #  "Fourth tier" - improvements: -0.39 meV to -0.18 meV
  #     hydro 2 p 2.1
  #     hydro 5 g 16.4
  #     hydro 4 d 13.2
  #     hydro 3 s 13.6
  #     hydro 4 f 17.6
  #  Further basis functions - improvements: -0.08 meV and below
  #     hydro 3 s 2
  #     hydro 3 p 6
  #     hydro 4 d 20
  ################################################################################
  #
  #  FHI-aims code project
  #  VB, Fritz-Haber Institut, 2009
  #
  #  Suggested "light" defaults for N atom (to be pasted into control.in file)
  #  Be sure to double-check any results obtained with these settings for post-processing,
  #  e.g., with the "tight" defaults and larger basis sets.
  #
  ################################################################################
    species        N
  #     global species definitions
      nucleus             7
      mass                14.0067
  #
      l_hartree           4
  #
      cut_pot             3.5  1.5  1.0
      basis_dep_cutoff    1e-4
  #
      radial_base         35 5.0
      radial_multiplier   1
      angular_grids       specified
        division   0.2599   50
        division   0.4601  110
        division   0.5885  194
        division   0.6503  302
  #      division   0.6939  434
  #      division   0.7396  590
  #      division   0.7632  770
  #      division   0.8122  974
  #      division   1.1604 1202
  #      outer_grid  974
        outer_grid  302
  ################################################################################
  #
  #  Definition of "minimal" basis
  #
  ################################################################################
  #     valence basis states
      valence      2  s   2.
      valence      2  p   3.
  #     ion occupancy
      ion_occ      2  s   1.
      ion_occ      2  p   2.
  ################################################################################
  #
  #  Suggested additional basis functions. For production calculations,
  #  uncomment them one after another (the most important basis functions are
  #  listed first).
  #
  #  Constructed for dimers: 1.0 A, 1.1 A, 1.5 A, 2.0 A, 3.0 A
  #
  ################################################################################
  #  "First tier" - improvements: -1193.42 meV to -220.60 meV
       hydro 2 p 1.8
       hydro 3 d 6.8
       hydro 3 s 5.8
  #  "Second tier" - improvements: -80.21 meV to -6.86 meV
  #     hydro 4 f 10.8
  #     hydro 3 p 5.8
  #     hydro 1 s 0.8
  #     hydro 5 g 16
  #     hydro 3 d 4.9
  #  "Third tier" - improvements: -4.29 meV to -0.53 meV
  #     hydro 3 s 16
  #     ionic 2 p auto
  #     hydro 3 d 6.6
  #     hydro 4 f 11.6
  #  "Fourth tier" - improvements: -0.75 meV to -0.25 meV
  #     hydro 2 p 4.5
  #     hydro 2 s 2.4
  #     hydro 5 g 14.4
  #     hydro 4 d 14.4
  #     hydro 4 f 16.8
  # Further basis functions - -0.21 meV and below
  #     hydro 3 p 14.8
  #     hydro 3 s 4.4
  #     hydro 3 d 19.6
  #     hydro 5 g 12.8
  ################################################################################
  #
  #  FHI-aims code project
  #  VB, Fritz-Haber Institut, 2009
  #
  #  Suggested "light" defaults for O atom (to be pasted into control.in file)
  #  Be sure to double-check any results obtained with these settings for post-processing,
  #  e.g., with the "tight" defaults and larger basis sets.
  #
  ################################################################################
    species        O
  #     global species definitions
      nucleus             8
      mass                15.9994
  #
      l_hartree           4
  #
      cut_pot             3.5  1.5  1.0
      basis_dep_cutoff    1e-4
  #
      radial_base         36 5.0
      radial_multiplier   1
       angular_grids specified
        division   0.2659   50
        division   0.4451  110
        division   0.6052  194
        division   0.7543  302
  #      division   0.8014  434
  #      division   0.8507  590
  #      division   0.8762  770
  #      division   0.9023  974
  #      division   1.2339 1202
  #      outer_grid 974
        outer_grid 302
  ################################################################################
  #
  #  Definition of "minimal" basis
  #
  ################################################################################
  #     valence basis states
      valence      2  s   2.
      valence      2  p   4.
  #     ion occupancy
      ion_occ      2  s   1.
      ion_occ      2  p   3.
  ################################################################################
  #
  #  Suggested additional basis functions. For production calculations,
  #  uncomment them one after another (the most important basis functions are
  #  listed first).
  #
  #  Constructed for dimers: 1.0 A, 1.208 A, 1.5 A, 2.0 A, 3.0 A
  #
  ################################################################################
  #  "First tier" - improvements: -699.05 meV to -159.38 meV
       hydro 2 p 1.8
       hydro 3 d 7.6
       hydro 3 s 6.4
  #  "Second tier" - improvements: -49.91 meV to -5.39 meV
  #     hydro 4 f 11.6
  #     hydro 3 p 6.2
  #     hydro 3 d 5.6
  #     hydro 5 g 17.6
  #     hydro 1 s 0.75
  #  "Third tier" - improvements: -2.83 meV to -0.50 meV
  #     ionic 2 p auto
  #     hydro 4 f 10.8
  #     hydro 4 d 4.7
  #     hydro 2 s 6.8
  #  "Fourth tier" - improvements: -0.40 meV to -0.12 meV
  #     hydro 3 p 5
  #     hydro 3 s 3.3
  #     hydro 5 g 15.6
  #     hydro 4 f 17.6
  #     hydro 4 d 14
  # Further basis functions - -0.08 meV and below
  #     hydro 3 s 2.1
  #     hydro 4 d 11.6
  #     hydro 3 p 16
  #     hydro 2 s 17.2
  
  -----------------------------------------------------------------------
  Completed first pass over input file control.in .
  -----------------------------------------------------------------------
  
  
  -----------------------------------------------------------------------
  Parsing geometry.in (first pass over file, find array dimensions only).
  The contents of geometry.in will be repeated verbatim below
  unless switched off by setting 'verbatim_writeout .false.' .
  in the first line of geometry.in .
  -----------------------------------------------------------------------
  
  atom  0.00000 0.00000 0.00000 C
  atom  1.09300 0.00000 0.00000 H
  atom  -0.47961 0.00000 -1.41207 N
  atom  -0.43464 -0.95378 -1.77278 H
  atom  -1.43937 0.33854 -1.43129 H
  atom  -0.49584 1.26211 0.72868 C
  atom  -1.58789 1.28919 0.74431 H
  atom  -0.13407 1.27425 1.75947 H
  atom  -0.13407 2.16087 0.22380 H
  atom  -0.39425 -1.28861 0.74398 C
  atom  -0.10189 -1.56493 1.88303 O
  atom  -1.10210 -2.13717 0.06896 O
  atom  -1.37037 -2.71433 0.80374 H
  
  -----------------------------------------------------------------------
  Completed first pass over input file geometry.in .
  -----------------------------------------------------------------------
  

  Basic array size parameters:
  | Number of species                 :        4
  | Number of atoms                   :       13
  | Max. basis fn. angular momentum   :        2
  | Max. atomic/ionic basis occupied n:        2
  | Max. number of basis fn. types    :        2
  | Max. radial fns per species/type  :        3
  | Max. logarithmic grid size        :     1301
  | Max. radial integration grid size :       36
  | Max. angular integration grid size:      302
  | Max. angular grid division number :        8
  | Radial grid for Hartree potential :     1301
  | Number of spin channels           :        1

------------------------------------------------------------
          Reading file control.in.
------------------------------------------------------------
  XC: Using PBE gradient-corrected functionals.
  Spin treatment: No spin polarisation.
  Non-relativistic treatment of kinetic energy.
  Charge =   0.000000E+00: Neutral system requested explicitly.
  Occupation type: Gaussian broadening, width =   0.100000E-01 eV.
  Using pulay charge density mixing.
  Pulay mixing - number of memorized iterations:   10
  Charge density mixing - mixing parameter:     0.2000
  Convergence accuracy of self-consistent charge density:  0.1000E-04
  Convergence accuracy of sum of eigenvalues:  0.1000E-02
  Convergence accuracy of total energy:  0.1000E-05
  Convergence accuracy of forces:  0.1000E-03
  Maximum number of s.-c. iterations  :   100
 
  Reading configuration options for species H                   .
  | Found nuclear charge :   1.0000
  | Found atomic mass :    1.00794000000000      amu
  | Found l_max for Hartree potential  :   4
  | Found cutoff potl. onset [A], width [A], scale factor :    3.50000    1.50000    1.00000
  | Threshold for basis-dependent cutoff potential is   0.100000E-03
  | Found data for basic radial integration grid :    24 points, outermost radius =    5.000 A
  | Found multiplier for basic radial grid :   1
  | Found angular grid specification: user-specified.
  | Specified grid contains     5 separate shells.
  | Check grid settings after all constraints further below.
  | Found free-atom valence shell :  1 s   1.000
  | No ionic wave fns used. Skipping ion_occ.
  | Found hydrogenic basis function :  2 s   2.100
  | Found hydrogenic basis function :  2 p   3.500
  Species H                   : Missing cutoff potential type.
  Defaulting to exp(1/x)/(1-x)^2 type cutoff potential.
  Species H : No 'logarithmic' tag. Using default grid for free atom:
  | Default logarithmic grid data [bohr] : 0.1000E-03 0.1000E+03 0.1012E+01
  Species H : On-site basis accuracy parameter (for Gram-Schmidt orthonormalisation) not specified.
  Using default value basis_acc =  0.1000000E-03.
  Species H                   : Using default innermost maximum threshold i_radial=  2 for radial functions.
  Species H                   : Default cutoff onset for free atom density etc. : 0.35000000E+01 AA.
  Species H                   : Basic radial grid will be enhanced according to radial_multiplier =   1, to contain    24 grid points.
 
  Reading configuration options for species C                   .
  | Found nuclear charge :   6.0000
  | Found atomic mass :    12.0107000000000      amu
  | Found l_max for Hartree potential  :   4
  | Found cutoff potl. onset [A], width [A], scale factor :    3.50000    1.50000    1.00000
  | Threshold for basis-dependent cutoff potential is   0.100000E-03
  | Found data for basic radial integration grid :    34 points, outermost radius =    5.000 A
  | Found multiplier for basic radial grid :   1
  | Found angular grid specification: user-specified.
  | Specified grid contains     5 separate shells.
  | Check grid settings after all constraints further below.
  | Found free-atom valence shell :  2 s   2.000
  | Found free-atom valence shell :  2 p   2.000
  | No ionic wave fns used. Skipping ion_occ.
  | No ionic wave fns used. Skipping ion_occ.
  | Found hydrogenic basis function :  2 p   1.700
  | Found hydrogenic basis function :  3 d   6.000
  | Found hydrogenic basis function :  2 s   4.900
  Species C                   : Missing cutoff potential type.
  Defaulting to exp(1/x)/(1-x)^2 type cutoff potential.
  Species C : No 'logarithmic' tag. Using default grid for free atom:
  | Default logarithmic grid data [bohr] : 0.1000E-03 0.1000E+03 0.1012E+01
  Species C : On-site basis accuracy parameter (for Gram-Schmidt orthonormalisation) not specified.
  Using default value basis_acc =  0.1000000E-03.
  Species C                   : Using default innermost maximum threshold i_radial=  2 for radial functions.
  Species C                   : Default cutoff onset for free atom density etc. : 0.35000000E+01 AA.
  Species C                   : Basic radial grid will be enhanced according to radial_multiplier =   1, to contain    34 grid points.
 
  Reading configuration options for species N                   .
  | Found nuclear charge :   7.0000
  | Found atomic mass :    14.0067000000000      amu
  | Found l_max for Hartree potential  :   4
  | Found cutoff potl. onset [A], width [A], scale factor :    3.50000    1.50000    1.00000
  | Threshold for basis-dependent cutoff potential is   0.100000E-03
  | Found data for basic radial integration grid :    35 points, outermost radius =    5.000 A
  | Found multiplier for basic radial grid :   1
  | Found angular grid specification: user-specified.
  | Specified grid contains     5 separate shells.
  | Check grid settings after all constraints further below.
  | Found free-atom valence shell :  2 s   2.000
  | Found free-atom valence shell :  2 p   3.000
  | No ionic wave fns used. Skipping ion_occ.
  | No ionic wave fns used. Skipping ion_occ.
  | Found hydrogenic basis function :  2 p   1.800
  | Found hydrogenic basis function :  3 d   6.800
  | Found hydrogenic basis function :  3 s   5.800
  Species N                   : Missing cutoff potential type.
  Defaulting to exp(1/x)/(1-x)^2 type cutoff potential.
  Species N : No 'logarithmic' tag. Using default grid for free atom:
  | Default logarithmic grid data [bohr] : 0.1000E-03 0.1000E+03 0.1012E+01
  Species N : On-site basis accuracy parameter (for Gram-Schmidt orthonormalisation) not specified.
  Using default value basis_acc =  0.1000000E-03.
  Species N                   : Using default innermost maximum threshold i_radial=  2 for radial functions.
  Species N                   : Default cutoff onset for free atom density etc. : 0.35000000E+01 AA.
  Species N                   : Basic radial grid will be enhanced according to radial_multiplier =   1, to contain    35 grid points.
 
  Reading configuration options for species O                   .
  | Found nuclear charge :   8.0000
  | Found atomic mass :    15.9994000000000      amu
  | Found l_max for Hartree potential  :   4
  | Found cutoff potl. onset [A], width [A], scale factor :    3.50000    1.50000    1.00000
  | Threshold for basis-dependent cutoff potential is   0.100000E-03
  | Found data for basic radial integration grid :    36 points, outermost radius =    5.000 A
  | Found multiplier for basic radial grid :   1
  | Found angular grid specification: user-specified.
  | Specified grid contains     5 separate shells.
  | Check grid settings after all constraints further below.
  | Found free-atom valence shell :  2 s   2.000
  | Found free-atom valence shell :  2 p   4.000
  | No ionic wave fns used. Skipping ion_occ.
  | No ionic wave fns used. Skipping ion_occ.
  | Found hydrogenic basis function :  2 p   1.800
  | Found hydrogenic basis function :  3 d   7.600
  | Found hydrogenic basis function :  3 s   6.400
  Species O                   : Missing cutoff potential type.
  Defaulting to exp(1/x)/(1-x)^2 type cutoff potential.
  Species O : No 'logarithmic' tag. Using default grid for free atom:
  | Default logarithmic grid data [bohr] : 0.1000E-03 0.1000E+03 0.1012E+01
  Species O : On-site basis accuracy parameter (for Gram-Schmidt orthonormalisation) not specified.
  Using default value basis_acc =  0.1000000E-03.
  Species O                   : Using default innermost maximum threshold i_radial=  2 for radial functions.
  Species O                   : Default cutoff onset for free atom density etc. : 0.35000000E+01 AA.
  Species O                   : Basic radial grid will be enhanced according to radial_multiplier =   1, to contain    36 grid points.
 
  Finished reading input file 'control.in'. Consistency checks are next.
 
  MPI_IN_PLACE appears to work with this MPI implementation.
  | Keeping use_mpi_in_place .true. (see manual).
  Target number of points in a grid batch is not set. Defaulting to  100
  Method for grid partitioning is not set. Defaulting to parallel hash+maxmin partitioning.
  Batch size limit is not set. Defaulting to    200
  By default, will store active basis functions for each batch.
  If in need of memory, prune_basis_once .false. can be used to disable this option.
  communication_type for Hartree potential was not specified.
  Defaulting to calc_hartree .
  Pulay mixer: Number of initial linear mixing iterations not set.
  Defaulting to    0 iterations.
  Work space size for distributed Hartree potential not set.
  Defaulting to   0.200000E+03 MB.
  Algorithm-dependent basis array size parameters:
  | n_max_pulay                         :       10
  Presetting      1001 iterations before the initial mixing cycle
  is restarted anyway using the sc_init_iter criterion / keyword.
  Presetting a factor      1.000 between actual scf density residual
  and density convergence criterion sc_accuracy_rho below which sc_init_iter
  takes no effect.
  Geometry relaxation not requested: no relaxation will be performed.
  Handling of forces: Unphysical translation and rotation will be removed from forces.
  No accuracy limit for integral partition fn. given. Defaulting to  0.1000E-14.
  No threshold value for u(r) in integrations given. Defaulting to  0.1000E-05.
  No accuracy for occupation numbers given. Defaulting to  0.1000E-12.
  No threshold value for occupation numbers given. Defaulting to  0.0000E+00.
  No accuracy for fermi level given. Defaulting to  0.1000E-19.
  Maximum # of iterations to find E_F not set. Defaulting to  200.
  Preferred method for the eigenvalue solver ('KS_method') not specified in 'control.in'.
  Defaulting to serial version, 'lapack_fast'.
  Will not use alltoall communication since running on < 1024 CPUs.
  Threshold for basis singularities not set.
  Default threshold for basis singularities:  0.1000E-04
  partition_type (choice of integration weights) for integrals was not specified.
  | Using a version of the partition function of Stratmann and coworkers ('stratmann_smoother').
  | At each grid point, the set of atoms used to build the partition table is smoothly restricted to
  | only those atoms whose free-atom density would be non-zero at that grid point.
  Partitioning for Hartree potential was not defined. Using partition_type for integrals.
  | Adjusted default value of keyword multip_moments_threshold to:       0.10000000E-11
  | This value may affect high angular momentum components of the Hartree potential in periodic systems.
  No q(lm)/r^(l+1) cutoff set for long-range Hartree potential.
  | Using default value of  0.100000E-09 .
  | Verify using the multipole_threshold keyword.
  Defaulting to new monopole extrapolation.
  Density update method: automatic selection selected.
------------------------------------------------------------


------------------------------------------------------------
          Reading geometry description geometry.in.
------------------------------------------------------------
  Input structure read successfully.
  The structure contains       13 atoms,  and a total of         48.000 electrons.

  Input geometry:
  | No unit cell requested.
  | Atomic structure:
  |       Atom                x [A]            y [A]            z [A]
  |    1: Species C             0.00000000        0.00000000        0.00000000
  |    2: Species H             1.09300000        0.00000000        0.00000000
  |    3: Species N            -0.47961000        0.00000000       -1.41207000
  |    4: Species H            -0.43464000       -0.95378000       -1.77278000
  |    5: Species H            -1.43937000        0.33854000       -1.43129000
  |    6: Species C            -0.49584000        1.26211000        0.72868000
  |    7: Species H            -1.58789000        1.28919000        0.74431000
  |    8: Species H            -0.13407000        1.27425000        1.75947000
  |    9: Species H            -0.13407000        2.16087000        0.22380000
  |   10: Species C            -0.39425000       -1.28861000        0.74398000
  |   11: Species O            -0.10189000       -1.56493000        1.88303000
  |   12: Species O            -1.10210000       -2.13717000        0.06896000
  |   13: Species H            -1.37037000       -2.71433000        0.80374000
  |

  | The smallest distance between any two atoms is         0.97210293 AA.
  |
  | The first atom of this pair is atom number                     12 .
  | The second atom of this pair is atom number                    13 .

  Number of empty states per atom not set in control.in - providing a guess from actual geometry.
  | Total number of empty states used during s.c.f. cycle:       29
  If you use a very high smearing, use empty_states (per atom!) in control.in to increase this value.

  Structure-dependent array size parameters: 
  | Maximum number of distinct radial functions  :       21
  | Maximum number of basis functions            :      119
  | Number of Kohn-Sham states (occupied + empty):       53
------------------------------------------------------------

------------------------------------------------------------
          Preparing all fixed parts of the calculation.
------------------------------------------------------------
  Determining machine precision:
    2.225073858507201E-308
  Setting up grids for atomic and cluster calculations.

  Creating wave function, potential, and density for free atoms.

  Species: H

  List of occupied orbitals and eigenvalues:
    n    l              occ      energy [Ha]    energy [eV]
    1    0           1.0000        -0.237589        -6.4651


  Species: C

  List of occupied orbitals and eigenvalues:
    n    l              occ      energy [Ha]    energy [eV]
    1    0           2.0000       -10.038835      -273.1706
    2    0           2.0000        -0.502696       -13.6791
    2    1           2.0000        -0.191971        -5.2238


  Species: N

  List of occupied orbitals and eigenvalues:
    n    l              occ      energy [Ha]    energy [eV]
    1    0           2.0000       -14.128000      -384.4424
    2    0           2.0000        -0.681077       -18.5330
    2    1           3.0000        -0.259788        -7.0692


  Species: O

  List of occupied orbitals and eigenvalues:
    n    l              occ      energy [Ha]    energy [eV]
    1    0           2.0000       -18.898188      -514.2459
    2    0           2.0000        -0.878505       -23.9053
    2    1           4.0000        -0.331779        -9.0282

  Creating fixed part of basis set: Ionic, confined, hydrogenic.
 
  H                    hydrogenic:
 
  List of hydrogenic basis orbitals: 
    n    l      effective z      eigenvalue [eV]  inner max. [A]     outer max. [A]     outer radius [A]   
    2    0         2.100000       -14.9728           0.193243           1.317208           4.583499
    2    1         3.500000       -41.6669           0.602369           0.602369           3.723403
 
 
  C                    hydrogenic:
 
  List of hydrogenic basis orbitals: 
    n    l      effective z      eigenvalue [eV]  inner max. [A]     outer max. [A]     outer radius [A]   
    2    1         1.700000        -9.7616           1.230570           1.230570           4.607917
    3    2         6.000000       -54.4224           0.792453           0.792453           3.883070
    2    0         4.900000       -81.6679           0.082559           0.562749           3.078220
 
 
  N                    hydrogenic:
 
  List of hydrogenic basis orbitals: 
    n    l      effective z      eigenvalue [eV]  inner max. [A]     outer max. [A]     outer radius [A]   
    2    1         1.800000       -10.9749           1.177451           1.177451           4.573712
    3    2         6.800000       -69.9026           0.704619           0.704619           3.538137
    3    0         5.800000       -50.8545           0.067388           1.191934           4.250239
 
 
  O                    hydrogenic:
 
  List of hydrogenic basis orbitals: 
    n    l      effective z      eigenvalue [eV]  inner max. [A]     outer max. [A]     outer radius [A]   
    2    1         1.800000       -10.9749           1.164242           1.164242           4.578029
    3    2         7.600000       -87.3180           0.624125           0.624125           3.251020
    3    0         6.400000       -61.9207           0.061167           1.081902           4.001998
 

  Adding cutoff potential to free-atom effective potential.
  Creating atomic-like basis functions for current effective potential.

  Species H                   :

  List of atomic basis orbitals and eigenvalues:
    n    l      energy [Ha]    energy [eV]    outer radius [A]
    1    0        -0.237589        -6.4651       4.527807


  Species C                   :

  List of atomic basis orbitals and eigenvalues:
    n    l      energy [Ha]    energy [eV]    outer radius [A]
    1    0       -10.038835      -273.1706       1.934409
    2    0        -0.502696       -13.6791       4.496620
    2    1        -0.191971        -5.2238       4.551928


  Species N                   :

  List of atomic basis orbitals and eigenvalues:
    n    l      energy [Ha]    energy [eV]    outer radius [A]
    1    0       -14.128000      -384.4424       1.637919
    2    0        -0.681077       -18.5330       4.463241
    2    1        -0.259788        -7.0692       4.518138


  Species O                   :

  List of atomic basis orbitals and eigenvalues:
    n    l      energy [Ha]    energy [eV]    outer radius [A]
    1    0       -18.898188      -514.2459       1.415765
    2    0        -0.878505       -23.9053       4.413171
    2    1        -0.331779        -9.0282       4.522403

  Assembling full basis from fixed parts.
  | Species H :   atomic orbital   1 s accepted.
  | Species H :    hydro orbital   2 s accepted.
  | Species H :    hydro orbital   2 p accepted.
  | Species C :   atomic orbital   1 s accepted.
  | Species C :    hydro orbital   2 s accepted.
  | Species C :   atomic orbital   2 s accepted.
  | Species C :   atomic orbital   2 p accepted.
  | Species C :    hydro orbital   2 p accepted.
  | Species C :    hydro orbital   3 d accepted.
  | Species N :   atomic orbital   1 s accepted.
  | Species N :    hydro orbital   3 s accepted.
  | Species N :   atomic orbital   2 s accepted.
  | Species N :   atomic orbital   2 p accepted.
  | Species N :    hydro orbital   2 p accepted.
  | Species N :    hydro orbital   3 d accepted.
  | Species O :   atomic orbital   1 s accepted.
  | Species O :    hydro orbital   3 s accepted.
  | Species O :   atomic orbital   2 s accepted.
  | Species O :   atomic orbital   2 p accepted.
  | Species O :    hydro orbital   2 p accepted.
  | Species O :    hydro orbital   3 d accepted.
 
  Basis size parameters after reduction:
  | Total number of radial functions:       21
  | Total number of basis functions :      119
 
  Per-task memory consumption for arrays in subroutine allocate_ext:
  |           5.250512MB.
  Testing on-site integration grid accuracy.
  |  Species  Function  <phi|h_atom|phi> (log., in eV)  <phi|h_atom|phi> (rad., in eV)
           1        1                 -6.4663192853                 -6.4651273558
           1        2                 13.7111246313                 13.7170609718
           1        3                 25.2673269279                 25.2674696378
           2        4               -273.1705927641               -273.1705631568
           2        5                -10.7109323383                -10.7107120029
           2        6                 17.4381822266                 17.4352413244
           2        7                 -5.2255326521                 -5.2270484734
           2        8                  8.6835629259                  8.6603288385
           2        9                 27.4952418996                 27.4953360207
           3       10               -384.4424306495               -384.4423701208
           3       11                 12.5842251816                 12.5842222903
           3       12                -15.7264628251                -15.7264433455
           3       13                 -7.0696854293                 -7.0701769954
           3       14                  8.8090390882                  8.7901077751
           3       15                 35.9586762123                 35.9588528632
           4       16               -514.2458688638               -514.2457643834
           4       17                 15.1795651126                 15.1795290741
           4       18                -21.5359799773                -21.5360846186
           4       19                 -9.0283069236                 -9.0284644067
           4       20                  8.3027758564                  8.2834874195
           4       21                 45.8339351984                 45.8338762259

  Preparing densities etc. for the partition functions (integrals / Hartree potential).

  Preparations completed.
  max(cpu_time)          :      0.146 s.
  Wall clock time (cpu1) :      0.147 s.
------------------------------------------------------------

------------------------------------------------------------
          Begin self-consistency loop: Initialization.

          Date     :  20200710, Time     :  145358.477
------------------------------------------------------------

  Initializing index lists of integration centers etc. from given atomic structure:
  | Number of centers in hartree potential         :        13
  | Number of centers in hartree multipole         :        13
  | Number of centers in electron density summation:        13
  | Number of centers in basis integrals           :        13
  | Number of centers in integrals                 :        13
  | Number of centers in hamiltonian               :        13
  Partitioning the integration grid into batches with parallel hashing+maxmin method.
  | Number of batches:      956
  | Maximal batch size:     138
  | Minimal batch size:      66
  | Average batch size:      72.851
  | Standard deviation of batch sizes:      17.479

  Integration load balanced across     1 MPI tasks.
  Work distribution over tasks is as follows:
  Task     0 has      69646 integration points.
  Initializing partition tables, free-atom densities, potentials, etc. across the integration grid (initialize_grid_storage).
  | initialize_grid_storage: Actual outermost partition radius vs. multipole_radius_free
  | (-- VB: in principle, multipole_radius_free should be larger, hence this output)
  | Species        1: Confinement radius =              4.999999999999999 AA, multipole_radius_free =              5.054417573612229 AA.
  | Species        1: outer_partition_radius set to              5.054417573612229 AA .
  | Species        2: Confinement radius =              4.999999999999999 AA, multipole_radius_free =              5.019602836301480 AA.
  | Species        2: outer_partition_radius set to              5.019602836301480 AA .
  | Species        3: Confinement radius =              4.999999999999999 AA, multipole_radius_free =              5.043624274424571 AA.
  | Species        3: outer_partition_radius set to              5.043624274424571 AA .
  | Species        4: Confinement radius =              4.999999999999999 AA, multipole_radius_free =              5.048384829883283 AA.
  | Species        4: outer_partition_radius set to              5.048384829883283 AA .
  | Original list of interatomic distances with          13 x         13 entries is created.
  | Net number of integration points:    69646
  | of which are non-zero points    :    59537
  Renormalizing the initial density to the exact electron count on the 3D integration grid.
  | Initial density: Formal number of electrons (from input files) :      48.0000000000
  | Integrated number of electrons on 3D grid     :      47.9999965221
  | Charge integration error                      :      -0.0000034779
  | Normalization factor for density and gradient :       1.0000000725
  Obtaining max. number of non-zero basis functions in each batch (get_n_compute_maxes).
  | Maximal number of non-zero basis functions:      119 in task     0
  Selecting the method for density update.
  Loop over occupied states selected for charge density update.
  Allocating        0.050 MB for KS_eigenvector
  Integrating Hamiltonian matrix: batch-based integration.
  Time summed over all CPUs for integration: real work        0.492 s, elapsed        0.492 s
  Integrating overlap matrix.
  Time summed over all CPUs for integration: real work        0.211 s, elapsed        0.211 s

  Updating Kohn-Sham eigenvalues and eigenvectors using ELSI and the ELPA eigensolver.
  Overlap matrix is nonsingular
  | Lowest eigenvalue of overlap  :  0.57E-02
  | Highest eigenvalue of overlap :  0.61E+01
  Finished singularity check of overlap matrix
  | Time :     0.002 s
  Finished Cholesky decomposition
  | Time :     0.000 s
  Finished transformation to standard eigenproblem
  | Time :     0.000 s
  Starting LAPACK eigensolver
  Finished solving standard eigenproblem
  | Time :     0.002 s
  Finished back-transformation of eigenvectors
  | Time :     0.000 s

  Obtaining occupation numbers and chemical potential using ELSI.
  | Chemical potential (Fermi level):    -8.44297750eV
  Writing Kohn-Sham eigenvalues.

  State    Occupation    Eigenvalue [Ha]    Eigenvalue [eV]
      1       2.00000         -19.008001         -517.23402
      2       2.00000         -18.978318         -516.42630
      3       2.00000         -14.245788         -387.64761
      4       2.00000         -10.166762         -276.65166
      5       2.00000         -10.141235         -275.95705
      6       2.00000         -10.132098         -275.70842
      7       2.00000          -1.188570          -32.34264
      8       2.00000          -1.093313          -29.75057
      9       2.00000          -0.991733          -26.98643
     10       2.00000          -0.860396          -23.41257
     11       2.00000          -0.761296          -20.71592
     12       2.00000          -0.681792          -18.55250
     13       2.00000          -0.620028          -16.87183
     14       2.00000          -0.607104          -16.52014
     15       2.00000          -0.594828          -16.18609
     16       2.00000          -0.565429          -15.38611
     17       2.00000          -0.545861          -14.85365
     18       2.00000          -0.524139          -14.26254
     19       2.00000          -0.512360          -13.94202
     20       2.00000          -0.501897          -13.65732
     21       2.00000          -0.479395          -13.04499
     22       2.00000          -0.428334          -11.65557
     23       2.00000          -0.422750          -11.50362
     24       2.00000          -0.377582          -10.27452
     25       0.00000          -0.149414           -4.06577
     26       0.00000          -0.057755           -1.57160
     27       0.00000          -0.027432           -0.74645
     28       0.00000          -0.016040           -0.43646
     29       0.00000          -0.003186           -0.08668
     30       0.00000           0.008423            0.22921
     31       0.00000           0.017309            0.47099
     32       0.00000           0.030680            0.83484
     33       0.00000           0.042453            1.15520
     34       0.00000           0.061005            1.66003
     35       0.00000           0.094133            2.56149
     36       0.00000           0.133521            3.63328
     37       0.00000           0.149584            4.07039
     38       0.00000           0.200334            5.45138
     39       0.00000           0.205791            5.59985
     40       0.00000           0.239835            6.52625
     41       0.00000           0.252149            6.86133
     42       0.00000           0.273290            7.43661
     43       0.00000           0.284292            7.73598
     44       0.00000           0.310799            8.45727
     45       0.00000           0.333345            9.07078
     46       0.00000           0.363456            9.89015
     47       0.00000           0.369262           10.04813
     48       0.00000           0.396512           10.78965
     49       0.00000           0.439095           11.94837
     50       0.00000           0.470693           12.80821
     51       0.00000           0.484098           13.17297
     52       0.00000           0.527280           14.34801
     53       0.00000           0.609287           16.57953

  Highest occupied state (VBM) at    -10.27451634 eV
  | Occupation number:      2.00000000

  Lowest unoccupied state (CBM) at    -4.06577479 eV
  | Occupation number:      0.00000000

  Overall HOMO-LUMO gap:      6.20874156 eV.
  Calculating total energy contributions from superposition of free atom densities.

  Total energy components:
  | Sum of eigenvalues            :        -188.85801706 Ha       -5139.08811807 eV
  | XC energy correction          :         -41.79022979 Ha       -1137.17001115 eV
  | XC potential correction       :          53.72211234 Ha        1461.85305493 eV
  | Free-atom electrostatic energy:        -146.84677582 Ha       -3995.90407935 eV
  | Hartree energy correction     :           0.00000000 Ha           0.00000000 eV
  | vdW energy correction         :           0.00000000 Ha           0.00000000 eV
  | Entropy correction            :           0.00000000 Ha           0.00000000 eV
  | ---------------------------
  | Total energy                  :        -323.77291033 Ha       -8810.30915363 eV
  | Total energy, T -> 0          :        -323.77291033 Ha       -8810.30915363 eV  <-- do not rely on this value for anything but (periodic) metals
  | Electronic free energy        :        -323.77291033 Ha       -8810.30915363 eV

  Derived energy quantities:
  | Kinetic energy                :         320.48758493 Ha        8720.91090107 eV
  | Electrostatic energy          :        -602.47026547 Ha      -16394.05004355 eV
  | Energy correction for multipole
  | error in Hartree potential    :           0.00000000 Ha           0.00000000 eV
  | Sum of eigenvalues per atom                           :        -395.31447062 eV
  | Total energy (T->0) per atom                          :        -677.71608874 eV  <-- do not rely on this value for anything but (periodic) metals
  | Electronic free energy per atom                       :        -677.71608874 eV
  Initialize hartree_potential_storage
  Max. number of atoms included in rho_multipole:           13

  End scf initialization - timings             :  max(cpu_time)    wall_clock(cpu1)
  | Time for scf. initialization               :        1.146 s           1.148 s
  | Boundary condition initialization          :        0.000 s           0.000 s
  | Integration                                :        0.703 s           0.703 s
  | Solution of K.-S. eqns.                    :        0.004 s           0.005 s
  | Grid partitioning                          :        0.111 s           0.112 s
  | Preloading free-atom quantities on grid    :        0.002 s           0.002 s
  | Free-atom superposition energy             :        0.084 s           0.085 s
  | Total energy evaluation                    :        0.000 s           0.000 s

  Partial memory accounting:
  | Current value for overall tracked memory usage on task 0  :           0.165 MB
  | Peak value for overall tracked memory usage on task 0     :           0.676 MB after allocating wave
  | Largest tracked array allocation on task 0 so far         :           0.131 MB  when allocating H_times_psi
  Note:  These values currently only include a subset of arrays which are explicitly tracked.
  The "true" memory usage will be greater.
------------------------------------------------------------

------------------------------------------------------------
          Begin self-consistency iteration #    1

  Date     :  20200710, Time     :  145359.625
------------------------------------------------------------
  Evaluating new KS density.
  Integration grid: deviation in total charge (<rho> - N_e) =  -2.131628E-14
  Pulay mixing of updated and previous charge densities.

  Evaluating partitioned Hartree potential by multipole expansion.
  | Analytical far-field extrapolation by fixed multipoles:
  | Hartree multipole sum: apparent total charge =  -0.112849E-03
  Summing up the Hartree potential.
  Time summed over all CPUs for potential: real work        0.281 s, elapsed        0.281 s
  | RMS charge density error from multipole expansion :   0.595763E-02

  Integrating Hamiltonian matrix: batch-based integration.
  Time summed over all CPUs for integration: real work        0.493 s, elapsed        0.493 s

  Updating Kohn-Sham eigenvalues and eigenvectors using ELSI and the ELPA eigensolver.
  Finished Cholesky decomposition
  | Time :     0.000 s
  Finished transformation to standard eigenproblem
  | Time :     0.000 s
  Starting LAPACK eigensolver
  Finished solving standard eigenproblem
  | Time :     0.002 s
  Finished back-transformation of eigenvectors
  | Time :     0.000 s

  Obtaining occupation numbers and chemical potential using ELSI.
  | Chemical potential (Fermi level):    -7.25703645eV
  Writing Kohn-Sham eigenvalues.

  State    Occupation    Eigenvalue [Ha]    Eigenvalue [eV]
      1       2.00000         -18.910547         -514.58218
      2       2.00000         -18.838740         -512.62819
      3       2.00000         -14.094201         -383.52272
      4       2.00000         -10.115580         -275.25894
      5       2.00000         -10.061742         -273.79392
      6       2.00000         -10.032025         -272.98529
      7       2.00000          -1.141922          -31.07327
      8       2.00000          -1.032417          -28.09351
      9       2.00000          -0.920755          -25.05502
     10       2.00000          -0.793628          -21.59572
     11       2.00000          -0.711654          -19.36508
     12       2.00000          -0.635507          -17.29303
     13       2.00000          -0.559027          -15.21191
     14       2.00000          -0.552391          -15.03133
     15       2.00000          -0.533964          -14.52990
     16       2.00000          -0.506361          -13.77878
     17       2.00000          -0.491163          -13.36522
     18       2.00000          -0.468459          -12.74742
     19       2.00000          -0.445632          -12.12628
     20       2.00000          -0.443907          -12.07932
     21       2.00000          -0.425875          -11.58866
     22       2.00000          -0.368890          -10.03801
     23       2.00000          -0.350772           -9.54498
     24       2.00000          -0.305001           -8.29950
     25       0.00000          -0.113236           -3.08132
     26       0.00000          -0.032231           -0.87704
     27       0.00000           0.004293            0.11681
     28       0.00000           0.015673            0.42648
     29       0.00000           0.027667            0.75285
     30       0.00000           0.048214            1.31196
     31       0.00000           0.058678            1.59672
     32       0.00000           0.069761            1.89829
     33       0.00000           0.079247            2.15641
     34       0.00000           0.103921            2.82783
     35       0.00000           0.138028            3.75595
     36       0.00000           0.161701            4.40011
     37       0.00000           0.172772            4.70136
     38       0.00000           0.225813            6.14468
     39       0.00000           0.233836            6.36300
     40       0.00000           0.277592            7.55366
     41       0.00000           0.289653            7.88187
     42       0.00000           0.309930            8.43361
     43       0.00000           0.319423            8.69194
     44       0.00000           0.349789            9.51825
     45       0.00000           0.369314           10.04955
     46       0.00000           0.400927           10.90978
     47       0.00000           0.409818           11.15171
     48       0.00000           0.427676           11.63765
     49       0.00000           0.479452           13.04655
     50       0.00000           0.509942           13.87624
     51       0.00000           0.514341           13.99593
     52       0.00000           0.562195           15.29810
     53       0.00000           0.650220           17.69338

  Highest occupied state (VBM) at     -8.29949701 eV
  | Occupation number:      2.00000000

  Lowest unoccupied state (CBM) at    -3.08131565 eV
  | Occupation number:      0.00000000

  Overall HOMO-LUMO gap:      5.21818136 eV.

  Total energy components:
  | Sum of eigenvalues            :        -185.48032051 Ha       -5047.17631859 eV
  | XC energy correction          :         -42.11786637 Ha       -1146.08545611 eV
  | XC potential correction       :          54.14822170 Ha        1473.44808057 eV
  | Free-atom electrostatic energy:        -146.84677582 Ha       -3995.90407935 eV
  | Hartree energy correction     :          -3.29791251 Ha         -89.74076540 eV
  | vdW energy correction         :           0.00000000 Ha           0.00000000 eV
  | Entropy correction            :           0.00000000 Ha           0.00000000 eV
  | ---------------------------
  | Total energy                  :        -323.59465351 Ha       -8805.45853888 eV
  | Total energy, T -> 0          :        -323.59465351 Ha       -8805.45853888 eV  <-- do not rely on this value for anything but (periodic) metals
  | Electronic free energy        :        -323.59465351 Ha       -8805.45853888 eV

  Derived energy quantities:
  | Kinetic energy                :         322.26970169 Ha        8769.40476526 eV
  | Electrostatic energy          :        -603.74648883 Ha      -16428.77784802 eV
  | Energy correction for multipole
  | error in Hartree potential    :           0.01199812 Ha           0.32648559 eV
  | Sum of eigenvalues per atom                           :        -388.24433220 eV
  | Total energy (T->0) per atom                          :        -677.34296453 eV  <-- do not rely on this value for anything but (periodic) metals
  | Electronic free energy per atom                       :        -677.34296453 eV

  Self-consistency convergence accuracy:
  | Change of charge density      :  0.5799E+00
  | Change of sum of eigenvalues  :  0.9191E+02 eV
  | Change of total energy        :  0.4851E+01 eV

  End self-consistency iteration #     1       :  max(cpu_time)    wall_clock(cpu1)
  | Time for this iteration                    :        1.183 s           1.184 s
  | Charge density update                      :        0.392 s           0.392 s
  | Density mixing                             :        0.005 s           0.006 s
  | Hartree multipole update                   :        0.009 s           0.008 s
  | Hartree multipole summation                :        0.282 s           0.282 s
  | Integration                                :        0.493 s           0.494 s
  | Solution of K.-S. eqns.                    :        0.002 s           0.002 s
  | Total energy evaluation                    :        0.000 s           0.000 s

  Partial memory accounting:
  | Current value for overall tracked memory usage on task 0  :           0.165 MB
  | Peak value for overall tracked memory usage on task 0     :           0.691 MB after allocating gradient_basis_wave
  | Largest tracked array allocation on task 0 so far         :           0.394 MB  when allocating gradient_basis_wave
  Note:  These values currently only include a subset of arrays which are explicitly tracked.
  The "true" memory usage will be greater.
------------------------------------------------------------

------------------------------------------------------------
          Begin self-consistency iteration #    2

  Date     :  20200710, Time     :  145400.812
------------------------------------------------------------
  Evaluating new KS density.
  Integration grid: deviation in total charge (<rho> - N_e) =  -5.684342E-14
  Pulay mixing of updated and previous charge densities.

  Evaluating partitioned Hartree potential by multipole expansion.
  | Analytical far-field extrapolation by fixed multipoles:
  | Hartree multipole sum: apparent total charge =  -0.253593E-03
  Summing up the Hartree potential.
  Time summed over all CPUs for potential: real work        0.287 s, elapsed        0.287 s
  | RMS charge density error from multipole expansion :   0.142791E-01

  Integrating Hamiltonian matrix: batch-based integration.
  Time summed over all CPUs for integration: real work        0.493 s, elapsed        0.493 s

  Updating Kohn-Sham eigenvalues and eigenvectors using ELSI and the ELPA eigensolver.
  Finished Cholesky decomposition
  | Time :     0.000 s
  Finished transformation to standard eigenproblem
  | Time :     0.000 s
  Starting LAPACK eigensolver
  Finished solving standard eigenproblem
  | Time :     0.001 s
  Finished back-transformation of eigenvectors
  | Time :     0.000 s

  Obtaining occupation numbers and chemical potential using ELSI.
  | Chemical potential (Fermi level):    -5.84897917eV
  Highest occupied state (VBM) at     -6.27307138 eV
  | Occupation number:      2.00000000

  Lowest unoccupied state (CBM) at    -1.79557364 eV
  | Occupation number:      0.00000000

  Overall HOMO-LUMO gap:      4.47749774 eV.

  Checking to see if s.c.f. parameters should be adjusted.

  Total energy components:
  | Sum of eigenvalues            :        -181.87312692 Ha       -4949.01958675 eV
  | XC energy correction          :         -42.48241706 Ha       -1156.00538503 eV
  | XC potential correction       :          54.62081153 Ha        1486.30790416 eV
  | Free-atom electrostatic energy:        -146.84677582 Ha       -3995.90407935 eV
  | Hartree energy correction     :          -6.93624553 Ha        -188.74484417 eV
  | vdW energy correction         :           0.00000000 Ha           0.00000000 eV
  | Entropy correction            :           0.00000000 Ha           0.00000000 eV
  | ---------------------------
  | Total energy                  :        -323.51775380 Ha       -8803.36599114 eV
  | Total energy, T -> 0          :        -323.51775380 Ha       -8803.36599114 eV  <-- do not rely on this value for anything but (periodic) metals
  | Electronic free energy        :        -323.51775380 Ha       -8803.36599114 eV

  Derived energy quantities:
  | Kinetic energy                :         323.61118153 Ha        8805.90828910 eV
  | Electrostatic energy          :        -604.64651827 Ha      -16453.26889521 eV
  | Energy correction for multipole
  | error in Hartree potential    :           0.02680008 Ha           0.72926722 eV
  | Sum of eigenvalues per atom                           :        -380.69381437 eV
  | Total energy (T->0) per atom                          :        -677.18199932 eV  <-- do not rely on this value for anything but (periodic) metals
  | Electronic free energy per atom                       :        -677.18199932 eV

  Self-consistency convergence accuracy:
  | Change of charge density      :  0.3625E+00
  | Change of sum of eigenvalues  :  0.9816E+02 eV
  | Change of total energy        :  0.2093E+01 eV

  End self-consistency iteration #     2       :  max(cpu_time)    wall_clock(cpu1)
  | Time for this iteration                    :        1.177 s           1.184 s
  | Charge density update                      :        0.384 s           0.385 s
  | Density mixing                             :        0.007 s           0.006 s
  | Hartree multipole update                   :        0.009 s           0.009 s
  | Hartree multipole summation                :        0.282 s           0.288 s
  | Integration                                :        0.493 s           0.493 s
  | Solution of K.-S. eqns.                    :        0.002 s           0.002 s
  | Total energy evaluation                    :        0.000 s           0.000 s

  Partial memory accounting:
  | Current value for overall tracked memory usage on task 0  :           0.166 MB
  | Peak value for overall tracked memory usage on task 0     :           0.691 MB after allocating gradient_basis_wave
  | Largest tracked array allocation on task 0 so far         :           0.394 MB  when allocating gradient_basis_wave
  Note:  These values currently only include a subset of arrays which are explicitly tracked.
  The "true" memory usage will be greater.
------------------------------------------------------------

------------------------------------------------------------
          Begin self-consistency iteration #    3

  Date     :  20200710, Time     :  145401.999
------------------------------------------------------------
  Evaluating new KS density.
  Integration grid: deviation in total charge (<rho> - N_e) =  -4.973799E-14
  Pulay mixing of updated and previous charge densities.

  Evaluating partitioned Hartree potential by multipole expansion.
  | Analytical far-field extrapolation by fixed multipoles:
  | Hartree multipole sum: apparent total charge =  -0.350662E-03
  Summing up the Hartree potential.
  Time summed over all CPUs for potential: real work        0.282 s, elapsed        0.282 s
  | RMS charge density error from multipole expansion :   0.226567E-01

  Integrating Hamiltonian matrix: batch-based integration.
  Time summed over all CPUs for integration: real work        0.492 s, elapsed        0.492 s

  Updating Kohn-Sham eigenvalues and eigenvectors using ELSI and the ELPA eigensolver.
  Finished Cholesky decomposition
  | Time :     0.000 s
  Finished transformation to standard eigenproblem
  | Time :     0.000 s
  Starting LAPACK eigensolver
  Finished solving standard eigenproblem
  | Time :     0.001 s
  Finished back-transformation of eigenvectors
  | Time :     0.000 s

  Obtaining occupation numbers and chemical potential using ELSI.
  | Chemical potential (Fermi level):    -5.13016967eV
  Highest occupied state (VBM) at     -5.61880691 eV
  | Occupation number:      2.00000000

  Lowest unoccupied state (CBM) at    -1.07000880 eV
  | Occupation number:      0.00000000

  Overall HOMO-LUMO gap:      4.54879811 eV.

  Total energy components:
  | Sum of eigenvalues            :        -180.58961627 Ha       -4914.09348501 eV
  | XC energy correction          :         -42.63213474 Ha       -1160.07941059 eV
  | XC potential correction       :          54.81162294 Ha        1491.50014680 eV
  | Free-atom electrostatic energy:        -146.84677582 Ha       -3995.90407935 eV
  | Hartree energy correction     :          -8.24909728 Ha        -224.46935779 eV
  | vdW energy correction         :           0.00000000 Ha           0.00000000 eV
  | Entropy correction            :           0.00000000 Ha           0.00000000 eV
  | ---------------------------
  | Total energy                  :        -323.50600117 Ha       -8803.04618595 eV
  | Total energy, T -> 0          :        -323.50600117 Ha       -8803.04618595 eV  <-- do not rely on this value for anything but (periodic) metals
  | Electronic free energy        :        -323.50600117 Ha       -8803.04618595 eV

  Derived energy quantities:
  | Kinetic energy                :         323.16102931 Ha        8793.65902403 eV
  | Electrostatic energy          :        -604.03489574 Ha      -16436.62579939 eV
  | Energy correction for multipole
  | error in Hartree potential    :           0.03832571 Ha           1.04289564 eV
  | Sum of eigenvalues per atom                           :        -378.00719115 eV
  | Total energy (T->0) per atom                          :        -677.15739892 eV  <-- do not rely on this value for anything but (periodic) metals
  | Electronic free energy per atom                       :        -677.15739892 eV

  Self-consistency convergence accuracy:
  | Change of charge density      :  0.2007E+00
  | Change of sum of eigenvalues  :  0.3493E+02 eV
  | Change of total energy        :  0.3198E+00 eV

  End self-consistency iteration #     3       :  max(cpu_time)    wall_clock(cpu1)
  | Time for this iteration                    :        1.179 s           1.181 s
  | Charge density update                      :        0.385 s           0.386 s
  | Density mixing                             :        0.008 s           0.008 s
  | Hartree multipole update                   :        0.009 s           0.009 s
  | Hartree multipole summation                :        0.282 s           0.282 s
  | Integration                                :        0.492 s           0.493 s
  | Solution of K.-S. eqns.                    :        0.002 s           0.002 s
  | Total energy evaluation                    :        0.000 s           0.000 s

  Partial memory accounting:
  | Current value for overall tracked memory usage on task 0  :           0.166 MB
  | Peak value for overall tracked memory usage on task 0     :           0.692 MB after allocating gradient_basis_wave
  | Largest tracked array allocation on task 0 so far         :           0.394 MB  when allocating gradient_basis_wave
  Note:  These values currently only include a subset of arrays which are explicitly tracked.
  The "true" memory usage will be greater.
------------------------------------------------------------

------------------------------------------------------------
          Begin self-consistency iteration #    4

  Date     :  20200710, Time     :  145403.182
------------------------------------------------------------
  Evaluating new KS density.
  Integration grid: deviation in total charge (<rho> - N_e) =  -2.842171E-14
  Pulay mixing of updated and previous charge densities.

  Evaluating partitioned Hartree potential by multipole expansion.
  | Analytical far-field extrapolation by fixed multipoles:
  | Hartree multipole sum: apparent total charge =  -0.380798E-03
  Summing up the Hartree potential.
  Time summed over all CPUs for potential: real work        0.281 s, elapsed        0.281 s
  | RMS charge density error from multipole expansion :   0.260043E-01

  Integrating Hamiltonian matrix: batch-based integration.
  Time summed over all CPUs for integration: real work        0.491 s, elapsed        0.491 s

  Updating Kohn-Sham eigenvalues and eigenvectors using ELSI and the ELPA eigensolver.
  Finished Cholesky decomposition
  | Time :     0.000 s
  Finished transformation to standard eigenproblem
  | Time :     0.000 s
  Starting LAPACK eigensolver
  Finished solving standard eigenproblem
  | Time :     0.002 s
  Finished back-transformation of eigenvectors
  | Time :     0.000 s

  Obtaining occupation numbers and chemical potential using ELSI.
  | Chemical potential (Fermi level):    -5.04196501eV
  Highest occupied state (VBM) at     -5.42958504 eV
  | Occupation number:      2.00000000

  Lowest unoccupied state (CBM) at    -1.00504527 eV
  | Occupation number:      0.00000000

  Overall HOMO-LUMO gap:      4.42453977 eV.

  Total energy components:
  | Sum of eigenvalues            :        -180.45813433 Ha       -4910.51567946 eV
  | XC energy correction          :         -42.66787730 Ha       -1161.05201504 eV
  | XC potential correction       :          54.85661713 Ha        1492.72450111 eV
  | Free-atom electrostatic energy:        -146.84677582 Ha       -3995.90407935 eV
  | Hartree energy correction     :          -8.38905395 Ha        -228.27777268 eV
  | vdW energy correction         :           0.00000000 Ha           0.00000000 eV
  | Entropy correction            :           0.00000000 Ha           0.00000000 eV
  | ---------------------------
  | Total energy                  :        -323.50522427 Ha       -8803.02504542 eV
  | Total energy, T -> 0          :        -323.50522427 Ha       -8803.02504542 eV  <-- do not rely on this value for anything but (periodic) metals
  | Electronic free energy        :        -323.50522427 Ha       -8803.02504542 eV

  Derived energy quantities:
  | Kinetic energy                :         322.79247103 Ha        8783.63004281 eV
  | Electrostatic energy          :        -603.62981800 Ha      -16425.60307320 eV
  | Energy correction for multipole
  | error in Hartree potential    :           0.04246255 Ha           1.15546484 eV
  | Sum of eigenvalues per atom                           :        -377.73197534 eV
  | Total energy (T->0) per atom                          :        -677.15577272 eV  <-- do not rely on this value for anything but (periodic) metals
  | Electronic free energy per atom                       :        -677.15577272 eV

  Self-consistency convergence accuracy:
  | Change of charge density      :  0.6077E-01
  | Change of sum of eigenvalues  :  0.3578E+01 eV
  | Change of total energy        :  0.2114E-01 eV

  End self-consistency iteration #     4       :  max(cpu_time)    wall_clock(cpu1)
  | Time for this iteration                    :        1.177 s           1.178 s
  | Charge density update                      :        0.384 s           0.384 s
  | Density mixing                             :        0.009 s           0.010 s
  | Hartree multipole update                   :        0.009 s           0.009 s
  | Hartree multipole summation                :        0.282 s           0.282 s
  | Integration                                :        0.491 s           0.491 s
  | Solution of K.-S. eqns.                    :        0.002 s           0.002 s
  | Total energy evaluation                    :        0.000 s           0.000 s

  Partial memory accounting:
  | Current value for overall tracked memory usage on task 0  :           0.166 MB
  | Peak value for overall tracked memory usage on task 0     :           0.692 MB after allocating gradient_basis_wave
  | Largest tracked array allocation on task 0 so far         :           0.394 MB  when allocating gradient_basis_wave
  Note:  These values currently only include a subset of arrays which are explicitly tracked.
  The "true" memory usage will be greater.
------------------------------------------------------------

------------------------------------------------------------
          Begin self-consistency iteration #    5

  Date     :  20200710, Time     :  145404.363
------------------------------------------------------------
  Evaluating new KS density.
  Integration grid: deviation in total charge (<rho> - N_e) =  -3.552714E-14
  Pulay mixing of updated and previous charge densities.

  Evaluating partitioned Hartree potential by multipole expansion.
  | Analytical far-field extrapolation by fixed multipoles:
  | Hartree multipole sum: apparent total charge =  -0.374996E-03
  Summing up the Hartree potential.
  Time summed over all CPUs for potential: real work        0.281 s, elapsed        0.281 s
  | RMS charge density error from multipole expansion :   0.257385E-01

  Integrating Hamiltonian matrix: batch-based integration.
  Time summed over all CPUs for integration: real work        0.491 s, elapsed        0.491 s

  Updating Kohn-Sham eigenvalues and eigenvectors using ELSI and the ELPA eigensolver.
  Finished Cholesky decomposition
  | Time :     0.000 s
  Finished transformation to standard eigenproblem
  | Time :     0.000 s
  Starting LAPACK eigensolver
  Finished solving standard eigenproblem
  | Time :     0.001 s
  Finished back-transformation of eigenvectors
  | Time :     0.000 s

  Obtaining occupation numbers and chemical potential using ELSI.
  | Chemical potential (Fermi level):    -5.10040794eV
  Highest occupied state (VBM) at     -5.51095424 eV
  | Occupation number:      2.00000000

  Lowest unoccupied state (CBM) at    -1.07846083 eV
  | Occupation number:      0.00000000

  Overall HOMO-LUMO gap:      4.43249341 eV.

  Total energy components:
  | Sum of eigenvalues            :        -180.62040635 Ha       -4914.93132580 eV
  | XC energy correction          :         -42.64751112 Ha       -1160.49782298 eV
  | XC potential correction       :          54.83021868 Ha        1492.00616265 eV
  | Free-atom electrostatic energy:        -146.84677582 Ha       -3995.90407935 eV
  | Hartree energy correction     :          -8.22045598 Ha        -223.68998838 eV
  | vdW energy correction         :           0.00000000 Ha           0.00000000 eV
  | Entropy correction            :           0.00000000 Ha           0.00000000 eV
  | ---------------------------
  | Total energy                  :        -323.50493059 Ha       -8803.01705387 eV
  | Total energy, T -> 0          :        -323.50493059 Ha       -8803.01705387 eV  <-- do not rely on this value for anything but (periodic) metals
  | Electronic free energy        :        -323.50493059 Ha       -8803.01705387 eV

  Derived energy quantities:
  | Kinetic energy                :         322.70793561 Ha        8781.32971701 eV
  | Electrostatic energy          :        -603.56535508 Ha      -16423.84894790 eV
  | Energy correction for multipole
  | error in Hartree potential    :           0.04187328 Ha           1.13943001 eV
  | Sum of eigenvalues per atom                           :        -378.07164045 eV
  | Total energy (T->0) per atom                          :        -677.15515799 eV  <-- do not rely on this value for anything but (periodic) metals
  | Electronic free energy per atom                       :        -677.15515799 eV

  Self-consistency convergence accuracy:
  | Change of charge density      :  0.2098E-01
  | Change of sum of eigenvalues  : -0.4416E+01 eV
  | Change of total energy        :  0.7992E-02 eV

  End self-consistency iteration #     5       :  max(cpu_time)    wall_clock(cpu1)
  | Time for this iteration                    :        1.179 s           1.180 s
  | Charge density update                      :        0.384 s           0.385 s
  | Density mixing                             :        0.011 s           0.011 s
  | Hartree multipole update                   :        0.009 s           0.009 s
  | Hartree multipole summation                :        0.282 s           0.282 s
  | Integration                                :        0.491 s           0.491 s
  | Solution of K.-S. eqns.                    :        0.002 s           0.002 s
  | Total energy evaluation                    :        0.000 s           0.000 s

  Partial memory accounting:
  | Current value for overall tracked memory usage on task 0  :           0.166 MB
  | Peak value for overall tracked memory usage on task 0     :           0.692 MB after allocating gradient_basis_wave
  | Largest tracked array allocation on task 0 so far         :           0.394 MB  when allocating gradient_basis_wave
  Note:  These values currently only include a subset of arrays which are explicitly tracked.
  The "true" memory usage will be greater.
------------------------------------------------------------

------------------------------------------------------------
          Begin self-consistency iteration #    6

  Date     :  20200710, Time     :  145405.544
------------------------------------------------------------
  Evaluating new KS density.
  Integration grid: deviation in total charge (<rho> - N_e) =  -1.421085E-14
  Pulay mixing of updated and previous charge densities.

  Evaluating partitioned Hartree potential by multipole expansion.
  | Analytical far-field extrapolation by fixed multipoles:
  | Hartree multipole sum: apparent total charge =  -0.376326E-03
  Summing up the Hartree potential.
  Time summed over all CPUs for potential: real work        0.281 s, elapsed        0.281 s
  | RMS charge density error from multipole expansion :   0.260674E-01

  Integrating Hamiltonian matrix: batch-based integration.
  Time summed over all CPUs for integration: real work        0.491 s, elapsed        0.491 s

  Updating Kohn-Sham eigenvalues and eigenvectors using ELSI and the ELPA eigensolver.
  Finished Cholesky decomposition
  | Time :     0.000 s
  Finished transformation to standard eigenproblem
  | Time :     0.000 s
  Starting LAPACK eigensolver
  Finished solving standard eigenproblem
  | Time :     0.002 s
  Finished back-transformation of eigenvectors
  | Time :     0.000 s

  Obtaining occupation numbers and chemical potential using ELSI.
  | Chemical potential (Fermi level):    -5.11833896eV
  Highest occupied state (VBM) at     -5.50537916 eV
  | Occupation number:      2.00000000

  Lowest unoccupied state (CBM) at    -1.11392902 eV
  | Occupation number:      0.00000000

  Overall HOMO-LUMO gap:      4.39145015 eV.

  Total energy components:
  | Sum of eigenvalues            :        -180.66781867 Ha       -4916.22148055 eV
  | XC energy correction          :         -42.64081701 Ha       -1160.31566712 eV
  | XC potential correction       :          54.82152323 Ha        1491.76954742 eV
  | Free-atom electrostatic energy:        -146.84677582 Ha       -3995.90407935 eV
  | Hartree energy correction     :          -8.17097513 Ha        -222.34354607 eV
  | vdW energy correction         :           0.00000000 Ha           0.00000000 eV
  | Entropy correction            :           0.00000000 Ha           0.00000000 eV
  | ---------------------------
  | Total energy                  :        -323.50486340 Ha       -8803.01522568 eV
  | Total energy, T -> 0          :        -323.50486340 Ha       -8803.01522568 eV  <-- do not rely on this value for anything but (periodic) metals
  | Electronic free energy        :        -323.50486340 Ha       -8803.01522568 eV

  Derived energy quantities:
  | Kinetic energy                :         322.61118168 Ha        8778.69690872 eV
  | Electrostatic energy          :        -603.47522807 Ha      -16421.39646727 eV
  | Energy correction for multipole
  | error in Hartree potential    :           0.04206096 Ha           1.14453708 eV
  | Sum of eigenvalues per atom                           :        -378.17088312 eV
  | Total energy (T->0) per atom                          :        -677.15501736 eV  <-- do not rely on this value for anything but (periodic) metals
  | Electronic free energy per atom                       :        -677.15501736 eV

  Self-consistency convergence accuracy:
  | Change of charge density      :  0.1062E-01
  | Change of sum of eigenvalues  : -0.1290E+01 eV
  | Change of total energy        :  0.1828E-02 eV

  End self-consistency iteration #     6       :  max(cpu_time)    wall_clock(cpu1)
  | Time for this iteration                    :        1.180 s           1.181 s
  | Charge density update                      :        0.384 s           0.384 s
  | Density mixing                             :        0.012 s           0.012 s
  | Hartree multipole update                   :        0.009 s           0.010 s
  | Hartree multipole summation                :        0.282 s           0.281 s
  | Integration                                :        0.491 s           0.491 s
  | Solution of K.-S. eqns.                    :        0.002 s           0.002 s
  | Total energy evaluation                    :        0.000 s           0.000 s

  Partial memory accounting:
  | Current value for overall tracked memory usage on task 0  :           0.166 MB
  | Peak value for overall tracked memory usage on task 0     :           0.692 MB after allocating gradient_basis_wave
  | Largest tracked array allocation on task 0 so far         :           0.394 MB  when allocating gradient_basis_wave
  Note:  These values currently only include a subset of arrays which are explicitly tracked.
  The "true" memory usage will be greater.
------------------------------------------------------------

------------------------------------------------------------
          Begin self-consistency iteration #    7

  Date     :  20200710, Time     :  145406.725
------------------------------------------------------------
  Evaluating new KS density.
  Integration grid: deviation in total charge (<rho> - N_e) =   0.000000E+00
  Pulay mixing of updated and previous charge densities.

  Evaluating partitioned Hartree potential by multipole expansion.
  | Analytical far-field extrapolation by fixed multipoles:
  | Hartree multipole sum: apparent total charge =  -0.377615E-03
  Summing up the Hartree potential.
  Time summed over all CPUs for potential: real work        0.282 s, elapsed        0.282 s
  | RMS charge density error from multipole expansion :   0.262331E-01

  Integrating Hamiltonian matrix: batch-based integration.
  Time summed over all CPUs for integration: real work        0.491 s, elapsed        0.491 s

  Updating Kohn-Sham eigenvalues and eigenvectors using ELSI and the ELPA eigensolver.
  Finished Cholesky decomposition
  | Time :     0.000 s
  Finished transformation to standard eigenproblem
  | Time :     0.000 s
  Starting LAPACK eigensolver
  Finished solving standard eigenproblem
  | Time :     0.001 s
  Finished back-transformation of eigenvectors
  | Time :     0.000 s

[...]
  |   Hirshfeld dipole moment :      0.06531529
  |   Hirshfeld second moments:      0.00951185      -0.01474633      -0.01427306
  |                                 -0.01474633      -0.01180710       0.00710505
  |                                 -0.01427306       0.00710505      -0.02277705
  ----------------------------------------------------------------------
  | Atom    12: O
  |   Hirshfeld charge        :     -0.13927705
  |   Free atom volume        :     23.61338643
  |   Hirshfeld volume        :     20.60645018
  |   Hirshfeld dipole vector :      0.01444163       0.00320800       0.03478259
  |   Hirshfeld dipole moment :      0.03779789
  |   Hirshfeld second moments:      0.06791254       0.01675645      -0.02343562
  |                                  0.01675645       0.08321191      -0.01507031
  |                                 -0.02343562      -0.01507031       0.04637192
  ----------------------------------------------------------------------
  | Atom    13: H
  |   Hirshfeld charge        :      0.17137352
  |   Free atom volume        :      9.95071624
  |   Hirshfeld volume        :      6.39160914
  |   Hirshfeld dipole vector :     -0.05325022      -0.07933169       0.06051412
  |   Hirshfeld dipole moment :      0.11309757
  |   Hirshfeld second moments:      0.11529698       0.00124105      -0.01503587
  |                                  0.00124105       0.12230916      -0.00034185
  |                                 -0.01503587      -0.00034185       0.08308623
  ----------------------------------------------------------------------


  Total energy components:
  | Sum of eigenvalues            :        -180.65574830 Ha       -4915.89302916 eV
  | XC energy correction          :         -42.63883705 Ha       -1160.26178948 eV
  | XC potential correction       :          54.81903794 Ha        1491.70191921 eV
  | Free-atom electrostatic energy:        -146.84677582 Ha       -3995.90407935 eV
  | Hartree energy correction     :          -8.18252012 Ha        -222.65770127 eV
  | vdW energy correction         :          -0.00318909 Ha          -0.08677961 eV
  | Entropy correction            :           0.00000000 Ha           0.00000000 eV
  | ---------------------------
  | Total energy                  :        -323.50803244 Ha       -8803.10145967 eV
  | Total energy, T -> 0          :        -323.50803244 Ha       -8803.10145967 eV  <-- do not rely on this value for anything but (periodic) metals
  | Electronic free energy        :        -323.50803244 Ha       -8803.10145967 eV

  Derived energy quantities:
  | Kinetic energy                :         322.57229152 Ha        8777.63865367 eV
  | Electrostatic energy          :        -603.43829783 Ha      -16420.39154424 eV
  | Energy correction for multipole
  | error in Hartree potential    :           0.04217683 Ha           1.14768988 eV
  | Sum of eigenvalues per atom                           :        -378.14561763 eV
  | Total energy (T->0) per atom                          :        -677.16165074 eV  <-- do not rely on this value for anything but (periodic) metals
  | Electronic free energy per atom                       :        -677.16165074 eV

  atomic forces [eV/Ang]:
  -----------------------
  atom #    1
   Hellmann-Feynman              :  0.276078E+00 -0.558890E+00  0.561157E+00
   Ionic forces                  :  0.000000E+00  0.000000E+00  0.000000E+00
   Multipole                     : -0.174171E-01  0.369114E+00 -0.280075E+00
   Pulay + GGA                   : -0.995358E+00 -0.251500E-01 -0.110709E+01
   Van der Waals                 :  0.199227E-02  0.885265E-03 -0.156000E-02
   ----------------------------------------------------------------
   Total forces(   1)            : -0.734704E+00 -0.214040E+00 -0.827568E+00
  atom #    2
   Hellmann-Feynman              :  0.324617E+00 -0.265450E-01  0.174905E-01
   Ionic forces                  :  0.000000E+00  0.000000E+00  0.000000E+00
   Multipole                     :  0.175763E+00  0.422215E-01 -0.370003E-01
   Pulay + GGA                   : -0.151833E+00  0.331035E-01 -0.410796E-02
   Van der Waals                 :  0.555946E-02 -0.223321E-02 -0.500474E-02
   ----------------------------------------------------------------
   Total forces(   2)            :  0.354106E+00  0.465468E-01 -0.286225E-01
  atom #    3
   Hellmann-Feynman              :  0.724058E+01  0.715081E+01 -0.497602E+01
   Ionic forces                  :  0.000000E+00  0.000000E+00  0.000000E+00
   Multipole                     : -0.142330E+00  0.151588E+00 -0.106208E+01
   Pulay + GGA                   : -0.623279E+01 -0.691557E+01  0.666348E+01
   Van der Waals                 :  0.278479E-02 -0.760965E-02 -0.632737E-02
   ----------------------------------------------------------------
   Total forces(   3)            :  0.868247E+00  0.379219E+00  0.619056E+00
  atom #    4
   Hellmann-Feynman              : -0.214419E+00 -0.234608E-01 -0.142727E+00
   Ionic forces                  :  0.000000E+00  0.000000E+00  0.000000E+00
   Multipole                     : -0.432131E-01 -0.768157E-01 -0.706044E-01
   Pulay + GGA                   :  0.531223E-02  0.234065E+00  0.593662E-01
   Van der Waals                 : -0.349168E-02  0.213183E-02  0.598977E-03
   ----------------------------------------------------------------
   Total forces(   4)            : -0.255812E+00  0.135921E+00 -0.153366E+00
  atom #    5
   Hellmann-Feynman              : -0.355834E+00 -0.219841E+00 -0.155960E-01
   Ionic forces                  :  0.000000E+00  0.000000E+00  0.000000E+00
   Multipole                     : -0.978214E-01  0.866427E-02 -0.480514E-01
   Pulay + GGA                   :  0.240018E+00 -0.186780E-01 -0.468984E-01
   Van der Waals                 : -0.140461E-02  0.240253E-02 -0.979595E-02
   ----------------------------------------------------------------
   Total forces(   5)            : -0.215042E+00 -0.227453E+00 -0.120342E+00
  atom #    6
   Hellmann-Feynman              :  0.141101E+00 -0.365828E+00  0.220672E+00
   Ionic forces                  :  0.000000E+00  0.000000E+00  0.000000E+00
   Multipole                     : -0.148130E+00  0.638885E+00  0.274015E+00
   Pulay + GGA                   :  0.246925E+00 -0.726300E+00 -0.460489E+00
   Van der Waals                 : -0.185853E-02  0.441959E-02 -0.279045E-02
   ----------------------------------------------------------------
   Total forces(   6)            :  0.238037E+00 -0.448824E+00  0.314073E-01
  atom #    7
   Hellmann-Feynman              : -0.250694E+00 -0.541530E-01 -0.415465E-01
   Ionic forces                  :  0.000000E+00  0.000000E+00  0.000000E+00
   Multipole                     : -0.119633E+00  0.482551E-01  0.381729E-01
   Pulay + GGA                   :  0.108371E+00  0.153659E-01  0.263572E-01
   Van der Waals                 : -0.234625E-02  0.382887E-02  0.824529E-02
   ----------------------------------------------------------------
   Total forces(   7)            : -0.264302E+00  0.132968E-01  0.312288E-01
  atom #    8
   Hellmann-Feynman              :  0.501088E-01 -0.529998E-01  0.127992E+00
   Ionic forces                  :  0.000000E+00  0.000000E+00  0.000000E+00
   Multipole                     :  0.140672E-01  0.662853E-01  0.128789E+00
   Pulay + GGA                   : -0.440739E-01 -0.402739E-01 -0.105386E+00
   Van der Waals                 : -0.304762E-02  0.112689E-01  0.115075E-02
   ----------------------------------------------------------------
   Total forces(   8)            :  0.170545E-01 -0.157195E-01  0.152545E+00
  atom #    9
   Hellmann-Feynman              :  0.104999E+00  0.318320E-01 -0.191105E+00
   Ionic forces                  :  0.000000E+00  0.000000E+00  0.000000E+00
   Multipole                     :  0.196776E-01  0.130158E+00 -0.719917E-02
   Pulay + GGA                   : -0.394190E-01 -0.110375E+00  0.275731E-01
   Van der Waals                 : -0.209559E-02  0.417554E-02  0.476379E-02
   ----------------------------------------------------------------
   Total forces(   9)            :  0.831615E-01  0.557907E-01 -0.165967E+00
  atom #   10
   Hellmann-Feynman              :  0.285191E+01  0.577066E+01  0.761085E+00
   Ionic forces                  :  0.000000E+00  0.000000E+00  0.000000E+00
   Multipole                     :  0.112693E-01 -0.157895E+00  0.174720E+00
   Pulay + GGA                   : -0.154432E+01 -0.339857E+01 -0.258136E+00
   Van der Waals                 :  0.534547E-02 -0.170155E-01  0.743958E-02
   ----------------------------------------------------------------
   Total forces(  10)            :  0.132420E+01  0.219717E+01  0.685109E+00
  atom #   11
   Hellmann-Feynman              :  0.408820E+01 -0.247111E+01  0.143511E+02
   Ionic forces                  :  0.000000E+00  0.000000E+00  0.000000E+00
   Multipole                     :  0.130114E+00 -0.492574E+00  0.807774E+00
   Pulay + GGA                   : -0.349002E+01  0.333390E+01 -0.134055E+02
   Van der Waals                 : -0.352218E-02 -0.117109E-01  0.710972E-03
   ----------------------------------------------------------------
   Total forces(  11)            :  0.724778E+00  0.358502E+00  0.175411E+01
  atom #   12
   Hellmann-Feynman              : -0.430287E+01 -0.564055E-01 -0.157287E+02
   Ionic forces                  :  0.000000E+00  0.000000E+00  0.000000E+00
   Multipole                     : -0.811653E+00 -0.105965E+01 -0.839101E+00
   Pulay + GGA                   :  0.321037E+01 -0.175206E+00  0.146042E+02
   Van der Waals                 :  0.678120E-04  0.243401E-02  0.719544E-02
   ----------------------------------------------------------------
   Total forces(  12)            : -0.190409E+01 -0.128883E+01 -0.195642E+01
  atom #   13
   Hellmann-Feynman              : -0.363100E+00 -0.119522E+01  0.139109E+00
   Ionic forces                  :  0.000000E+00  0.000000E+00  0.000000E+00
   Multipole                     : -0.206026E-02 -0.342141E-01  0.844501E-01
   Pulay + GGA                   :  0.124339E+00  0.226869E+00 -0.239314E+00
   Van der Waals                 :  0.201665E-02  0.702267E-02 -0.462630E-02
   ----------------------------------------------------------------
   Total forces(  13)            : -0.238805E+00 -0.995546E+00 -0.203811E-01

  Timings for VdW correction (Tkatchenko-Scheffler 2009 or later):
  | CPU time:        0.089 s, Wall clock time:        0.089 s.
  Removing unitary transformations (pure translations, rotations) from forces on atoms.
  Atomic forces before filtering:
  | Net force on center of mass :  -0.316980E-02 -0.396448E-02  0.789908E-03 eV/A
  | Net torque on center of mass:  -0.823425E-02  0.390025E-02  0.459258E-02 eV
  Atomic forces after filtering:
  | Net force on center of mass :   0.446015E-15 -0.178406E-15 -0.164468E-15 eV/A
  | Net torque on center of mass:  -0.472042E-15  0.236021E-15  0.188817E-14 eV

  Energy and forces in a compact form:
  | Total energy uncorrected      :         -0.880310145966536E+04 eV
  | Total energy corrected        :         -0.880310145966536E+04 eV  <-- do not rely on this value for anything but (periodic) metals
  | Electronic free energy        :         -0.880310145966536E+04 eV
  Total atomic forces (unitary forces cleaned) [eV/Ang]:
  |   1         -0.734408090214423E+00         -0.213770210495499E+00         -0.827516738055016E+00
  |   2          0.354401878367193E+00          0.466705876139190E-01         -0.284000218018692E-01
  |   3          0.868764412269352E+00          0.379813131019404E+00          0.619032408583445E+00
  |   4         -0.255366071669398E+00          0.136574531312629E+00         -0.153557800511007E+00
  |   5         -0.214476642627092E+00         -0.226726847209442E+00         -0.120453376449204E+00
  |   6          0.238387749793657E+00         -0.448620757838568E+00          0.316129514662126E-01
  |   7         -0.263950246633646E+00          0.136430198226721E-01          0.312685520437028E-01
  |   8          0.172458660677715E-01         -0.157543921432564E-01          0.152809890048702E+00
  |   9          0.837118845860436E-01          0.560377264829638E-01         -0.165539887776220E+00
  |  10          0.132420500340426E+01          0.219736045487191E+01          0.684862324945517E+00
  |  11          0.724570138932316E+00          0.358439911031690E+00          0.175385516740689E+01
  |  12         -0.190408792997246E+01         -0.128842748454983E+01         -0.195693088867499E+01
  |  13         -0.238997952303577E+00         -0.995239669918594E+00         -0.210425812261629E-01

  ------------------------------------ 
  Start decomposition of the XC Energy 
  ------------------------------------ 
  X and C from original XC functional choice 
  Hartree-Fock Energy :          0.000000000 Ha              0.000000000 eV
  X Energy            :        -41.038259009 Ha          -1116.707845095 eV
  C Energy            :         -1.600578037 Ha            -43.553944383 eV
  Total XC Energy     :        -42.638837046 Ha          -1160.261789479 eV
  ------------------------------------ 
  LDA X and C from self-consistent density 
  X Energy LDA        :        -37.257551623 Ha          -1013.829562731 eV
  C Energy LDA        :         -3.138619721 Ha            -85.406188026 eV
  ------------------------------------ 
  End decomposition of the XC Energy 
  ------------------------------------ 

------------------------------------------------------------

------------------------------------------------------------------------------
  Final output of selected total energy values:

  The following output summarizes some interesting total energy values
  at the end of a run (AFTER all relaxation, molecular dynamics, etc.).

  | Total energy of the DFT / Hartree-Fock s.c.f. calculation      :          -8803.101459665 eV
  | Final zero-broadening corrected energy (caution - metals only) :          -8803.101459665 eV
  | For reference only, the value of 1 Hartree used in FHI-aims is :             27.211384500 eV

  Before relying on these values, please be sure to understand exactly which
  total energy value is referred to by a given number. Different objects may
  all carry the same name 'total energy'. Definitions:

  Total energy of the DFT / Hartree-Fock s.c.f. calculation:
  | Note that this energy does not include ANY quantities calculated after the
  | s.c.f. cycle, in particular not ANY RPA, MP2, etc. many-body perturbation terms.

  Final zero-broadening corrected energy:
  | For metallic systems only, a broadening of the occupation numbers at the Fermi
  | level can be extrapolated back to zero broadening by an electron-gas inspired
  | formula. For all systems that are not real metals, this value can be
  | meaningless and should be avoided.

------------------------------------------------------------------------------
  Methods described in the following list of references were used in this FHI-aims run.
  If you publish the results, please make sure to cite these reference if they apply.
  FHI-aims is an academic code, and for our developers (often, Ph.D. students
  and postdocs), scientific credit in the community is essential.
  Thank you for helping us!

  For any use of FHI-aims, please cite:

    Volker Blum, Ralf Gehrke, Felix Hanke, Paula Havu, Ville Havu,
    Xinguo Ren, Karsten Reuter, and Matthias Scheffler
    'Ab initio molecular simulations with numeric atom-centered orbitals'
    Computer Physics Communications 180, 2175-2196 (2009)
    http://dx.doi.org/10.1016/j.cpc.2009.06.022


  The scalable eigensolver library ELPA was used in your run.
  ELPA is essential especially for large systems on hundreds or thousands of CPUs.
  For ELPA, please cite:

    Andreas Marek, Volker Blum, Rainer Johanni, Ville Havu, Bruno Lang,
    Thomas Auckenthaler, Alexander Heinecke, Hans-Joachim Bungartz, and Hermann Lederer,
    'The ELPA Library - Scalable Parallel Eigenvalue Solutions
    for Electronic Structure Theory and Computational Science'
    The Journal of Physics: Condensed Matter 26, 213201 (2014).
    http://dx.doi.org/10.1088/0953-8984/26/21/213201


  The ELSI infrastructure was used in your run to solve the Kohn-Sham electronic structure.
  Please check out http://elsi-interchange.org to learn more.
  If scalability is important for your project, please acknowledge ELSI by citing:

    V. W-z. Yu, F. Corsetti, A. Garcia, W. P. Huhn, M. Jacquelin, W. Jia,
    B. Lange, L. Lin, J. Lu, W. Mi, A. Seifitokaldani, A. Vazquez-Mayagoitia,
    C. Yang, H. Yang, and V. Blum
    'ELSI: A unified software interface for Kohn-Sham electronic structure solvers'
    Computer Physics Communications 222, 267-285 (2018).
    http://dx.doi.org/10.1016/j.cpc.2017.09.007


  For the real-space grid partitioning and parallelization used in this calculation, please cite:

    Ville Havu, Volker Blum, Paula Havu, and Matthias Scheffler,
    'Efficient O(N) integration for all-electron electronic structure calculation'
    'using numerically tabulated basis functions'
    Journal of Computational Physics 228, 8367-8379 (2009).
    http://dx.doi.org/10.1016/j.jcp.2009.08.008

  Of course, there are many other important community references, e.g., those cited in the
  above references. Our list is limited to references that describe implementations in the
  FHI-aims code. The reason is purely practical (length of this list) - please credit others as well.

------------------------------------------------------------
          Leaving FHI-aims.
          Date     :  20200710, Time     :  145421.031

          Computational steps:
          | Number of self-consistency cycles          :           16
          | Number of SCF (re)initializations          :            1

          Detailed time accounting                     :  max(cpu_time)    wall_clock(cpu1)
          | Total time                                 :       22.594 s          22.715 s
          | Preparation time                           :        0.146 s           0.147 s
          | Boundary condition initalization           :        0.000 s           0.000 s
          | Grid partitioning                          :        0.111 s           0.112 s
          | Preloading free-atom quantities on grid    :        0.002 s           0.002 s
          | Free-atom superposition energy             :        0.084 s           0.085 s
          | Total time for integrations                :        8.568 s           8.577 s
          | Total time for solution of K.-S. equations :        0.036 s           0.038 s
          | Total time for density & force components  :        7.103 s           7.114 s
          | Total time for mixing                      :        0.217 s           0.217 s
          | Total time for Hartree multipole update    :        0.142 s           0.145 s
          | Total time for Hartree multipole sum       :        5.786 s           5.853 s
          | Total time for total energy evaluation     :        0.003 s           0.004 s
          | Total time for vdW correction              :        0.089 s           0.089 s

          Partial memory accounting:
          | Residual value for overall tracked memory usage across tasks :           0.000 MB (should be 0.000 MB)
          | Peak values for overall tracked memory usage (after allocating hessian_basis_wave):
          |   Minimum:        1.612 MB (on task 1)
          |   Maximum:        1.612 MB (on task 1)
          |   Average:        1.612 MB
          | Largest tracked array allocation (hessian_basis_wave):
          |   Minimum:        0.788 MB (on task 1)
          |   Maximum:        0.788 MB (on task 1)
          |   Average:        0.788 MB
          Note:  These values currently only include a subset of arrays which are explicitly tracked.
          The "true" memory usage will be greater.

          Have a nice day.
------------------------------------------------------------
