  MPI-parallelism will be employed.
------------------------------------------------------------
          Invoking FHI-aims ...
          Version 171221_1
          Compiled on 2019/09/09 at 14:39:39 on host puhti-login2.bullx.

          When using FHI-aims, please cite the following reference:

          Volker Blum, Ralf Gehrke, Felix Hanke, Paula Havu,
          Ville Havu, Xinguo Ren, Karsten Reuter, and Matthias Scheffler,
          'Ab Initio Molecular Simulations with Numeric Atom-Centered Orbitals',
          Computer Physics Communications 180, 2175-2196 (2009)

          For any questions about FHI-aims, please visit the aimsclub website
          with its forums and wiki. Contributions to both the forums and the
          wiki are warmly encouraged - they are for you, and everyone is welcome there.

------------------------------------------------------------



  Date     :  20200505, Time     :  082334.932
  Time zero on CPU 1             :   0.280760000000000E-01  s.
  Internal wall clock time zero  :           357899014.932  s.

  FHI-aims created a unique identifier for this run for later identification
  aims_uuid : 7E1616F1-4F23-45DC-A827-ABCB16B4B464

  Using       20 parallel tasks.
  Task        0 on host r07c53.bullx reporting.
  Task        1 on host r07c53.bullx reporting.
  Task        2 on host r07c53.bullx reporting.
  Task        3 on host r07c53.bullx reporting.
  Task        4 on host r07c53.bullx reporting.
  Task        5 on host r07c53.bullx reporting.
  Task        6 on host r07c53.bullx reporting.
  Task        7 on host r07c53.bullx reporting.
  Task        8 on host r07c53.bullx reporting.
  Task        9 on host r07c53.bullx reporting.
  Task       10 on host r07c53.bullx reporting.
  Task       11 on host r07c53.bullx reporting.
  Task       12 on host r07c53.bullx reporting.
  Task       13 on host r07c53.bullx reporting.
  Task       14 on host r07c53.bullx reporting.
  Task       15 on host r07c53.bullx reporting.
  Task       16 on host r07c53.bullx reporting.
  Task       17 on host r07c53.bullx reporting.
  Task       18 on host r07c53.bullx reporting.
  Task       19 on host r07c53.bullx reporting.

  Performing system and environment tests:
  | Environment variable OMP_NUM_THREADS correctly set to 1.
  | Stacksize not measured: no C compiler
  | Checking for scalapack...
  | Testing pdtran()...
  | All pdtran() tests passed.

  Obtaining array dimensions for all initial allocations:
  
  -----------------------------------------------------------------------
  Parsing control.in (first pass over file, find array dimensions only).
  The contents of control.in will be repeated verbatim below
  unless switched off by setting 'verbatim_writeout .false.' .
  in the first line of control.in .
  -----------------------------------------------------------------------
  
  #########################################################################################
  #
  #  Volker Blum, FHI 2009 : Test run input file control.in for simple H2O
  #
  #########################################################################################
  #
  #  Physical model
  #
    xc                 pbe
    vdw_correction_hirshfeld
    spin               none
    relativistic       none
    charge             0.
  #
  #  SCF convergence
  #
    occupation_type    gaussian 0.01
    mixer              pulay
      n_max_pulay        10
      charge_mix_param   0.2
    sc_accuracy_rho    1E-5
    sc_accuracy_eev    1E-3
    sc_accuracy_etot   1E-6
    sc_accuracy_forces 1E-4
    sc_iter_limit      100
  #
  #  Relaxation
  #
  #  relax_geometry   bfgs 1.e-3
  #
  ################################################################################
  #
  #  FHI-aims code project
  #  VB, Fritz-Haber Institut, 2009
  #
  #  Suggested "light" defaults for H atom (to be pasted into control.in file)
  #  Be sure to double-check any results obtained with these settings for post-processing,
  #  e.g., with the "tight" defaults and larger basis sets.
  #
  ################################################################################
    species        H
  #     global species definitions
      nucleus             1
      mass                1.00794
  #
      l_hartree           4
  #
      cut_pot             3.5  1.5  1.0
      basis_dep_cutoff    1e-4
  #
      radial_base         24 5.0
      radial_multiplier   1
      angular_grids       specified
        division   0.2421   50
        division   0.3822  110
        division   0.4799  194
        division   0.5341  302
  #      division   0.5626  434
  #      division   0.5922  590
  #      division   0.6542  770
  #      division   0.6868 1202
  #      outer_grid  770
        outer_grid  302
  ################################################################################
  #
  #  Definition of "minimal" basis
  #
  ################################################################################
  #     valence basis states
      valence      1  s   1.
  #     ion occupancy
      ion_occ      1  s   0.5
  ################################################################################
  #
  #  Suggested additional basis functions. For production calculations,
  #  uncomment them one after another (the most important basis functions are
  #  listed first).
  #
  #  Basis constructed for dimers: 0.5 A, 0.7 A, 1.0 A, 1.5 A, 2.5 A
  #
  ################################################################################
  #  "First tier" - improvements: -1014.90 meV to -62.69 meV
       hydro 2 s 2.1
       hydro 2 p 3.5
  #  "Second tier" - improvements: -12.89 meV to -1.83 meV
  #     hydro 1 s 0.85
  #     hydro 2 p 3.7
  #     hydro 2 s 1.2
  #     hydro 3 d 7
  #  "Third tier" - improvements: -0.25 meV to -0.12 meV
  #     hydro 4 f 11.2
  #     hydro 3 p 4.8
  #     hydro 4 d 9
  #     hydro 3 s 3.2
  ################################################################################
  #
  #  FHI-aims code project
  #  VB, Fritz-Haber Institut, 2009
  #
  #  Suggested "light" defaults for C atom (to be pasted into control.in file)
  #  Be sure to double-check any results obtained with these settings for post-processing,
  #  e.g., with the "tight" defaults and larger basis sets.
  #
  ################################################################################
    species        C
  #     global species definitions
      nucleus             6
      mass                12.0107
  #
      l_hartree           4
  #
      cut_pot             3.5  1.5  1.0
      basis_dep_cutoff    1e-4
  #
      radial_base         34 5.0
      radial_multiplier   1
      angular_grids specified
        division   0.3326   50
        division   0.5710  110
        division   0.7727  194
        division   0.8772  302
  #      division   0.9334  434
  #      division   0.9625  590
  #      division   0.9924  770
  #      division   1.0230  974
  #      division   1.4589 1202
  #     outer_grid  974
       outer_grid 302
  ################################################################################
  #
  #  Definition of "minimal" basis
  #
  ################################################################################
  #     valence basis states
      valence      2  s   2.
      valence      2  p   2.
  #     ion occupancy
      ion_occ      2  s   1.
      ion_occ      2  p   1.
  ################################################################################
  #
  #  Suggested additional basis functions. For production calculations,
  #  uncomment them one after another (the most important basis functions are
  #  listed first).
  #
  #  Constructed for dimers: 1.0 A, 1.25 A, 1.5 A, 2.0 A, 3.0 A
  #
  ################################################################################
  #  "First tier" - improvements: -1214.57 meV to -155.61 meV
       hydro 2 p 1.7
       hydro 3 d 6
       hydro 2 s 4.9
  #  "Second tier" - improvements: -67.75 meV to -5.23 meV
  #     hydro 4 f 9.8
  #     hydro 3 p 5.2
  #     hydro 3 s 4.3
  #     hydro 5 g 14.4
  #     hydro 3 d 6.2
  #  "Third tier" - improvements: -2.43 meV to -0.60 meV
  #     hydro 2 p 5.6
  #     hydro 2 s 1.4
  #     hydro 3 d 4.9
  #     hydro 4 f 11.2
  #  "Fourth tier" - improvements: -0.39 meV to -0.18 meV
  #     hydro 2 p 2.1
  #     hydro 5 g 16.4
  #     hydro 4 d 13.2
  #     hydro 3 s 13.6
  #     hydro 4 f 17.6
  #  Further basis functions - improvements: -0.08 meV and below
  #     hydro 3 s 2
  #     hydro 3 p 6
  #     hydro 4 d 20
  ################################################################################
  #
  #  FHI-aims code project
  #  VB, Fritz-Haber Institut, 2009
  #
  #  Suggested "light" defaults for N atom (to be pasted into control.in file)
  #  Be sure to double-check any results obtained with these settings for post-processing,
  #  e.g., with the "tight" defaults and larger basis sets.
  #
  ################################################################################
    species        N
  #     global species definitions
      nucleus             7
      mass                14.0067
  #
      l_hartree           4
  #
      cut_pot             3.5  1.5  1.0
      basis_dep_cutoff    1e-4
  #
      radial_base         35 5.0
      radial_multiplier   1
      angular_grids       specified
        division   0.2599   50
        division   0.4601  110
        division   0.5885  194
        division   0.6503  302
  #      division   0.6939  434
  #      division   0.7396  590
  #      division   0.7632  770
  #      division   0.8122  974
  #      division   1.1604 1202
  #      outer_grid  974
        outer_grid  302
  ################################################################################
  #
  #  Definition of "minimal" basis
  #
  ################################################################################
  #     valence basis states
      valence      2  s   2.
      valence      2  p   3.
  #     ion occupancy
      ion_occ      2  s   1.
      ion_occ      2  p   2.
  ################################################################################
  #
  #  Suggested additional basis functions. For production calculations,
  #  uncomment them one after another (the most important basis functions are
  #  listed first).
  #
  #  Constructed for dimers: 1.0 A, 1.1 A, 1.5 A, 2.0 A, 3.0 A
  #
  ################################################################################
  #  "First tier" - improvements: -1193.42 meV to -220.60 meV
       hydro 2 p 1.8
       hydro 3 d 6.8
       hydro 3 s 5.8
  #  "Second tier" - improvements: -80.21 meV to -6.86 meV
  #     hydro 4 f 10.8
  #     hydro 3 p 5.8
  #     hydro 1 s 0.8
  #     hydro 5 g 16
  #     hydro 3 d 4.9
  #  "Third tier" - improvements: -4.29 meV to -0.53 meV
  #     hydro 3 s 16
  #     ionic 2 p auto
  #     hydro 3 d 6.6
  #     hydro 4 f 11.6
  #  "Fourth tier" - improvements: -0.75 meV to -0.25 meV
  #     hydro 2 p 4.5
  #     hydro 2 s 2.4
  #     hydro 5 g 14.4
  #     hydro 4 d 14.4
  #     hydro 4 f 16.8
  # Further basis functions - -0.21 meV and below
  #     hydro 3 p 14.8
  #     hydro 3 s 4.4
  #     hydro 3 d 19.6
  #     hydro 5 g 12.8
  ################################################################################
  #
  #  FHI-aims code project
  #  VB, Fritz-Haber Institut, 2009
  #
  #  Suggested "light" defaults for O atom (to be pasted into control.in file)
  #  Be sure to double-check any results obtained with these settings for post-processing,
  #  e.g., with the "tight" defaults and larger basis sets.
  #
  ################################################################################
    species        O
  #     global species definitions
      nucleus             8
      mass                15.9994
  #
      l_hartree           4
  #
      cut_pot             3.5  1.5  1.0
      basis_dep_cutoff    1e-4
  #
      radial_base         36 5.0
      radial_multiplier   1
       angular_grids specified
        division   0.2659   50
        division   0.4451  110
        division   0.6052  194
        division   0.7543  302
  #      division   0.8014  434
  #      division   0.8507  590
  #      division   0.8762  770
  #      division   0.9023  974
  #      division   1.2339 1202
  #      outer_grid 974
        outer_grid 302
  ################################################################################
  #
  #  Definition of "minimal" basis
  #
  ################################################################################
  #     valence basis states
      valence      2  s   2.
      valence      2  p   4.
  #     ion occupancy
      ion_occ      2  s   1.
      ion_occ      2  p   3.
  ################################################################################
  #
  #  Suggested additional basis functions. For production calculations,
  #  uncomment them one after another (the most important basis functions are
  #  listed first).
  #
  #  Constructed for dimers: 1.0 A, 1.208 A, 1.5 A, 2.0 A, 3.0 A
  #
  ################################################################################
  #  "First tier" - improvements: -699.05 meV to -159.38 meV
       hydro 2 p 1.8
       hydro 3 d 7.6
       hydro 3 s 6.4
  #  "Second tier" - improvements: -49.91 meV to -5.39 meV
  #     hydro 4 f 11.6
  #     hydro 3 p 6.2
  #     hydro 3 d 5.6
  #     hydro 5 g 17.6
  #     hydro 1 s 0.75
  #  "Third tier" - improvements: -2.83 meV to -0.50 meV
  #     ionic 2 p auto
  #     hydro 4 f 10.8
  #     hydro 4 d 4.7
  #     hydro 2 s 6.8
  #  "Fourth tier" - improvements: -0.40 meV to -0.12 meV
  #     hydro 3 p 5
  #     hydro 3 s 3.3
  #     hydro 5 g 15.6
  #     hydro 4 f 17.6
  #     hydro 4 d 14
  # Further basis functions - -0.08 meV and below
  #     hydro 3 s 2.1
  #     hydro 4 d 11.6
  #     hydro 3 p 16
  #     hydro 2 s 17.2
  
  -----------------------------------------------------------------------
  Completed first pass over input file control.in .
  -----------------------------------------------------------------------
  
  
  -----------------------------------------------------------------------
  Parsing geometry.in (first pass over file, find array dimensions only).
  The contents of geometry.in will be repeated verbatim below
  unless switched off by setting 'verbatim_writeout .false.' .
  in the first line of geometry.in .
  -----------------------------------------------------------------------
  
  atom  0.00000 0.00000 0.00000 C
  atom  1.09300 0.00000 0.00000 H
  atom  -0.47961 0.00000 -1.41207 N
  atom  -1.49792 -0.06983 -1.41164 H
  atom  -0.18662 0.86747 -1.85678 H
  atom  -0.49584 1.26211 0.72868 C
  atom  -1.58789 1.28919 0.74431 H
  atom  -0.13407 1.27425 1.75947 H
  atom  -0.13407 2.16087 0.22380 H
  atom  -0.39425 -1.28861 0.74398 C
  atom  -0.10189 -1.56493 1.88303 O
  atom  -1.10210 -2.13717 0.06896 O
  atom  -1.07299 -2.87803 0.69766 H
  
  -----------------------------------------------------------------------
  Completed first pass over input file geometry.in .
  -----------------------------------------------------------------------
  

  Basic array size parameters:
  | Number of species                 :        4
  | Number of atoms                   :       13
  | Max. basis fn. angular momentum   :        2
  | Max. atomic/ionic basis occupied n:        2
  | Max. number of basis fn. types    :        2
  | Max. radial fns per species/type  :        3
  | Max. logarithmic grid size        :     1301
  | Max. radial integration grid size :       36
  | Max. angular integration grid size:      302
  | Max. angular grid division number :        8
  | Radial grid for Hartree potential :     1301
  | Number of spin channels           :        1

------------------------------------------------------------
          Reading file control.in.
------------------------------------------------------------
  XC: Using PBE gradient-corrected functionals.
  Spin treatment: No spin polarisation.
  Non-relativistic treatment of kinetic energy.
  Charge =   0.000000E+00: Neutral system requested explicitly.
  Occupation type: Gaussian broadening, width =   0.100000E-01 eV.
  Using pulay charge density mixing.
  Pulay mixing - number of memorized iterations:   10
  Charge density mixing - mixing parameter:     0.2000
  Convergence accuracy of self-consistent charge density:  0.1000E-04
  Convergence accuracy of sum of eigenvalues:  0.1000E-02
  Convergence accuracy of total energy:  0.1000E-05
  Convergence accuracy of forces:  0.1000E-03
  Maximum number of s.-c. iterations  :   100
 
  Reading configuration options for species H                   .
  | Found nuclear charge :   1.0000
  | Found atomic mass :    1.00794000000000      amu
  | Found l_max for Hartree potential  :   4
  | Found cutoff potl. onset [A], width [A], scale factor :    3.50000    1.50000    1.00000
  | Threshold for basis-dependent cutoff potential is   0.100000E-03
  | Found data for basic radial integration grid :    24 points, outermost radius =    5.000 A
  | Found multiplier for basic radial grid :   1
  | Found angular grid specification: user-specified.
  | Specified grid contains     5 separate shells.
  | Check grid settings after all constraints further below.
  | Found free-atom valence shell :  1 s   1.000
  | No ionic wave fns used. Skipping ion_occ.
  | Found hydrogenic basis function :  2 s   2.100
  | Found hydrogenic basis function :  2 p   3.500
  Species H                   : Missing cutoff potential type.
  Defaulting to exp(1/x)/(1-x)^2 type cutoff potential.
  Species H : No 'logarithmic' tag. Using default grid for free atom:
  | Default logarithmic grid data [bohr] : 0.1000E-03 0.1000E+03 0.1012E+01
  Species H : On-site basis accuracy parameter (for Gram-Schmidt orthonormalisation) not specified.
  Using default value basis_acc =  0.1000000E-03.
  Species H                   : Using default innermost maximum threshold i_radial=  2 for radial functions.
  Species H                   : Default cutoff onset for free atom density etc. : 0.35000000E+01 AA.
  Species H                   : Basic radial grid will be enhanced according to radial_multiplier =   1, to contain    24 grid points.
 
  Reading configuration options for species C                   .
  | Found nuclear charge :   6.0000
  | Found atomic mass :    12.0107000000000      amu
  | Found l_max for Hartree potential  :   4
  | Found cutoff potl. onset [A], width [A], scale factor :    3.50000    1.50000    1.00000
  | Threshold for basis-dependent cutoff potential is   0.100000E-03
  | Found data for basic radial integration grid :    34 points, outermost radius =    5.000 A
  | Found multiplier for basic radial grid :   1
  | Found angular grid specification: user-specified.
  | Specified grid contains     5 separate shells.
  | Check grid settings after all constraints further below.
  | Found free-atom valence shell :  2 s   2.000
  | Found free-atom valence shell :  2 p   2.000
  | No ionic wave fns used. Skipping ion_occ.
  | No ionic wave fns used. Skipping ion_occ.
  | Found hydrogenic basis function :  2 p   1.700
  | Found hydrogenic basis function :  3 d   6.000
  | Found hydrogenic basis function :  2 s   4.900
  Species C                   : Missing cutoff potential type.
  Defaulting to exp(1/x)/(1-x)^2 type cutoff potential.
  Species C : No 'logarithmic' tag. Using default grid for free atom:
  | Default logarithmic grid data [bohr] : 0.1000E-03 0.1000E+03 0.1012E+01
  Species C : On-site basis accuracy parameter (for Gram-Schmidt orthonormalisation) not specified.
  Using default value basis_acc =  0.1000000E-03.
  Species C                   : Using default innermost maximum threshold i_radial=  2 for radial functions.
  Species C                   : Default cutoff onset for free atom density etc. : 0.35000000E+01 AA.
  Species C                   : Basic radial grid will be enhanced according to radial_multiplier =   1, to contain    34 grid points.
 
  Reading configuration options for species N                   .
  | Found nuclear charge :   7.0000
  | Found atomic mass :    14.0067000000000      amu
  | Found l_max for Hartree potential  :   4
  | Found cutoff potl. onset [A], width [A], scale factor :    3.50000    1.50000    1.00000
  | Threshold for basis-dependent cutoff potential is   0.100000E-03
  | Found data for basic radial integration grid :    35 points, outermost radius =    5.000 A
  | Found multiplier for basic radial grid :   1
  | Found angular grid specification: user-specified.
  | Specified grid contains     5 separate shells.
  | Check grid settings after all constraints further below.
  | Found free-atom valence shell :  2 s   2.000
  | Found free-atom valence shell :  2 p   3.000
  | No ionic wave fns used. Skipping ion_occ.
  | No ionic wave fns used. Skipping ion_occ.
  | Found hydrogenic basis function :  2 p   1.800
  | Found hydrogenic basis function :  3 d   6.800
  | Found hydrogenic basis function :  3 s   5.800
  Species N                   : Missing cutoff potential type.
  Defaulting to exp(1/x)/(1-x)^2 type cutoff potential.
  Species N : No 'logarithmic' tag. Using default grid for free atom:
  | Default logarithmic grid data [bohr] : 0.1000E-03 0.1000E+03 0.1012E+01
  Species N : On-site basis accuracy parameter (for Gram-Schmidt orthonormalisation) not specified.
  Using default value basis_acc =  0.1000000E-03.
  Species N                   : Using default innermost maximum threshold i_radial=  2 for radial functions.
  Species N                   : Default cutoff onset for free atom density etc. : 0.35000000E+01 AA.
  Species N                   : Basic radial grid will be enhanced according to radial_multiplier =   1, to contain    35 grid points.
 
  Reading configuration options for species O                   .
  | Found nuclear charge :   8.0000
  | Found atomic mass :    15.9994000000000      amu
  | Found l_max for Hartree potential  :   4
  | Found cutoff potl. onset [A], width [A], scale factor :    3.50000    1.50000    1.00000
  | Threshold for basis-dependent cutoff potential is   0.100000E-03
  | Found data for basic radial integration grid :    36 points, outermost radius =    5.000 A
  | Found multiplier for basic radial grid :   1
  | Found angular grid specification: user-specified.
  | Specified grid contains     5 separate shells.
  | Check grid settings after all constraints further below.
  | Found free-atom valence shell :  2 s   2.000
  | Found free-atom valence shell :  2 p   4.000
  | No ionic wave fns used. Skipping ion_occ.
  | No ionic wave fns used. Skipping ion_occ.
  | Found hydrogenic basis function :  2 p   1.800
  | Found hydrogenic basis function :  3 d   7.600
  | Found hydrogenic basis function :  3 s   6.400
  Species O                   : Missing cutoff potential type.
  Defaulting to exp(1/x)/(1-x)^2 type cutoff potential.
  Species O : No 'logarithmic' tag. Using default grid for free atom:
  | Default logarithmic grid data [bohr] : 0.1000E-03 0.1000E+03 0.1012E+01
  Species O : On-site basis accuracy parameter (for Gram-Schmidt orthonormalisation) not specified.
  Using default value basis_acc =  0.1000000E-03.
  Species O                   : Using default innermost maximum threshold i_radial=  2 for radial functions.
  Species O                   : Default cutoff onset for free atom density etc. : 0.35000000E+01 AA.
  Species O                   : Basic radial grid will be enhanced according to radial_multiplier =   1, to contain    36 grid points.
 
  Finished reading input file 'control.in'. Consistency checks are next.
 
  MPI_IN_PLACE appears to work with this MPI implementation.
  | Keeping use_mpi_in_place .true. (see manual).
  Target number of points in a grid batch is not set. Defaulting to  100
  Method for grid partitioning is not set. Defaulting to parallel hash+maxmin partitioning.
  Batch size limit is not set. Defaulting to    200
  By default, will store active basis functions for each batch.
  If in need of memory, prune_basis_once .false. can be used to disable this option.
  communication_type for Hartree potential was not specified.
  Defaulting to calc_hartree .
  Pulay mixer: Number of initial linear mixing iterations not set.
  Defaulting to    0 iterations.
  Work space size for distributed Hartree potential not set.
  Defaulting to   0.200000E+03 MB.
  Algorithm-dependent basis array size parameters:
  | n_max_pulay                         :       10
  Presetting      1001 iterations before the initial mixing cycle
  is restarted anyway using the sc_init_iter criterion / keyword.
  Presetting a factor      1.000 between actual scf density residual
  and density convergence criterion sc_accuracy_rho below which sc_init_iter
  takes no effect.
  Geometry relaxation not requested: no relaxation will be performed.
  Handling of forces: Unphysical translation and rotation will be removed from forces.
  No accuracy limit for integral partition fn. given. Defaulting to  0.1000E-14.
  No threshold value for u(r) in integrations given. Defaulting to  0.1000E-05.
  No accuracy for occupation numbers given. Defaulting to  0.1000E-12.
  No threshold value for occupation numbers given. Defaulting to  0.0000E+00.
  No accuracy for fermi level given. Defaulting to  0.1000E-19.
  Maximum # of iterations to find E_F not set. Defaulting to  200.
  Preferred method for the eigenvalue solver ('KS_method') not specified in 'control.in'.
  Calling BLACS routine to test compilation state
  Since ScaLAPACK support is enabled, defaulting to 'elsi'.
  Will not use alltoall communication since running on < 1024 CPUs.
  Threshold for basis singularities not set.
  Default threshold for basis singularities:  0.1000E-04
  partition_type (choice of integration weights) for integrals was not specified.
  | Using a version of the partition function of Stratmann and coworkers ('stratmann_smoother').
  | At each grid point, the set of atoms used to build the partition table is smoothly restricted to
  | only those atoms whose free-atom density would be non-zero at that grid point.
  Partitioning for Hartree potential was not defined. Using partition_type for integrals.
  | Adjusted default value of keyword multip_moments_threshold to:       0.10000000E-11
  | This value may affect high angular momentum components of the Hartree potential in periodic systems.
  No q(lm)/r^(l+1) cutoff set for long-range Hartree potential.
  | Using default value of  0.100000E-09 .
  | Verify using the multipole_threshold keyword.
  Defaulting to new monopole extrapolation.
  Density update method: automatic selection selected.
------------------------------------------------------------


------------------------------------------------------------
          Reading geometry description geometry.in.
------------------------------------------------------------
  Input structure read successfully.
  The structure contains       13 atoms,  and a total of         48.000 electrons.

  Input geometry:
  | No unit cell requested.
  | Atomic structure:
  |       Atom                x [A]            y [A]            z [A]
  |    1: Species C             0.00000000        0.00000000        0.00000000
  |    2: Species H             1.09300000        0.00000000        0.00000000
  |    3: Species N            -0.47961000        0.00000000       -1.41207000
  |    4: Species H            -1.49792000       -0.06983000       -1.41164000
  |    5: Species H            -0.18662000        0.86747000       -1.85678000
  |    6: Species C            -0.49584000        1.26211000        0.72868000
  |    7: Species H            -1.58789000        1.28919000        0.74431000
  |    8: Species H            -0.13407000        1.27425000        1.75947000
  |    9: Species H            -0.13407000        2.16087000        0.22380000
  |   10: Species C            -0.39425000       -1.28861000        0.74398000
  |   11: Species O            -0.10189000       -1.56493000        1.88303000
  |   12: Species O            -1.10210000       -2.13717000        0.06896000
  |   13: Species H            -1.07299000       -2.87803000        0.69766000
  |

  | The smallest distance between any two atoms is         0.97210319 AA.
  |
  | The first atom of this pair is atom number                     12 .
  | The second atom of this pair is atom number                    13 .

  Number of empty states per atom not set in control.in - providing a guess from actual geometry.
  | Total number of empty states used during s.c.f. cycle:       29
  If you use a very high smearing, use empty_states (per atom!) in control.in to increase this value.

  Structure-dependent array size parameters: 
  | Maximum number of distinct radial functions  :       21
  | Maximum number of basis functions            :      119
  | Number of Kohn-Sham states (occupied + empty):       53
------------------------------------------------------------

------------------------------------------------------------
          Preparing all fixed parts of the calculation.
------------------------------------------------------------
  Determining machine precision:
    2.225073858507201E-308
  Setting up grids for atomic and cluster calculations.

  Creating wave function, potential, and density for free atoms.

  Species: H

  List of occupied orbitals and eigenvalues:
    n    l              occ      energy [Ha]    energy [eV]
    1    0           1.0000        -0.237589        -6.4651


  Species: C

  List of occupied orbitals and eigenvalues:
    n    l              occ      energy [Ha]    energy [eV]
    1    0           2.0000       -10.038835      -273.1706
    2    0           2.0000        -0.502696       -13.6791
    2    1           2.0000        -0.191971        -5.2238


  Species: N

  List of occupied orbitals and eigenvalues:
    n    l              occ      energy [Ha]    energy [eV]
    1    0           2.0000       -14.128000      -384.4424
    2    0           2.0000        -0.681077       -18.5330
    2    1           3.0000        -0.259788        -7.0692


  Species: O

  List of occupied orbitals and eigenvalues:
    n    l              occ      energy [Ha]    energy [eV]
    1    0           2.0000       -18.898188      -514.2459
    2    0           2.0000        -0.878505       -23.9053
    2    1           4.0000        -0.331779        -9.0282

  Creating fixed part of basis set: Ionic, confined, hydrogenic.
 
  H                    hydrogenic:
 
  List of hydrogenic basis orbitals: 
    n    l      effective z      eigenvalue [eV]  inner max. [A]     outer max. [A]     outer radius [A]   
    2    0         2.100000       -14.9728           0.193243           1.317208           4.583499
    2    1         3.500000       -41.6669           0.602369           0.602369           3.723403
 
 
  C                    hydrogenic:
 
  List of hydrogenic basis orbitals: 
    n    l      effective z      eigenvalue [eV]  inner max. [A]     outer max. [A]     outer radius [A]   
    2    1         1.700000        -9.7616           1.230570           1.230570           4.607917
    3    2         6.000000       -54.4224           0.792453           0.792453           3.883070
    2    0         4.900000       -81.6679           0.082559           0.562749           3.078220
 
 
  N                    hydrogenic:
 
  List of hydrogenic basis orbitals: 
    n    l      effective z      eigenvalue [eV]  inner max. [A]     outer max. [A]     outer radius [A]   
    2    1         1.800000       -10.9749           1.177451           1.177451           4.573712
    3    2         6.800000       -69.9026           0.704619           0.704619           3.538137
    3    0         5.800000       -50.8545           0.067388           1.191934           4.250239
 
 
  O                    hydrogenic:
 
  List of hydrogenic basis orbitals: 
    n    l      effective z      eigenvalue [eV]  inner max. [A]     outer max. [A]     outer radius [A]   
    2    1         1.800000       -10.9749           1.164242           1.164242           4.578029
    3    2         7.600000       -87.3180           0.624125           0.624125           3.251020
    3    0         6.400000       -61.9207           0.061167           1.081902           4.001998
 

  Adding cutoff potential to free-atom effective potential.
  Creating atomic-like basis functions for current effective potential.

  Species H                   :

  List of atomic basis orbitals and eigenvalues:
    n    l      energy [Ha]    energy [eV]    outer radius [A]
    1    0        -0.237589        -6.4651       4.527807


  Species C                   :

  List of atomic basis orbitals and eigenvalues:
    n    l      energy [Ha]    energy [eV]    outer radius [A]
    1    0       -10.038835      -273.1706       1.934409
    2    0        -0.502696       -13.6791       4.496620
    2    1        -0.191971        -5.2238       4.551928


  Species N                   :

  List of atomic basis orbitals and eigenvalues:
    n    l      energy [Ha]    energy [eV]    outer radius [A]
    1    0       -14.128000      -384.4424       1.637919
    2    0        -0.681077       -18.5330       4.463241
    2    1        -0.259788        -7.0692       4.518138


  Species O                   :

  List of atomic basis orbitals and eigenvalues:
    n    l      energy [Ha]    energy [eV]    outer radius [A]
    1    0       -18.898188      -514.2459       1.415765
    2    0        -0.878505       -23.9053       4.413171
    2    1        -0.331779        -9.0282       4.522403

  Assembling full basis from fixed parts.
  | Species H :   atomic orbital   1 s accepted.
  | Species H :    hydro orbital   2 s accepted.
  | Species H :    hydro orbital   2 p accepted.
  | Species C :   atomic orbital   1 s accepted.
  | Species C :    hydro orbital   2 s accepted.
  | Species C :   atomic orbital   2 s accepted.
  | Species C :   atomic orbital   2 p accepted.
  | Species C :    hydro orbital   2 p accepted.
  | Species C :    hydro orbital   3 d accepted.
  | Species N :   atomic orbital   1 s accepted.
  | Species N :    hydro orbital   3 s accepted.
  | Species N :   atomic orbital   2 s accepted.
  | Species N :   atomic orbital   2 p accepted.
  | Species N :    hydro orbital   2 p accepted.
  | Species N :    hydro orbital   3 d accepted.
  | Species O :   atomic orbital   1 s accepted.
  | Species O :    hydro orbital   3 s accepted.
  | Species O :   atomic orbital   2 s accepted.
  | Species O :   atomic orbital   2 p accepted.
  | Species O :    hydro orbital   2 p accepted.
  | Species O :    hydro orbital   3 d accepted.
 
  Basis size parameters after reduction:
  | Total number of radial functions:       21
  | Total number of basis functions :      119
 
  Per-task memory consumption for arrays in subroutine allocate_ext:
  |           5.250512MB.
  Testing on-site integration grid accuracy.
  |  Species  Function  <phi|h_atom|phi> (log., in eV)  <phi|h_atom|phi> (rad., in eV)
           1        1                 -6.4663192853                 -6.4651273558
           1        2                 13.7111246313                 13.7170609718
           1        3                 25.2673269279                 25.2674696378
           2        4               -273.1705927641               -273.1705631568
           2        5                -10.7109323383                -10.7107120029
           2        6                 17.4381822266                 17.4352413244
           2        7                 -5.2255326521                 -5.2270484734
           2        8                  8.6835629259                  8.6603288385
           2        9                 27.4952418996                 27.4953360207
           3       10               -384.4424306495               -384.4423701208
           3       11                 12.5842251816                 12.5842222903
           3       12                -15.7264628251                -15.7264433455
           3       13                 -7.0696854293                 -7.0701769954
           3       14                  8.8090390882                  8.7901077751
           3       15                 35.9586762123                 35.9588528632
           4       16               -514.2458688638               -514.2457643834
           4       17                 15.1795651126                 15.1795290741
           4       18                -21.5359799773                -21.5360846186
           4       19                 -9.0283069236                 -9.0284644067
           4       20                  8.3027758564                  8.2834874195
           4       21                 45.8339351984                 45.8338762259

  Preparing densities etc. for the partition functions (integrals / Hartree potential).

  Preparations completed.
  max(cpu_time)          :      0.170 s.
  Wall clock time (cpu1) :      0.169 s.
------------------------------------------------------------

------------------------------------------------------------
          Begin self-consistency loop: Initialization.

          Date     :  20200505, Time     :  082335.138
------------------------------------------------------------

  Initializing index lists of integration centers etc. from given atomic structure:
  | Number of centers in hartree potential         :        13
  | Number of centers in hartree multipole         :        13
  | Number of centers in electron density summation:        13
  | Number of centers in basis integrals           :        13
  | Number of centers in integrals                 :        13
  | Number of centers in hamiltonian               :        13
  * Using 20 tasks for Scalapack Eigenvalue solver.
  Detailed listing of tasks and assigned k-points:
  (for non-periodic systems, the "k-point" denotes an internal label only)
   Task     0 k-point     1 on r07c53.bullx
   Task     1 k-point     1 on r07c53.bullx
   Task     2 k-point     1 on r07c53.bullx
   Task     3 k-point     1 on r07c53.bullx
   Task     4 k-point     1 on r07c53.bullx
   Task     5 k-point     1 on r07c53.bullx
   Task     6 k-point     1 on r07c53.bullx
   Task     7 k-point     1 on r07c53.bullx
   Task     8 k-point     1 on r07c53.bullx
   Task     9 k-point     1 on r07c53.bullx
   Task    10 k-point     1 on r07c53.bullx
   Task    11 k-point     1 on r07c53.bullx
   Task    12 k-point     1 on r07c53.bullx
   Task    13 k-point     1 on r07c53.bullx
   Task    14 k-point     1 on r07c53.bullx
   Task    15 k-point     1 on r07c53.bullx
   Task    16 k-point     1 on r07c53.bullx
   Task    17 k-point     1 on r07c53.bullx
   Task    18 k-point     1 on r07c53.bullx
   Task    19 k-point     1 on r07c53.bullx
  Tasks:    20 split into      5 X      4 BLACS grid
  Calculating block size based on n_basis =          119  max_nprow =            5  max_npcol =            4
  ScaLAPACK block size set to:           16
  Allocating        0.008 MB for ovlp
  Allocating        0.008 MB for ham
  Allocating        0.008 MB for eigenvec
  Required Scalapack workspace - INTEGER:            1  REAL:             1
  Partitioning the integration grid into batches with parallel hashing+maxmin method.
  | Number of batches:      779
  | Maximal batch size:     199
  | Minimal batch size:      49
  | Average batch size:      89.404
  | Standard deviation of batch sizes:      20.006

  Integration load balanced across    20 MPI tasks.
  Work distribution over tasks is as follows:
  Task     0 has       3616 integration points.
  Task     1 has       3439 integration points.
  Task     2 has       3449 integration points.
  Task     3 has       3452 integration points.
  Task     4 has       3435 integration points.
  Task     5 has       3498 integration points.
  Task     6 has       3457 integration points.
  Task     7 has       3512 integration points.
  Task     8 has       3439 integration points.
  Task     9 has       3473 integration points.
  Task    10 has       3450 integration points.
  Task    11 has       3585 integration points.
  Task    12 has       3490 integration points.
  Task    13 has       3481 integration points.
  Task    14 has       3516 integration points.
  Task    15 has       3486 integration points.
  Task    16 has       3481 integration points.
  Task    17 has       3473 integration points.
  Task    18 has       3461 integration points.
  Task    19 has       3453 integration points.
  Initializing partition tables, free-atom densities, potentials, etc. across the integration grid (initialize_grid_storage).
  | initialize_grid_storage: Actual outermost partition radius vs. multipole_radius_free
  | (-- VB: in principle, multipole_radius_free should be larger, hence this output)
  | Species        1: Confinement radius =              4.999999999999999 AA, multipole_radius_free =              5.054417573612229 AA.
  | Species        1: outer_partition_radius set to              5.054417573612229 AA .
  | Species        2: Confinement radius =              4.999999999999999 AA, multipole_radius_free =              5.019602836301480 AA.
  | Species        2: outer_partition_radius set to              5.019602836301480 AA .
  | Species        3: Confinement radius =              4.999999999999999 AA, multipole_radius_free =              5.043624274424571 AA.
  | Species        3: outer_partition_radius set to              5.043624274424571 AA .
  | Species        4: Confinement radius =              4.999999999999999 AA, multipole_radius_free =              5.048384829883283 AA.
  | Species        4: outer_partition_radius set to              5.048384829883283 AA .
  | Original list of interatomic distances with          13 x         13 entries is created.
  | Net number of integration points:    69646
  | of which are non-zero points    :    59552
  Renormalizing the initial density to the exact electron count on the 3D integration grid.
  | Initial density: Formal number of electrons (from input files) :      48.0000000000
  | Integrated number of electrons on 3D grid     :      47.9999373896
  | Charge integration error                      :      -0.0000626104
  | Normalization factor for density and gradient :       1.0000013044
  Obtaining max. number of non-zero basis functions in each batch (get_n_compute_maxes).
  | Maximal number of non-zero basis functions:      118 in task     0
  | Maximal number of non-zero basis functions:      118 in task     1
  | Maximal number of non-zero basis functions:      119 in task     2
  | Maximal number of non-zero basis functions:      118 in task     3
  | Maximal number of non-zero basis functions:      118 in task     4
  | Maximal number of non-zero basis functions:      118 in task     5
  | Maximal number of non-zero basis functions:      118 in task     6
  | Maximal number of non-zero basis functions:      118 in task     7
  | Maximal number of non-zero basis functions:      118 in task     8
  | Maximal number of non-zero basis functions:      118 in task     9
  | Maximal number of non-zero basis functions:      118 in task    10
  | Maximal number of non-zero basis functions:      118 in task    11
  | Maximal number of non-zero basis functions:      117 in task    12
  | Maximal number of non-zero basis functions:      119 in task    13
  | Maximal number of non-zero basis functions:      118 in task    14
  | Maximal number of non-zero basis functions:      118 in task    15
  | Maximal number of non-zero basis functions:      119 in task    16
  | Maximal number of non-zero basis functions:      117 in task    17
  | Maximal number of non-zero basis functions:      117 in task    18
  | Maximal number of non-zero basis functions:      117 in task    19
  Selecting the method for density update.
  Loop over occupied states selected for charge density update.
  Allocating        0.050 MB for KS_eigenvector
  Integrating Hamiltonian matrix: batch-based integration.
  Time summed over all CPUs for integration: real work        0.522 s, elapsed        0.543 s
  Integrating overlap matrix.
  Time summed over all CPUs for integration: real work        0.213 s, elapsed        0.220 s
  Deallocating overlap matrix.

  Updating Kohn-Sham eigenvalues and eigenvectors using ELSI and the ELPA eigensolver.
  ELPA settings:
  | ELPA solver          1
  | Time full => band           :     0.001 s
  | Time band => tridiagonal    :     0.001 s
  | Time solve tridiagonal      :     0.001 s
  Overlap matrix is nonsingular
  | Lowest eigenvalue of overlap  :  0.58E-02
  | Highest eigenvalue of overlap :  0.61E+01
  Finished singularity check of overlap matrix
  | Time :     0.003 s
  Finished Cholesky decomposition
  | Time :     0.001 s
  Finished transformation to standard eigenproblem
  | Time :     0.001 s
  Starting ELPA eigensolver
  | Time full => tridiagonal    :     0.002 s
  | Time solve tridiagonal      :     0.000 s
  | Time ev tridiagonal => full :     0.001 s
  Finished solving standard eigenproblem
  | Time :     0.003 s
  Finished back-transformation of eigenvectors
  | Time :     0.000 s

  Obtaining occupation numbers and chemical potential using ELSI.
  | Chemical potential (Fermi level):    -8.85241333eV
  Writing Kohn-Sham eigenvalues.

  State    Occupation    Eigenvalue [Ha]    Eigenvalue [eV]
      1       2.00000         -19.007643         -517.22429
      2       2.00000         -18.978344         -516.42701
      3       2.00000         -14.245789         -387.64764
      4       2.00000         -10.166791         -276.65245
      5       2.00000         -10.141236         -275.95707
      6       2.00000         -10.131962         -275.70473
      7       2.00000          -1.188238          -32.33359
      8       2.00000          -1.092926          -29.74003
      9       2.00000          -0.992228          -26.99990
     10       2.00000          -0.858584          -23.36325
     11       2.00000          -0.764143          -20.79338
     12       2.00000          -0.682088          -18.56056
     13       2.00000          -0.619666          -16.86196
     14       2.00000          -0.601630          -16.37118
     15       2.00000          -0.584498          -15.90501
     16       2.00000          -0.562358          -15.30253
     17       2.00000          -0.553228          -15.05411
     18       2.00000          -0.533874          -14.52745
     19       2.00000          -0.526149          -14.31724
     20       2.00000          -0.494252          -13.44929
     21       2.00000          -0.477042          -12.98098
     22       2.00000          -0.428380          -11.65682
     23       2.00000          -0.404471          -11.00622
     24       2.00000          -0.390432          -10.62421
     25       0.00000          -0.148434           -4.03909
     26       0.00000          -0.059027           -1.60620
     27       0.00000          -0.026824           -0.72991
     28       0.00000          -0.019891           -0.54126
     29       0.00000          -0.004118           -0.11206
     30       0.00000           0.008660            0.23566
     31       0.00000           0.021893            0.59575
     32       0.00000           0.043739            1.19019
     33       0.00000           0.048040            1.30725
     34       0.00000           0.053389            1.45280
     35       0.00000           0.076758            2.08869
     36       0.00000           0.134518            3.66042
     37       0.00000           0.149128            4.05798
     38       0.00000           0.203871            5.54761
     39       0.00000           0.209615            5.70391
     40       0.00000           0.223160            6.07249
     41       0.00000           0.261523            7.11641
     42       0.00000           0.273638            7.44608
     43       0.00000           0.290108            7.89425
     44       0.00000           0.312281            8.49761
     45       0.00000           0.323216            8.79516
     46       0.00000           0.345163            9.39235
     47       0.00000           0.374510           10.19092
     48       0.00000           0.386574           10.51921
     49       0.00000           0.446298           12.14438
     50       0.00000           0.464763           12.64685
     51       0.00000           0.520617           14.16670
     52       0.00000           0.529380           14.40515
     53       0.00000           0.593483           16.14948

  Highest occupied state (VBM) at    -10.62420875 eV
  | Occupation number:      2.00000000

  Lowest unoccupied state (CBM) at    -4.03908985 eV
  | Occupation number:      0.00000000

  Overall HOMO-LUMO gap:      6.58511890 eV.
  Calculating total energy contributions from superposition of free atom densities.

  Total energy components:
  | Sum of eigenvalues            :        -188.85190331 Ha       -5138.92175454 eV
  | XC energy correction          :         -41.78716967 Ha       -1137.08674115 eV
  | XC potential correction       :          53.71784706 Ha        1461.73699089 eV
  | Free-atom electrostatic energy:        -146.85348829 Ha       -3996.08673509 eV
  | Hartree energy correction     :           0.00000000 Ha           0.00000000 eV
  | vdW energy correction         :           0.00000000 Ha           0.00000000 eV
  | Entropy correction            :           0.00000000 Ha           0.00000000 eV
  | ---------------------------
  | Total energy                  :        -323.77471422 Ha       -8810.35823989 eV
  | Total energy, T -> 0          :        -323.77471422 Ha       -8810.35823989 eV  <-- do not rely on this value for anything but (periodic) metals
  | Electronic free energy        :        -323.77471422 Ha       -8810.35823989 eV

  Derived energy quantities:
  | Kinetic energy                :         320.47941405 Ha        8720.68856009 eV
  | Electrostatic energy          :        -602.46695859 Ha      -16393.96005883 eV
  | Energy correction for multipole
  | error in Hartree potential    :           0.00000000 Ha           0.00000000 eV
  | Sum of eigenvalues per atom                           :        -395.30167343 eV
  | Total energy (T->0) per atom                          :        -677.71986461 eV  <-- do not rely on this value for anything but (periodic) metals
  | Electronic free energy per atom                       :        -677.71986461 eV
  Initialize hartree_potential_storage
  Max. number of atoms included in rho_multipole:           13

  End scf initialization - timings             :  max(cpu_time)    wall_clock(cpu1)
  | Time for scf. initialization               :        0.093 s           0.093 s
  | Boundary condition initialization          :        0.000 s           0.000 s
  | Integration                                :        0.039 s           0.039 s
  | Solution of K.-S. eqns.                    :        0.009 s           0.010 s
  | Grid partitioning                          :        0.022 s           0.021 s
  | Preloading free-atom quantities on grid    :        0.002 s           0.003 s
  | Free-atom superposition energy             :        0.005 s           0.004 s
  | Total energy evaluation                    :        0.000 s           0.000 s

  Partial memory accounting:
  | Current value for overall tracked memory usage on task 0  :           0.133 MB
  | Peak value for overall tracked memory usage on task 0     :           0.868 MB after allocating wave
  | Largest tracked array allocation on task 0 so far         :           0.188 MB  when allocating H_times_psi
  Note:  These values currently only include a subset of arrays which are explicitly tracked.
  The "true" memory usage will be greater.
------------------------------------------------------------

------------------------------------------------------------
          Begin self-consistency iteration #    1

  Date     :  20200505, Time     :  082335.231
------------------------------------------------------------
  Evaluating new KS density.
  Integration grid: deviation in total charge (<rho> - N_e) =   1.421085E-14
  Pulay mixing of updated and previous charge densities.

  Evaluating partitioned Hartree potential by multipole expansion.
  | Analytical far-field extrapolation by fixed multipoles:
  | Hartree multipole sum: apparent total charge =  -0.174862E-03
  Summing up the Hartree potential.
  Time summed over all CPUs for potential: real work        0.420 s, elapsed        0.434 s
  | RMS charge density error from multipole expansion :   0.593652E-02

  Integrating Hamiltonian matrix: batch-based integration.
  Time summed over all CPUs for integration: real work        0.510 s, elapsed        0.537 s

  Updating Kohn-Sham eigenvalues and eigenvectors using ELSI and the ELPA eigensolver.
  ELPA settings:
  | ELPA solver          1
  Finished transformation to standard eigenproblem
  | Time :     0.000 s
  Starting ELPA eigensolver
  | Time full => tridiagonal    :     0.002 s
  | Time solve tridiagonal      :     0.000 s
  | Time ev tridiagonal => full :     0.000 s
  Finished solving standard eigenproblem
  | Time :     0.003 s
  Finished back-transformation of eigenvectors
  | Time :     0.000 s

  Obtaining occupation numbers and chemical potential using ELSI.
  | Chemical potential (Fermi level):    -7.70810613eV
  Writing Kohn-Sham eigenvalues.

  State    Occupation    Eigenvalue [Ha]    Eigenvalue [eV]
      1       2.00000         -18.905687         -514.44991
      2       2.00000         -18.838308         -512.61644
      3       2.00000         -14.094591         -383.53333
      4       2.00000         -10.114598         -275.23222
      5       2.00000         -10.062056         -273.80247
      6       2.00000         -10.030946         -272.95592
      7       2.00000          -1.138729          -30.98640
      8       2.00000          -1.030413          -28.03896
      9       2.00000          -0.920970          -25.06086
     10       2.00000          -0.792186          -21.55647
     11       2.00000          -0.713244          -19.40836
     12       2.00000          -0.634342          -17.26132
     13       2.00000          -0.563810          -15.34206
     14       2.00000          -0.536566          -14.60071
     15       2.00000          -0.523872          -14.25527
     16       2.00000          -0.506998          -13.79611
     17       2.00000          -0.490806          -13.35551
     18       2.00000          -0.473138          -12.87475
     19       2.00000          -0.467036          -12.70869
     20       2.00000          -0.436185          -11.86921
     21       2.00000          -0.425563          -11.58017
     22       2.00000          -0.366722           -9.97901
     23       2.00000          -0.333966           -9.08769
     24       2.00000          -0.313035           -8.51812
     25       0.00000          -0.110848           -3.01633
     26       0.00000          -0.031280           -0.85118
     27       0.00000           0.000227            0.00617
     28       0.00000           0.017161            0.46697
     29       0.00000           0.025685            0.69893
     30       0.00000           0.046063            1.25344
     31       0.00000           0.057939            1.57661
     32       0.00000           0.082389            2.24192
     33       0.00000           0.091633            2.49347
     34       0.00000           0.095189            2.59023
     35       0.00000           0.119216            3.24403
     36       0.00000           0.162020            4.40880
     37       0.00000           0.175534            4.77653
     38       0.00000           0.228773            6.22524
     39       0.00000           0.239528            6.51789
     40       0.00000           0.263765            7.17741
     41       0.00000           0.294711            8.01949
     42       0.00000           0.309471            8.42112
     43       0.00000           0.326844            8.89387
     44       0.00000           0.348739            9.48966
     45       0.00000           0.364089            9.90737
     46       0.00000           0.384113           10.45224
     47       0.00000           0.411467           11.19659
     48       0.00000           0.425087           11.56720
     49       0.00000           0.486186           13.22979
     50       0.00000           0.500230           13.61194
     51       0.00000           0.561184           15.27058
     52       0.00000           0.563684           15.33861
     53       0.00000           0.632589           17.21362

  Highest occupied state (VBM) at     -8.51812196 eV
  | Occupation number:      2.00000000

  Lowest unoccupied state (CBM) at    -3.01632975 eV
  | Occupation number:      0.00000000

  Overall HOMO-LUMO gap:      5.50179222 eV.

  Total energy components:
  | Sum of eigenvalues            :        -185.42753494 Ha       -5045.73995020 eV
  | XC energy correction          :         -42.11523842 Ha       -1146.01394583 eV
  | XC potential correction       :          54.14453893 Ha        1473.34786753 eV
  | Free-atom electrostatic energy:        -146.85348829 Ha       -3996.08673509 eV
  | Hartree energy correction     :          -3.34293381 Ha         -90.96585738 eV
  | vdW energy correction         :           0.00000000 Ha           0.00000000 eV
  | Entropy correction            :           0.00000000 Ha           0.00000000 eV
  | ---------------------------
  | Total energy                  :        -323.59465653 Ha       -8805.45862097 eV
  | Total energy, T -> 0          :        -323.59465653 Ha       -8805.45862097 eV  <-- do not rely on this value for anything but (periodic) metals
  | Electronic free energy        :        -323.59465653 Ha       -8805.45862097 eV

  Derived energy quantities:
  | Kinetic energy                :         322.26510604 Ha        8769.27971147 eV
  | Electrostatic energy          :        -603.74452416 Ha      -16428.72438661 eV
  | Energy correction for multipole
  | error in Hartree potential    :           0.01204994 Ha           0.32789555 eV
  | Sum of eigenvalues per atom                           :        -388.13384232 eV
  | Total energy (T->0) per atom                          :        -677.34297084 eV  <-- do not rely on this value for anything but (periodic) metals
  | Electronic free energy per atom                       :        -677.34297084 eV

  Self-consistency convergence accuracy:
  | Change of charge density      :  0.5803E+00
  | Change of sum of eigenvalues  :  0.9318E+02 eV
  | Change of total energy        :  0.4900E+01 eV

  End self-consistency iteration #     1       :  max(cpu_time)    wall_clock(cpu1)
  | Time for this iteration                    :        0.077 s           0.077 s
  | Charge density update                      :        0.021 s           0.021 s
  | Density mixing                             :        0.000 s           0.001 s
  | Hartree multipole update                   :        0.001 s           0.001 s
  | Hartree multipole summation                :        0.022 s           0.022 s
  | Integration                                :        0.027 s           0.027 s
  | Solution of K.-S. eqns.                    :        0.004 s           0.004 s
  | Total energy evaluation                    :        0.000 s           0.001 s

  Partial memory accounting:
  | Current value for overall tracked memory usage on task 0  :           0.133 MB
  | Peak value for overall tracked memory usage on task 0     :           0.884 MB after allocating gradient_basis_wave
  | Largest tracked array allocation on task 0 so far         :           0.564 MB  when allocating gradient_basis_wave
  Note:  These values currently only include a subset of arrays which are explicitly tracked.
  The "true" memory usage will be greater.
------------------------------------------------------------

------------------------------------------------------------
          Begin self-consistency iteration #    2

  Date     :  20200505, Time     :  082335.312
------------------------------------------------------------
  Evaluating new KS density.
  Integration grid: deviation in total charge (<rho> - N_e) =   7.105427E-15
  Pulay mixing of updated and previous charge densities.

  Evaluating partitioned Hartree potential by multipole expansion.
  | Analytical far-field extrapolation by fixed multipoles:
  | Hartree multipole sum: apparent total charge =  -0.320017E-03
  Summing up the Hartree potential.
  Time summed over all CPUs for potential: real work        0.419 s, elapsed        0.433 s
  | RMS charge density error from multipole expansion :   0.142403E-01

  Integrating Hamiltonian matrix: batch-based integration.
  Time summed over all CPUs for integration: real work        0.511 s, elapsed        0.531 s

  Updating Kohn-Sham eigenvalues and eigenvectors using ELSI and the ELPA eigensolver.
  ELPA settings:
  | ELPA solver          1
  Finished transformation to standard eigenproblem
  | Time :     0.000 s
  Starting ELPA eigensolver
  | Time full => tridiagonal    :     0.002 s
  | Time solve tridiagonal      :     0.000 s
  | Time ev tridiagonal => full :     0.000 s
  Finished solving standard eigenproblem
  | Time :     0.003 s
  Finished back-transformation of eigenvectors
  | Time :     0.000 s

  Obtaining occupation numbers and chemical potential using ELSI.
  | Chemical potential (Fermi level):    -2.21585981eV
  Highest occupied state (VBM) at     -6.36537534 eV
  | Occupation number:      2.00000000

  Lowest unoccupied state (CBM) at    -1.71568700 eV
  | Occupation number:      0.00000000

  Overall HOMO-LUMO gap:      4.64968834 eV.

  Checking to see if s.c.f. parameters should be adjusted.

  Total energy components:
  | Sum of eigenvalues            :        -181.78741004 Ha       -4946.68711178 eV
  | XC energy correction          :         -42.48001746 Ha       -1155.94008866 eV
  | XC potential correction       :          54.61742350 Ha        1486.21571127 eV
  | Free-atom electrostatic energy:        -146.85348829 Ha       -3996.08673509 eV
  | Hartree energy correction     :          -7.01320175 Ha        -190.83892933 eV
  | vdW energy correction         :           0.00000000 Ha           0.00000000 eV
  | Entropy correction            :           0.00000000 Ha           0.00000000 eV
  | ---------------------------
  | Total energy                  :        -323.51669404 Ha       -8803.33715359 eV
  | Total energy, T -> 0          :        -323.51669404 Ha       -8803.33715359 eV  <-- do not rely on this value for anything but (periodic) metals
  | Electronic free energy        :        -323.51669404 Ha       -8803.33715359 eV

  Derived energy quantities:
  | Kinetic energy                :         323.60424467 Ha        8805.71952763 eV
  | Electrostatic energy          :        -604.64092125 Ha      -16453.11659256 eV
  | Energy correction for multipole
  | error in Hartree potential    :           0.02698097 Ha           0.73418958 eV
  | Sum of eigenvalues per atom                           :        -380.51439321 eV
  | Total energy (T->0) per atom                          :        -677.17978105 eV  <-- do not rely on this value for anything but (periodic) metals
  | Electronic free energy per atom                       :        -677.17978105 eV

  Self-consistency convergence accuracy:
  | Change of charge density      :  0.3623E+00
  | Change of sum of eigenvalues  :  0.9905E+02 eV
  | Change of total energy        :  0.2121E+01 eV

  End self-consistency iteration #     2       :  max(cpu_time)    wall_clock(cpu1)
  | Time for this iteration                    :        0.076 s           0.075 s
  | Charge density update                      :        0.021 s           0.020 s
  | Density mixing                             :        0.001 s           0.001 s
  | Hartree multipole update                   :        0.001 s           0.001 s
  | Hartree multipole summation                :        0.022 s           0.022 s
  | Integration                                :        0.027 s           0.027 s
  | Solution of K.-S. eqns.                    :        0.003 s           0.004 s
  | Total energy evaluation                    :        0.000 s           0.000 s

  Partial memory accounting:
  | Current value for overall tracked memory usage on task 0  :           0.134 MB
  | Peak value for overall tracked memory usage on task 0     :           0.884 MB after allocating gradient_basis_wave
  | Largest tracked array allocation on task 0 so far         :           0.564 MB  when allocating gradient_basis_wave
  Note:  These values currently only include a subset of arrays which are explicitly tracked.
  The "true" memory usage will be greater.
------------------------------------------------------------

------------------------------------------------------------
          Begin self-consistency iteration #    3

  Date     :  20200505, Time     :  082335.391
------------------------------------------------------------
  Evaluating new KS density.
  Integration grid: deviation in total charge (<rho> - N_e) =   2.131628E-14
  Pulay mixing of updated and previous charge densities.

  Evaluating partitioned Hartree potential by multipole expansion.
  | Analytical far-field extrapolation by fixed multipoles:
  | Hartree multipole sum: apparent total charge =  -0.422116E-03
  Summing up the Hartree potential.
  Time summed over all CPUs for potential: real work        0.420 s, elapsed        0.432 s
  | RMS charge density error from multipole expansion :   0.226837E-01

  Integrating Hamiltonian matrix: batch-based integration.
  Time summed over all CPUs for integration: real work        0.512 s, elapsed        0.544 s

  Updating Kohn-Sham eigenvalues and eigenvectors using ELSI and the ELPA eigensolver.
  ELPA settings:
  | ELPA solver          1
  Finished transformation to standard eigenproblem
  | Time :     0.000 s
  Starting ELPA eigensolver
  | Time full => tridiagonal    :     0.002 s
  | Time solve tridiagonal      :     0.000 s
  | Time ev tridiagonal => full :     0.000 s
  Finished solving standard eigenproblem
  | Time :     0.003 s
  Finished back-transformation of eigenvectors
  | Time :     0.000 s

  Obtaining occupation numbers and chemical potential using ELSI.
  | Chemical potential (Fermi level):    -5.65183536eV
  Highest occupied state (VBM) at     -5.70518415 eV
  | Occupation number:      2.00000000

  Lowest unoccupied state (CBM) at    -1.02699802 eV
  | Occupation number:      0.00000000

  Overall HOMO-LUMO gap:      4.67818613 eV.

  Total energy components:
  | Sum of eigenvalues            :        -180.54535143 Ha       -4912.88897749 eV
  | XC energy correction          :         -42.62701476 Ha       -1159.94008861 eV
  | XC potential correction       :          54.80456795 Ha        1491.30817087 eV
  | Free-atom electrostatic energy:        -146.85348829 Ha       -3996.08673509 eV
  | Hartree energy correction     :          -8.28346554 Ha        -225.40456593 eV
  | vdW energy correction         :           0.00000000 Ha           0.00000000 eV
  | Entropy correction            :          -0.00000000 Ha          -0.00000000 eV
  | ---------------------------
  | Total energy                  :        -323.50475207 Ha       -8803.01219625 eV
  | Total energy, T -> 0          :        -323.50475207 Ha       -8803.01219625 eV  <-- do not rely on this value for anything but (periodic) metals
  | Electronic free energy        :        -323.50475207 Ha       -8803.01219625 eV

  Derived energy quantities:
  | Kinetic energy                :         323.11949813 Ha        8792.52890294 eV
  | Electrostatic energy          :        -603.99723544 Ha      -16435.60101057 eV
  | Energy correction for multipole
  | error in Hartree potential    :           0.03880664 Ha           1.05598233 eV
  | Sum of eigenvalues per atom                           :        -377.91453673 eV
  | Total energy (T->0) per atom                          :        -677.15478433 eV  <-- do not rely on this value for anything but (periodic) metals
  | Electronic free energy per atom                       :        -677.15478433 eV

  Self-consistency convergence accuracy:
  | Change of charge density      :  0.2005E+00
  | Change of sum of eigenvalues  :  0.3380E+02 eV
  | Change of total energy        :  0.3250E+00 eV

  End self-consistency iteration #     3       :  max(cpu_time)    wall_clock(cpu1)
  | Time for this iteration                    :        0.076 s           0.075 s
  | Charge density update                      :        0.021 s           0.020 s
  | Density mixing                             :        0.001 s           0.000 s
  | Hartree multipole update                   :        0.001 s           0.001 s
  | Hartree multipole summation                :        0.022 s           0.022 s
  | Integration                                :        0.028 s           0.028 s
  | Solution of K.-S. eqns.                    :        0.004 s           0.004 s
  | Total energy evaluation                    :        0.000 s           0.000 s

  Partial memory accounting:
  | Current value for overall tracked memory usage on task 0  :           0.134 MB
  | Peak value for overall tracked memory usage on task 0     :           0.885 MB after allocating gradient_basis_wave
  | Largest tracked array allocation on task 0 so far         :           0.564 MB  when allocating gradient_basis_wave
  Note:  These values currently only include a subset of arrays which are explicitly tracked.
  The "true" memory usage will be greater.
------------------------------------------------------------

------------------------------------------------------------
          Begin self-consistency iteration #    4

  Date     :  20200505, Time     :  082335.470
------------------------------------------------------------
  Evaluating new KS density.
  Integration grid: deviation in total charge (<rho> - N_e) =  -2.842171E-14
  Pulay mixing of updated and previous charge densities.

  Evaluating partitioned Hartree potential by multipole expansion.
  | Analytical far-field extrapolation by fixed multipoles:
  | Hartree multipole sum: apparent total charge =  -0.453612E-03
  Summing up the Hartree potential.
  Time summed over all CPUs for potential: real work        0.411 s, elapsed        0.423 s
  | RMS charge density error from multipole expansion :   0.259073E-01

  Integrating Hamiltonian matrix: batch-based integration.
  Time summed over all CPUs for integration: real work        0.512 s, elapsed        0.543 s

  Updating Kohn-Sham eigenvalues and eigenvectors using ELSI and the ELPA eigensolver.
  ELPA settings:
  | ELPA solver          1
  Finished transformation to standard eigenproblem
  | Time :     0.000 s
  Starting ELPA eigensolver
  | Time full => tridiagonal    :     0.002 s
  | Time solve tridiagonal      :     0.000 s
  | Time ev tridiagonal => full :     0.000 s
  Finished solving standard eigenproblem
  | Time :     0.003 s
  Finished back-transformation of eigenvectors
  | Time :     0.000 s

  Obtaining occupation numbers and chemical potential using ELSI.
  | Chemical potential (Fermi level):    -1.43033593eV
  Highest occupied state (VBM) at     -5.53678668 eV
  | Occupation number:      2.00000000

  Lowest unoccupied state (CBM) at    -0.95476548 eV
  | Occupation number:      0.00000000

  Overall HOMO-LUMO gap:      4.58202120 eV.

  Total energy components:
  | Sum of eigenvalues            :        -180.39362476 Ha       -4908.76028469 eV
  | XC energy correction          :         -42.66388718 Ha       -1160.94343824 eV
  | XC potential correction       :          54.85109544 Ha        1492.57424822 eV
  | Free-atom electrostatic energy:        -146.85348829 Ha       -3996.08673509 eV
  | Hartree energy correction     :          -8.44412777 Ha        -229.77640743 eV
  | vdW energy correction         :           0.00000000 Ha           0.00000000 eV
  | Entropy correction            :           0.00000000 Ha           0.00000000 eV
  | ---------------------------
  | Total energy                  :        -323.50403256 Ha       -8802.99261723 eV
  | Total energy, T -> 0          :        -323.50403256 Ha       -8802.99261723 eV  <-- do not rely on this value for anything but (periodic) metals
  | Electronic free energy        :        -323.50403256 Ha       -8802.99261723 eV

  Derived energy quantities:
  | Kinetic energy                :         322.78208229 Ha        8783.34735097 eV
  | Electrostatic energy          :        -603.62222767 Ha      -16425.39652996 eV
  | Energy correction for multipole
  | error in Hartree potential    :           0.04294257 Ha           1.16852687 eV
  | Sum of eigenvalues per atom                           :        -377.59694498 eV
  | Total energy (T->0) per atom                          :        -677.15327825 eV  <-- do not rely on this value for anything but (periodic) metals
  | Electronic free energy per atom                       :        -677.15327825 eV

  Self-consistency convergence accuracy:
  | Change of charge density      :  0.5847E-01
  | Change of sum of eigenvalues  :  0.4129E+01 eV
  | Change of total energy        :  0.1958E-01 eV

  End self-consistency iteration #     4       :  max(cpu_time)    wall_clock(cpu1)
  | Time for this iteration                    :        0.077 s           0.077 s
  | Charge density update                      :        0.021 s           0.022 s
  | Density mixing                             :        0.001 s           0.001 s
  | Hartree multipole update                   :        0.001 s           0.001 s
  | Hartree multipole summation                :        0.022 s           0.022 s
  | Integration                                :        0.028 s           0.027 s
  | Solution of K.-S. eqns.                    :        0.004 s           0.004 s
  | Total energy evaluation                    :        0.000 s           0.000 s

  Partial memory accounting:
  | Current value for overall tracked memory usage on task 0  :           0.134 MB
  | Peak value for overall tracked memory usage on task 0     :           0.885 MB after allocating gradient_basis_wave
  | Largest tracked array allocation on task 0 so far         :           0.564 MB  when allocating gradient_basis_wave
  Note:  These values currently only include a subset of arrays which are explicitly tracked.
  The "true" memory usage will be greater.
------------------------------------------------------------

------------------------------------------------------------
          Begin self-consistency iteration #    5

  Date     :  20200505, Time     :  082335.551
------------------------------------------------------------
  Evaluating new KS density.
  Integration grid: deviation in total charge (<rho> - N_e) =   2.131628E-14
  Pulay mixing of updated and previous charge densities.

  Evaluating partitioned Hartree potential by multipole expansion.
  | Analytical far-field extrapolation by fixed multipoles:
  | Hartree multipole sum: apparent total charge =  -0.447591E-03
  Summing up the Hartree potential.
  Time summed over all CPUs for potential: real work        0.412 s, elapsed        0.433 s
  | RMS charge density error from multipole expansion :   0.256414E-01

  Integrating Hamiltonian matrix: batch-based integration.
  Time summed over all CPUs for integration: real work        0.511 s, elapsed        0.541 s

  Updating Kohn-Sham eigenvalues and eigenvectors using ELSI and the ELPA eigensolver.
  ELPA settings:
  | ELPA solver          1
  Finished transformation to standard eigenproblem
  | Time :     0.000 s
  Starting ELPA eigensolver
  | Time full => tridiagonal    :     0.002 s
  | Time solve tridiagonal      :     0.000 s
  | Time ev tridiagonal => full :     0.000 s
  Finished solving standard eigenproblem
  | Time :     0.003 s
  Finished back-transformation of eigenvectors
  | Time :     0.000 s

  Obtaining occupation numbers and chemical potential using ELSI.
  | Chemical potential (Fermi level):    -1.48897777eV
  Highest occupied state (VBM) at     -5.61127046 eV
  | Occupation number:      2.00000000

  Lowest unoccupied state (CBM) at    -1.02918953 eV
  | Occupation number:      0.00000000

  Overall HOMO-LUMO gap:      4.58208092 eV.

  Total energy components:
  | Sum of eigenvalues            :        -180.56398454 Ha       -4913.39601023 eV
  | XC energy correction          :         -42.64286185 Ha       -1160.37130988 eV
  | XC potential correction       :          54.82383648 Ha        1491.83249412 eV
  | Free-atom electrostatic energy:        -146.85348829 Ha       -3996.08673509 eV
  | Hartree energy correction     :          -8.26724008 Ha        -224.96304853 eV
  | vdW energy correction         :           0.00000000 Ha           0.00000000 eV
  | Entropy correction            :           0.00000000 Ha           0.00000000 eV
  | ---------------------------
  | Total energy                  :        -323.50373828 Ha       -8802.98460961 eV
  | Total energy, T -> 0          :        -323.50373828 Ha       -8802.98460961 eV  <-- do not rely on this value for anything but (periodic) metals
  | Electronic free energy        :        -323.50373828 Ha       -8802.98460961 eV

  Derived energy quantities:
  | Kinetic energy                :         322.69366647 Ha        8780.94143413 eV
  | Electrostatic energy          :        -603.55454291 Ha      -16423.55473386 eV
  | Energy correction for multipole
  | error in Hartree potential    :           0.04235058 Ha           1.15241802 eV
  | Sum of eigenvalues per atom                           :        -377.95353925 eV
  | Total energy (T->0) per atom                          :        -677.15266228 eV  <-- do not rely on this value for anything but (periodic) metals
  | Electronic free energy per atom                       :        -677.15266228 eV

  Self-consistency convergence accuracy:
  | Change of charge density      :  0.2053E-01
  | Change of sum of eigenvalues  : -0.4636E+01 eV
  | Change of total energy        :  0.8008E-02 eV

  End self-consistency iteration #     5       :  max(cpu_time)    wall_clock(cpu1)
  | Time for this iteration                    :        0.078 s           0.076 s
  | Charge density update                      :        0.023 s           0.021 s
  | Density mixing                             :        0.001 s           0.001 s
  | Hartree multipole update                   :        0.001 s           0.001 s
  | Hartree multipole summation                :        0.022 s           0.022 s
  | Integration                                :        0.027 s           0.027 s
  | Solution of K.-S. eqns.                    :        0.003 s           0.004 s
  | Total energy evaluation                    :        0.000 s           0.000 s

  Partial memory accounting:
  | Current value for overall tracked memory usage on task 0  :           0.134 MB
  | Peak value for overall tracked memory usage on task 0     :           0.885 MB after allocating gradient_basis_wave
  | Largest tracked array allocation on task 0 so far         :           0.564 MB  when allocating gradient_basis_wave
  Note:  These values currently only include a subset of arrays which are explicitly tracked.
  The "true" memory usage will be greater.
------------------------------------------------------------

------------------------------------------------------------
          Begin self-consistency iteration #    6

  Date     :  20200505, Time     :  082335.632
------------------------------------------------------------
  Evaluating new KS density.
  Integration grid: deviation in total charge (<rho> - N_e) =  -7.105427E-15
  Pulay mixing of updated and previous charge densities.

[...]
  |   Hirshfeld dipole moment :      0.06513969
  |   Hirshfeld second moments:      0.00469215      -0.01629394      -0.01548216
  |                                 -0.01629394      -0.00615735       0.00823693
  |                                 -0.01548216       0.00823693      -0.02034391
  ----------------------------------------------------------------------
  | Atom    12: O
  |   Hirshfeld charge        :     -0.13738555
  |   Free atom volume        :     23.61338643
  |   Hirshfeld volume        :     20.77276630
  |   Hirshfeld dipole vector :      0.01545133       0.00049315       0.03794806
  |   Hirshfeld dipole moment :      0.04097612
  |   Hirshfeld second moments:      0.05715005       0.00401112      -0.00937850
  |                                  0.00401112       0.10216566      -0.01441641
  |                                 -0.00937850      -0.01441641       0.02892752
  ----------------------------------------------------------------------
  | Atom    13: H
  |   Hirshfeld charge        :      0.17072939
  |   Free atom volume        :      9.95071624
  |   Hirshfeld volume        :      6.40554458
  |   Hirshfeld dipole vector :     -0.01158721      -0.10311778       0.04507141
  |   Hirshfeld dipole moment :      0.11313254
  |   Hirshfeld second moments:      0.11562200       0.00062230      -0.01443094
  |                                  0.00062230       0.12301948       0.00000160
  |                                 -0.01443094       0.00000160       0.08183708
  ----------------------------------------------------------------------


  Total energy components:
  | Sum of eigenvalues            :        -180.59421430 Ha       -4914.21860381 eV
  | XC energy correction          :         -42.63463945 Ha       -1160.14756712 eV
  | XC potential correction       :          54.81324207 Ha        1491.54420562 eV
  | Free-atom electrostatic energy:        -146.85348829 Ha       -3996.08673509 eV
  | Hartree energy correction     :          -8.23455332 Ha        -224.07359666 eV
  | vdW energy correction         :          -0.00314718 Ha          -0.08563925 eV
  | Entropy correction            :           0.00000000 Ha           0.00000000 eV
  | ---------------------------
  | Total energy                  :        -323.50680048 Ha       -8803.06793630 eV
  | Total energy, T -> 0          :        -323.50680048 Ha       -8803.06793630 eV  <-- do not rely on this value for anything but (periodic) metals
  | Electronic free energy        :        -323.50680048 Ha       -8803.06793630 eV

  Derived energy quantities:
  | Kinetic energy                :         322.56344488 Ha        8777.39792433 eV
  | Electrostatic energy          :        -603.43245873 Ha      -16420.23265427 eV
  | Energy correction for multipole
  | error in Hartree potential    :           0.04270603 Ha           1.16209017 eV
  | Sum of eigenvalues per atom                           :        -378.01681568 eV
  | Total energy (T->0) per atom                          :        -677.15907202 eV  <-- do not rely on this value for anything but (periodic) metals
  | Electronic free energy per atom                       :        -677.15907202 eV

  atomic forces [eV/Ang]:
  -----------------------
  atom #    1
   Hellmann-Feynman              : -0.950496E-01  0.771669E+00  0.752374E+00
   Ionic forces                  :  0.000000E+00  0.000000E+00  0.000000E+00
   Multipole                     :  0.249488E-01  0.443191E+00 -0.306620E+00
   Pulay + GGA                   : -0.860090E+00 -0.797490E+00 -0.111401E+01
   Van der Waals                 :  0.186975E-02  0.431391E-03 -0.146555E-02
   ----------------------------------------------------------------
   Total forces(   1)            : -0.928321E+00  0.417801E+00 -0.669723E+00
  atom #    2
   Hellmann-Feynman              :  0.264742E+00 -0.479133E-01 -0.545058E-01
   Ionic forces                  :  0.000000E+00  0.000000E+00  0.000000E+00
   Multipole                     :  0.180128E+00  0.163578E-01 -0.247627E-01
   Pulay + GGA                   : -0.147953E+00 -0.576601E-02  0.125091E-01
   Van der Waals                 :  0.470402E-02 -0.627877E-02 -0.515624E-02
   ----------------------------------------------------------------
   Total forces(   2)            :  0.301621E+00 -0.436003E-01 -0.719158E-01
  atom #    3
   Hellmann-Feynman              :  0.482203E+01 -0.994654E+01 -0.482013E+01
   Ionic forces                  :  0.000000E+00  0.000000E+00  0.000000E+00
   Multipole                     : -0.181393E+00  0.910015E-01 -0.903806E+00
   Pulay + GGA                   : -0.403138E+01  0.906285E+01  0.628441E+01
   Van der Waals                 :  0.299849E-02 -0.780606E-02 -0.633618E-02
   ----------------------------------------------------------------
   Total forces(   3)            :  0.612260E+00 -0.800504E+00  0.554129E+00
  atom #    4
   Hellmann-Feynman              : -0.174278E+00  0.265468E+00 -0.614860E-01
   Ionic forces                  :  0.000000E+00  0.000000E+00  0.000000E+00
   Multipole                     : -0.941211E-01  0.128892E-01 -0.504064E-01
   Pulay + GGA                   :  0.233867E+00 -0.884239E-01 -0.524364E-01
   Van der Waals                 : -0.106321E-02  0.151035E-02 -0.111998E-01
   ----------------------------------------------------------------
   Total forces(   4)            : -0.355949E-01  0.191444E+00 -0.175529E+00
  atom #    5
   Hellmann-Feynman              : -0.144642E+00  0.289662E+00  0.661087E-02
   Ionic forces                  :  0.000000E+00  0.000000E+00  0.000000E+00
   Multipole                     : -0.198788E-01  0.664825E-01 -0.808660E-01
   Pulay + GGA                   : -0.155928E-01 -0.225486E+00  0.337080E-01
   Van der Waals                 : -0.394881E-02 -0.594795E-02 -0.500890E-02
   ----------------------------------------------------------------
   Total forces(   5)            : -0.184062E+00  0.124710E+00 -0.455560E-01
  atom #    6
   Hellmann-Feynman              :  0.346802E+00 -0.100930E+01  0.782783E+00
   Ionic forces                  :  0.000000E+00  0.000000E+00  0.000000E+00
   Multipole                     : -0.126704E+00  0.644110E+00  0.190432E+00
   Pulay + GGA                   :  0.413990E-01 -0.776199E-01 -0.498301E+00
   Van der Waals                 : -0.140818E-02  0.101587E-01  0.773693E-02
   ----------------------------------------------------------------
   Total forces(   6)            :  0.260088E+00 -0.432651E+00  0.482650E+00
  atom #    7
   Hellmann-Feynman              : -0.222090E+00 -0.496830E-01 -0.489749E-01
   Ionic forces                  :  0.000000E+00  0.000000E+00  0.000000E+00
   Multipole                     : -0.121427E+00  0.478649E-01  0.324967E-01
   Pulay + GGA                   :  0.113266E+00  0.117792E-01  0.144274E-01
   Van der Waals                 : -0.124115E-02  0.545646E-02  0.726529E-02
   ----------------------------------------------------------------
   Total forces(   7)            : -0.231493E+00  0.154176E-01  0.521442E-02
  atom #    8
   Hellmann-Feynman              :  0.556629E-01  0.712304E-01  0.257019E+00
   Ionic forces                  :  0.000000E+00  0.000000E+00  0.000000E+00
   Multipole                     :  0.162905E-01  0.622933E-01  0.124428E+00
   Pulay + GGA                   : -0.457979E-01 -0.393762E-01 -0.100434E+00
   Van der Waals                 : -0.292104E-02  0.113267E-01  0.599076E-03
   ----------------------------------------------------------------
   Total forces(   8)            :  0.232345E-01  0.105474E+00  0.281611E+00
  atom #    9
   Hellmann-Feynman              :  0.118924E+00  0.336752E-01 -0.195525E+00
   Ionic forces                  :  0.000000E+00  0.000000E+00  0.000000E+00
   Multipole                     :  0.207323E-01  0.132023E+00 -0.641597E-02
   Pulay + GGA                   : -0.454700E-01 -0.732768E-01  0.719804E-01
   Van der Waals                 : -0.311117E-02  0.579330E-02  0.817790E-02
   ----------------------------------------------------------------
   Total forces(   9)            :  0.910752E-01  0.982144E-01 -0.121783E+00
  atom #   10
   Hellmann-Feynman              :  0.245063E+01  0.515262E+01  0.875943E-01
   Ionic forces                  :  0.000000E+00  0.000000E+00  0.000000E+00
   Multipole                     : -0.576524E-01 -0.267702E+00  0.295050E+00
   Pulay + GGA                   : -0.147178E+01 -0.281555E+01 -0.204078E+00
   Van der Waals                 :  0.522456E-02 -0.121531E-01  0.650553E-04
   ----------------------------------------------------------------
   Total forces(  10)            :  0.926425E+00  0.205721E+01  0.178631E+00
  atom #   11
   Hellmann-Feynman              :  0.411752E+01 -0.244552E+01  0.143206E+02
   Ionic forces                  :  0.000000E+00  0.000000E+00  0.000000E+00
   Multipole                     :  0.144315E+00 -0.519118E+00  0.813994E+00
   Pulay + GGA                   : -0.326522E+01  0.339772E+01 -0.135174E+02
   Van der Waals                 : -0.362947E-02 -0.117567E-01  0.203653E-02
   ----------------------------------------------------------------
   Total forces(  11)            :  0.992984E+00  0.421330E+00  0.161922E+01
  atom #   12
   Hellmann-Feynman              : -0.652604E+01  0.109648E+01 -0.147898E+02
   Ionic forces                  :  0.000000E+00  0.000000E+00  0.000000E+00
   Multipole                     : -0.911252E+00 -0.960745E+00 -0.818798E+00
   Pulay + GGA                   :  0.618731E+01 -0.150116E+01  0.134652E+02
   Van der Waals                 :  0.160325E-02  0.303349E-02  0.637917E-02
   ----------------------------------------------------------------
   Total forces(  12)            : -0.124838E+01 -0.136239E+01 -0.213710E+01
  atom #   13
   Hellmann-Feynman              : -0.617883E+00 -0.102584E+01  0.220149E+00
   Ionic forces                  :  0.000000E+00  0.000000E+00  0.000000E+00
   Multipole                     :  0.176510E-01 -0.616427E-01  0.912410E-01
   Pulay + GGA                   :  0.186423E-01  0.285035E+00 -0.207402E+00
   Van der Waals                 :  0.922968E-03  0.623216E-02 -0.309326E-02
   ----------------------------------------------------------------
   Total forces(  13)            : -0.580667E+00 -0.796220E+00  0.100895E+00

  Timings for VdW correction (Tkatchenko-Scheffler 2009 or later):
  | CPU time:        0.007 s, Wall clock time:        0.006 s.
  Removing unitary transformations (pure translations, rotations) from forces on atoms.
  Atomic forces before filtering:
  | Net force on center of mass :  -0.830110E-03 -0.376265E-02  0.745512E-03 eV/A
  | Net torque on center of mass:  -0.102350E-01  0.392770E-02 -0.135682E-02 eV
  Atomic forces after filtering:
  | Net force on center of mass :   0.000000E+00  0.356812E-15  0.423715E-15 eV/A
  | Net torque on center of mass:  -0.188817E-15 -0.519247E-15 -0.188817E-15 eV

  Energy and forces in a compact form:
  | Total energy uncorrected      :         -0.880306793630308E+04 eV
  | Total energy corrected        :         -0.880306793630308E+04 eV  <-- do not rely on this value for anything but (periodic) metals
  | Electronic free energy        :         -0.880306793630308E+04 eV
  Total atomic forces (unitary forces cleaned) [eV/Ang]:
  |   1         -0.928235894848851E+00          0.418157492953734E+00         -0.669685970744529E+00
  |   2          0.301706497766004E+00         -0.431768553138501E-01         -0.717032085070385E-01
  |   3          0.612571763059602E+00         -0.799851790394395E+00          0.554089507066930E+00
  |   4         -0.352785341231633E-01          0.192033470928057E+00         -0.175748040134724E+00
  |   5         -0.183731880141375E+00          0.125482068523222E+00         -0.453492125695705E-01
  |   6          0.259979157184736E+00         -0.432492669887136E+00          0.482898263200388E+00
  |   7         -0.231605401401918E+00          0.155055866511245E-01          0.529332659264455E-02
  |   8          0.229595889434130E-01          0.105417662936516E+00          0.281920163562391E+00
  |   9          0.909924556860378E-01          0.985112288094381E-01         -0.121270061193151E+00
  |  10          0.926470188291779E+00          0.205737231439777E+01          0.178308520041504E+00
  |  11          0.992863539046703E+00          0.421246627203576E+00          0.161888076569338E+01
  |  12         -0.124817430315806E+01         -0.136211578962396E+01         -0.213773177459115E+01
  |  13         -0.580517176304908E+00         -0.796089347184095E+00          0.100097721582926E+00

  ------------------------------------ 
  Start decomposition of the XC Energy 
  ------------------------------------ 
  X and C from original XC functional choice 
  Hartree-Fock Energy :          0.000000000 Ha              0.000000000 eV
  X Energy            :        -41.034851590 Ha          -1116.615124515 eV
  C Energy            :         -1.599787861 Ha            -43.532442602 eV
  Total XC Energy     :        -42.634639451 Ha          -1160.147567117 eV
  ------------------------------------ 
  LDA X and C from self-consistent density 
  X Energy LDA        :        -37.253011154 Ha          -1013.706010297 eV
  C Energy LDA        :         -3.138273674 Ha            -85.396771603 eV
  ------------------------------------ 
  End decomposition of the XC Energy 
  ------------------------------------ 

------------------------------------------------------------

------------------------------------------------------------------------------
  Final output of selected total energy values:

  The following output summarizes some interesting total energy values
  at the end of a run (AFTER all relaxation, molecular dynamics, etc.).

  | Total energy of the DFT / Hartree-Fock s.c.f. calculation      :          -8803.067936303 eV
  | Final zero-broadening corrected energy (caution - metals only) :          -8803.067936303 eV
  | For reference only, the value of 1 Hartree used in FHI-aims is :             27.211384500 eV

  Before relying on these values, please be sure to understand exactly which
  total energy value is referred to by a given number. Different objects may
  all carry the same name 'total energy'. Definitions:

  Total energy of the DFT / Hartree-Fock s.c.f. calculation:
  | Note that this energy does not include ANY quantities calculated after the
  | s.c.f. cycle, in particular not ANY RPA, MP2, etc. many-body perturbation terms.

  Final zero-broadening corrected energy:
  | For metallic systems only, a broadening of the occupation numbers at the Fermi
  | level can be extrapolated back to zero broadening by an electron-gas inspired
  | formula. For all systems that are not real metals, this value can be
  | meaningless and should be avoided.

------------------------------------------------------------------------------
  Methods described in the following list of references were used in this FHI-aims run.
  If you publish the results, please make sure to cite these reference if they apply.
  FHI-aims is an academic code, and for our developers (often, Ph.D. students
  and postdocs), scientific credit in the community is essential.
  Thank you for helping us!

  For any use of FHI-aims, please cite:

    Volker Blum, Ralf Gehrke, Felix Hanke, Paula Havu, Ville Havu,
    Xinguo Ren, Karsten Reuter, and Matthias Scheffler
    'Ab initio molecular simulations with numeric atom-centered orbitals'
    Computer Physics Communications 180, 2175-2196 (2009)
    http://dx.doi.org/10.1016/j.cpc.2009.06.022


  The scalable eigensolver library ELPA was used in your run.
  ELPA is essential especially for large systems on hundreds or thousands of CPUs.
  For ELPA, please cite:

    Andreas Marek, Volker Blum, Rainer Johanni, Ville Havu, Bruno Lang,
    Thomas Auckenthaler, Alexander Heinecke, Hans-Joachim Bungartz, and Hermann Lederer,
    'The ELPA Library - Scalable Parallel Eigenvalue Solutions
    for Electronic Structure Theory and Computational Science'
    The Journal of Physics: Condensed Matter 26, 213201 (2014).
    http://dx.doi.org/10.1088/0953-8984/26/21/213201


  The ELSI infrastructure was used in your run to solve the Kohn-Sham electronic structure.
  Please check out http://elsi-interchange.org to learn more.
  If scalability is important for your project, please acknowledge ELSI by citing:

    V. W-z. Yu, F. Corsetti, A. Garcia, W. P. Huhn, M. Jacquelin, W. Jia,
    B. Lange, L. Lin, J. Lu, W. Mi, A. Seifitokaldani, A. Vazquez-Mayagoitia,
    C. Yang, H. Yang, and V. Blum
    'ELSI: A unified software interface for Kohn-Sham electronic structure solvers'
    Computer Physics Communications 222, 267-285 (2018).
    http://dx.doi.org/10.1016/j.cpc.2017.09.007


  For the real-space grid partitioning and parallelization used in this calculation, please cite:

    Ville Havu, Volker Blum, Paula Havu, and Matthias Scheffler,
    'Efficient O(N) integration for all-electron electronic structure calculation'
    'using numerically tabulated basis functions'
    Journal of Computational Physics 228, 8367-8379 (2009).
    http://dx.doi.org/10.1016/j.jcp.2009.08.008

  Of course, there are many other important community references, e.g., those cited in the
  above references. Our list is limited to references that describe implementations in the
  FHI-aims code. The reason is purely practical (length of this list) - please credit others as well.

------------------------------------------------------------
          Leaving FHI-aims.
          Date     :  20200505, Time     :  082336.591

          Computational steps:
          | Number of self-consistency cycles          :           15
          | Number of SCF (re)initializations          :            1

          Detailed time accounting                     :  max(cpu_time)    wall_clock(cpu1)
          | Total time                                 :        1.600 s           1.659 s
          | Preparation time                           :        0.170 s           0.169 s
          | Boundary condition initalization           :        0.000 s           0.000 s
          | Grid partitioning                          :        0.022 s           0.021 s
          | Preloading free-atom quantities on grid    :        0.002 s           0.003 s
          | Free-atom superposition energy             :        0.005 s           0.004 s
          | Total time for integrations                :        0.451 s           0.449 s
          | Total time for solution of K.-S. equations :        0.062 s           0.066 s
          | Total time for density & force components  :        0.369 s           0.354 s
          | Total time for mixing                      :        0.019 s           0.019 s
          | Total time for Hartree multipole update    :        0.019 s           0.018 s
          | Total time for Hartree multipole sum       :        0.407 s           0.407 s
          | Total time for total energy evaluation     :        0.003 s           0.004 s
          | Total time for vdW correction              :        0.007 s           0.006 s

          Partial memory accounting:
          | Residual value for overall tracked memory usage across tasks :           0.000 MB (should be 0.000 MB)
          | Peak values for overall tracked memory usage (after allocating hessian_basis_wave):
          |   Minimum:        2.170 MB (on task 20)
          |   Maximum:        2.218 MB (on task  3)
          |   Average:        2.194 MB
          | Largest tracked array allocation (hessian_basis_wave):
          |   Minimum:        1.118 MB (on task 13)
          |   Maximum:        1.137 MB (on task  3)
          |   Average:        1.127 MB
          Note:  These values currently only include a subset of arrays which are explicitly tracked.
          The "true" memory usage will be greater.

          Have a nice day.
------------------------------------------------------------
