  MPI-parallelism will be employed.
------------------------------------------------------------
          Invoking FHI-aims ...
          Version 171221_1
          Compiled on 2019/09/09 at 14:39:39 on host puhti-login2.bullx.

          When using FHI-aims, please cite the following reference:

          Volker Blum, Ralf Gehrke, Felix Hanke, Paula Havu,
          Ville Havu, Xinguo Ren, Karsten Reuter, and Matthias Scheffler,
          'Ab Initio Molecular Simulations with Numeric Atom-Centered Orbitals',
          Computer Physics Communications 180, 2175-2196 (2009)

          For any questions about FHI-aims, please visit the aimsclub website
          with its forums and wiki. Contributions to both the forums and the
          wiki are warmly encouraged - they are for you, and everyone is welcome there.

------------------------------------------------------------



  Date     :  20200801, Time     :  170011.157
  Time zero on CPU 1             :   0.116280000000000E-01  s.
  Internal wall clock time zero  :           365533211.157  s.

  FHI-aims created a unique identifier for this run for later identification
  aims_uuid : 0753E53C-43A9-4D0D-A937-A9FF40B8BFEF

  Using        1 parallel tasks.
  Task        0 on host r18c47.bullx reporting.

  Performing system and environment tests:
  | Environment variable OMP_NUM_THREADS correctly set to 1.
  | Stacksize not measured: no C compiler
  | Checking for scalapack...
  | Testing pdtran()...
  | All pdtran() tests passed.

  Obtaining array dimensions for all initial allocations:
  
  -----------------------------------------------------------------------
  Parsing control.in (first pass over file, find array dimensions only).
  The contents of control.in will be repeated verbatim below
  unless switched off by setting 'verbatim_writeout .false.' .
  in the first line of control.in .
  -----------------------------------------------------------------------
  
  #########################################################################################
  #
  #  Volker Blum, FHI 2009 : Test run input file control.in for simple H2O
  #
  #########################################################################################
  #
  #  Physical model
  #
    xc                 pbe
    vdw_correction_hirshfeld
    spin               none
    relativistic       none
    charge             0.
  #
  #  SCF convergence
  #
    occupation_type    gaussian 0.01
    mixer              pulay
      n_max_pulay        10
      charge_mix_param   0.2
    sc_accuracy_rho    1E-5
    sc_accuracy_eev    1E-3
    sc_accuracy_etot   1E-6
    sc_accuracy_forces 1E-4
    sc_iter_limit      100
  #
  #  Relaxation
  #
  #  relax_geometry   bfgs 1.e-3
  #
  ################################################################################
  #
  #  FHI-aims code project
  #  VB, Fritz-Haber Institut, 2009
  #
  #  Suggested "light" defaults for H atom (to be pasted into control.in file)
  #  Be sure to double-check any results obtained with these settings for post-processing,
  #  e.g., with the "tight" defaults and larger basis sets.
  #
  ################################################################################
    species        H
  #     global species definitions
      nucleus             1
      mass                1.00794
  #
      l_hartree           4
  #
      cut_pot             3.5  1.5  1.0
      basis_dep_cutoff    1e-4
  #
      radial_base         24 5.0
      radial_multiplier   1
      angular_grids       specified
        division   0.2421   50
        division   0.3822  110
        division   0.4799  194
        division   0.5341  302
  #      division   0.5626  434
  #      division   0.5922  590
  #      division   0.6542  770
  #      division   0.6868 1202
  #      outer_grid  770
        outer_grid  302
  ################################################################################
  #
  #  Definition of "minimal" basis
  #
  ################################################################################
  #     valence basis states
      valence      1  s   1.
  #     ion occupancy
      ion_occ      1  s   0.5
  ################################################################################
  #
  #  Suggested additional basis functions. For production calculations,
  #  uncomment them one after another (the most important basis functions are
  #  listed first).
  #
  #  Basis constructed for dimers: 0.5 A, 0.7 A, 1.0 A, 1.5 A, 2.5 A
  #
  ################################################################################
  #  "First tier" - improvements: -1014.90 meV to -62.69 meV
       hydro 2 s 2.1
       hydro 2 p 3.5
  #  "Second tier" - improvements: -12.89 meV to -1.83 meV
  #     hydro 1 s 0.85
  #     hydro 2 p 3.7
  #     hydro 2 s 1.2
  #     hydro 3 d 7
  #  "Third tier" - improvements: -0.25 meV to -0.12 meV
  #     hydro 4 f 11.2
  #     hydro 3 p 4.8
  #     hydro 4 d 9
  #     hydro 3 s 3.2
  ################################################################################
  #
  #  FHI-aims code project
  #  VB, Fritz-Haber Institut, 2009
  #
  #  Suggested "light" defaults for C atom (to be pasted into control.in file)
  #  Be sure to double-check any results obtained with these settings for post-processing,
  #  e.g., with the "tight" defaults and larger basis sets.
  #
  ################################################################################
    species        C
  #     global species definitions
      nucleus             6
      mass                12.0107
  #
      l_hartree           4
  #
      cut_pot             3.5  1.5  1.0
      basis_dep_cutoff    1e-4
  #
      radial_base         34 5.0
      radial_multiplier   1
      angular_grids specified
        division   0.3326   50
        division   0.5710  110
        division   0.7727  194
        division   0.8772  302
  #      division   0.9334  434
  #      division   0.9625  590
  #      division   0.9924  770
  #      division   1.0230  974
  #      division   1.4589 1202
  #     outer_grid  974
       outer_grid 302
  ################################################################################
  #
  #  Definition of "minimal" basis
  #
  ################################################################################
  #     valence basis states
      valence      2  s   2.
      valence      2  p   2.
  #     ion occupancy
      ion_occ      2  s   1.
      ion_occ      2  p   1.
  ################################################################################
  #
  #  Suggested additional basis functions. For production calculations,
  #  uncomment them one after another (the most important basis functions are
  #  listed first).
  #
  #  Constructed for dimers: 1.0 A, 1.25 A, 1.5 A, 2.0 A, 3.0 A
  #
  ################################################################################
  #  "First tier" - improvements: -1214.57 meV to -155.61 meV
       hydro 2 p 1.7
       hydro 3 d 6
       hydro 2 s 4.9
  #  "Second tier" - improvements: -67.75 meV to -5.23 meV
  #     hydro 4 f 9.8
  #     hydro 3 p 5.2
  #     hydro 3 s 4.3
  #     hydro 5 g 14.4
  #     hydro 3 d 6.2
  #  "Third tier" - improvements: -2.43 meV to -0.60 meV
  #     hydro 2 p 5.6
  #     hydro 2 s 1.4
  #     hydro 3 d 4.9
  #     hydro 4 f 11.2
  #  "Fourth tier" - improvements: -0.39 meV to -0.18 meV
  #     hydro 2 p 2.1
  #     hydro 5 g 16.4
  #     hydro 4 d 13.2
  #     hydro 3 s 13.6
  #     hydro 4 f 17.6
  #  Further basis functions - improvements: -0.08 meV and below
  #     hydro 3 s 2
  #     hydro 3 p 6
  #     hydro 4 d 20
  ################################################################################
  #
  #  FHI-aims code project
  #  VB, Fritz-Haber Institut, 2009
  #
  #  Suggested "light" defaults for N atom (to be pasted into control.in file)
  #  Be sure to double-check any results obtained with these settings for post-processing,
  #  e.g., with the "tight" defaults and larger basis sets.
  #
  ################################################################################
    species        N
  #     global species definitions
      nucleus             7
      mass                14.0067
  #
      l_hartree           4
  #
      cut_pot             3.5  1.5  1.0
      basis_dep_cutoff    1e-4
  #
      radial_base         35 5.0
      radial_multiplier   1
      angular_grids       specified
        division   0.2599   50
        division   0.4601  110
        division   0.5885  194
        division   0.6503  302
  #      division   0.6939  434
  #      division   0.7396  590
  #      division   0.7632  770
  #      division   0.8122  974
  #      division   1.1604 1202
  #      outer_grid  974
        outer_grid  302
  ################################################################################
  #
  #  Definition of "minimal" basis
  #
  ################################################################################
  #     valence basis states
      valence      2  s   2.
      valence      2  p   3.
  #     ion occupancy
      ion_occ      2  s   1.
      ion_occ      2  p   2.
  ################################################################################
  #
  #  Suggested additional basis functions. For production calculations,
  #  uncomment them one after another (the most important basis functions are
  #  listed first).
  #
  #  Constructed for dimers: 1.0 A, 1.1 A, 1.5 A, 2.0 A, 3.0 A
  #
  ################################################################################
  #  "First tier" - improvements: -1193.42 meV to -220.60 meV
       hydro 2 p 1.8
       hydro 3 d 6.8
       hydro 3 s 5.8
  #  "Second tier" - improvements: -80.21 meV to -6.86 meV
  #     hydro 4 f 10.8
  #     hydro 3 p 5.8
  #     hydro 1 s 0.8
  #     hydro 5 g 16
  #     hydro 3 d 4.9
  #  "Third tier" - improvements: -4.29 meV to -0.53 meV
  #     hydro 3 s 16
  #     ionic 2 p auto
  #     hydro 3 d 6.6
  #     hydro 4 f 11.6
  #  "Fourth tier" - improvements: -0.75 meV to -0.25 meV
  #     hydro 2 p 4.5
  #     hydro 2 s 2.4
  #     hydro 5 g 14.4
  #     hydro 4 d 14.4
  #     hydro 4 f 16.8
  # Further basis functions - -0.21 meV and below
  #     hydro 3 p 14.8
  #     hydro 3 s 4.4
  #     hydro 3 d 19.6
  #     hydro 5 g 12.8
  ################################################################################
  #
  #  FHI-aims code project
  #  VB, Fritz-Haber Institut, 2009
  #
  #  Suggested "light" defaults for O atom (to be pasted into control.in file)
  #  Be sure to double-check any results obtained with these settings for post-processing,
  #  e.g., with the "tight" defaults and larger basis sets.
  #
  ################################################################################
    species        O
  #     global species definitions
      nucleus             8
      mass                15.9994
  #
      l_hartree           4
  #
      cut_pot             3.5  1.5  1.0
      basis_dep_cutoff    1e-4
  #
      radial_base         36 5.0
      radial_multiplier   1
       angular_grids specified
        division   0.2659   50
        division   0.4451  110
        division   0.6052  194
        division   0.7543  302
  #      division   0.8014  434
  #      division   0.8507  590
  #      division   0.8762  770
  #      division   0.9023  974
  #      division   1.2339 1202
  #      outer_grid 974
        outer_grid 302
  ################################################################################
  #
  #  Definition of "minimal" basis
  #
  ################################################################################
  #     valence basis states
      valence      2  s   2.
      valence      2  p   4.
  #     ion occupancy
      ion_occ      2  s   1.
      ion_occ      2  p   3.
  ################################################################################
  #
  #  Suggested additional basis functions. For production calculations,
  #  uncomment them one after another (the most important basis functions are
  #  listed first).
  #
  #  Constructed for dimers: 1.0 A, 1.208 A, 1.5 A, 2.0 A, 3.0 A
  #
  ################################################################################
  #  "First tier" - improvements: -699.05 meV to -159.38 meV
       hydro 2 p 1.8
       hydro 3 d 7.6
       hydro 3 s 6.4
  #  "Second tier" - improvements: -49.91 meV to -5.39 meV
  #     hydro 4 f 11.6
  #     hydro 3 p 6.2
  #     hydro 3 d 5.6
  #     hydro 5 g 17.6
  #     hydro 1 s 0.75
  #  "Third tier" - improvements: -2.83 meV to -0.50 meV
  #     ionic 2 p auto
  #     hydro 4 f 10.8
  #     hydro 4 d 4.7
  #     hydro 2 s 6.8
  #  "Fourth tier" - improvements: -0.40 meV to -0.12 meV
  #     hydro 3 p 5
  #     hydro 3 s 3.3
  #     hydro 5 g 15.6
  #     hydro 4 f 17.6
  #     hydro 4 d 14
  # Further basis functions - -0.08 meV and below
  #     hydro 3 s 2.1
  #     hydro 4 d 11.6
  #     hydro 3 p 16
  #     hydro 2 s 17.2
  
  -----------------------------------------------------------------------
  Completed first pass over input file control.in .
  -----------------------------------------------------------------------
  
  
  -----------------------------------------------------------------------
  Parsing geometry.in (first pass over file, find array dimensions only).
  The contents of geometry.in will be repeated verbatim below
  unless switched off by setting 'verbatim_writeout .false.' .
  in the first line of geometry.in .
  -----------------------------------------------------------------------
  
  atom  0.00000 0.00000 0.00000 C
  atom  1.09300 0.00000 0.00000 H
  atom  -0.47961 0.00000 -1.41207 N
  atom  0.06759 0.67833 -1.94336 H
  atom  -0.35537 -0.93307 -1.79947 H
  atom  -0.49584 1.26211 0.72868 C
  atom  -1.58789 1.28919 0.74431 H
  atom  -0.13407 1.27425 1.75947 H
  atom  -0.13407 2.16087 0.22380 H
  atom  -0.39425 -1.28861 0.74398 C
  atom  -0.10189 -1.56493 1.88303 O
  atom  -1.10210 -2.13717 0.06896 O
  atom  -1.25973 -1.59348 -0.72131 H
  
  -----------------------------------------------------------------------
  Completed first pass over input file geometry.in .
  -----------------------------------------------------------------------
  

  Basic array size parameters:
  | Number of species                 :        4
  | Number of atoms                   :       13
  | Max. basis fn. angular momentum   :        2
  | Max. atomic/ionic basis occupied n:        2
  | Max. number of basis fn. types    :        2
  | Max. radial fns per species/type  :        3
  | Max. logarithmic grid size        :     1301
  | Max. radial integration grid size :       36
  | Max. angular integration grid size:      302
  | Max. angular grid division number :        8
  | Radial grid for Hartree potential :     1301
  | Number of spin channels           :        1

------------------------------------------------------------
          Reading file control.in.
------------------------------------------------------------
  XC: Using PBE gradient-corrected functionals.
  Spin treatment: No spin polarisation.
  Non-relativistic treatment of kinetic energy.
  Charge =   0.000000E+00: Neutral system requested explicitly.
  Occupation type: Gaussian broadening, width =   0.100000E-01 eV.
  Using pulay charge density mixing.
  Pulay mixing - number of memorized iterations:   10
  Charge density mixing - mixing parameter:     0.2000
  Convergence accuracy of self-consistent charge density:  0.1000E-04
  Convergence accuracy of sum of eigenvalues:  0.1000E-02
  Convergence accuracy of total energy:  0.1000E-05
  Convergence accuracy of forces:  0.1000E-03
  Maximum number of s.-c. iterations  :   100
 
  Reading configuration options for species H                   .
  | Found nuclear charge :   1.0000
  | Found atomic mass :    1.00794000000000      amu
  | Found l_max for Hartree potential  :   4
  | Found cutoff potl. onset [A], width [A], scale factor :    3.50000    1.50000    1.00000
  | Threshold for basis-dependent cutoff potential is   0.100000E-03
  | Found data for basic radial integration grid :    24 points, outermost radius =    5.000 A
  | Found multiplier for basic radial grid :   1
  | Found angular grid specification: user-specified.
  | Specified grid contains     5 separate shells.
  | Check grid settings after all constraints further below.
  | Found free-atom valence shell :  1 s   1.000
  | No ionic wave fns used. Skipping ion_occ.
  | Found hydrogenic basis function :  2 s   2.100
  | Found hydrogenic basis function :  2 p   3.500
  Species H                   : Missing cutoff potential type.
  Defaulting to exp(1/x)/(1-x)^2 type cutoff potential.
  Species H : No 'logarithmic' tag. Using default grid for free atom:
  | Default logarithmic grid data [bohr] : 0.1000E-03 0.1000E+03 0.1012E+01
  Species H : On-site basis accuracy parameter (for Gram-Schmidt orthonormalisation) not specified.
  Using default value basis_acc =  0.1000000E-03.
  Species H                   : Using default innermost maximum threshold i_radial=  2 for radial functions.
  Species H                   : Default cutoff onset for free atom density etc. : 0.35000000E+01 AA.
  Species H                   : Basic radial grid will be enhanced according to radial_multiplier =   1, to contain    24 grid points.
 
  Reading configuration options for species C                   .
  | Found nuclear charge :   6.0000
  | Found atomic mass :    12.0107000000000      amu
  | Found l_max for Hartree potential  :   4
  | Found cutoff potl. onset [A], width [A], scale factor :    3.50000    1.50000    1.00000
  | Threshold for basis-dependent cutoff potential is   0.100000E-03
  | Found data for basic radial integration grid :    34 points, outermost radius =    5.000 A
  | Found multiplier for basic radial grid :   1
  | Found angular grid specification: user-specified.
  | Specified grid contains     5 separate shells.
  | Check grid settings after all constraints further below.
  | Found free-atom valence shell :  2 s   2.000
  | Found free-atom valence shell :  2 p   2.000
  | No ionic wave fns used. Skipping ion_occ.
  | No ionic wave fns used. Skipping ion_occ.
  | Found hydrogenic basis function :  2 p   1.700
  | Found hydrogenic basis function :  3 d   6.000
  | Found hydrogenic basis function :  2 s   4.900
  Species C                   : Missing cutoff potential type.
  Defaulting to exp(1/x)/(1-x)^2 type cutoff potential.
  Species C : No 'logarithmic' tag. Using default grid for free atom:
  | Default logarithmic grid data [bohr] : 0.1000E-03 0.1000E+03 0.1012E+01
  Species C : On-site basis accuracy parameter (for Gram-Schmidt orthonormalisation) not specified.
  Using default value basis_acc =  0.1000000E-03.
  Species C                   : Using default innermost maximum threshold i_radial=  2 for radial functions.
  Species C                   : Default cutoff onset for free atom density etc. : 0.35000000E+01 AA.
  Species C                   : Basic radial grid will be enhanced according to radial_multiplier =   1, to contain    34 grid points.
 
  Reading configuration options for species N                   .
  | Found nuclear charge :   7.0000
  | Found atomic mass :    14.0067000000000      amu
  | Found l_max for Hartree potential  :   4
  | Found cutoff potl. onset [A], width [A], scale factor :    3.50000    1.50000    1.00000
  | Threshold for basis-dependent cutoff potential is   0.100000E-03
  | Found data for basic radial integration grid :    35 points, outermost radius =    5.000 A
  | Found multiplier for basic radial grid :   1
  | Found angular grid specification: user-specified.
  | Specified grid contains     5 separate shells.
  | Check grid settings after all constraints further below.
  | Found free-atom valence shell :  2 s   2.000
  | Found free-atom valence shell :  2 p   3.000
  | No ionic wave fns used. Skipping ion_occ.
  | No ionic wave fns used. Skipping ion_occ.
  | Found hydrogenic basis function :  2 p   1.800
  | Found hydrogenic basis function :  3 d   6.800
  | Found hydrogenic basis function :  3 s   5.800
  Species N                   : Missing cutoff potential type.
  Defaulting to exp(1/x)/(1-x)^2 type cutoff potential.
  Species N : No 'logarithmic' tag. Using default grid for free atom:
  | Default logarithmic grid data [bohr] : 0.1000E-03 0.1000E+03 0.1012E+01
  Species N : On-site basis accuracy parameter (for Gram-Schmidt orthonormalisation) not specified.
  Using default value basis_acc =  0.1000000E-03.
  Species N                   : Using default innermost maximum threshold i_radial=  2 for radial functions.
  Species N                   : Default cutoff onset for free atom density etc. : 0.35000000E+01 AA.
  Species N                   : Basic radial grid will be enhanced according to radial_multiplier =   1, to contain    35 grid points.
 
  Reading configuration options for species O                   .
  | Found nuclear charge :   8.0000
  | Found atomic mass :    15.9994000000000      amu
  | Found l_max for Hartree potential  :   4
  | Found cutoff potl. onset [A], width [A], scale factor :    3.50000    1.50000    1.00000
  | Threshold for basis-dependent cutoff potential is   0.100000E-03
  | Found data for basic radial integration grid :    36 points, outermost radius =    5.000 A
  | Found multiplier for basic radial grid :   1
  | Found angular grid specification: user-specified.
  | Specified grid contains     5 separate shells.
  | Check grid settings after all constraints further below.
  | Found free-atom valence shell :  2 s   2.000
  | Found free-atom valence shell :  2 p   4.000
  | No ionic wave fns used. Skipping ion_occ.
  | No ionic wave fns used. Skipping ion_occ.
  | Found hydrogenic basis function :  2 p   1.800
  | Found hydrogenic basis function :  3 d   7.600
  | Found hydrogenic basis function :  3 s   6.400
  Species O                   : Missing cutoff potential type.
  Defaulting to exp(1/x)/(1-x)^2 type cutoff potential.
  Species O : No 'logarithmic' tag. Using default grid for free atom:
  | Default logarithmic grid data [bohr] : 0.1000E-03 0.1000E+03 0.1012E+01
  Species O : On-site basis accuracy parameter (for Gram-Schmidt orthonormalisation) not specified.
  Using default value basis_acc =  0.1000000E-03.
  Species O                   : Using default innermost maximum threshold i_radial=  2 for radial functions.
  Species O                   : Default cutoff onset for free atom density etc. : 0.35000000E+01 AA.
  Species O                   : Basic radial grid will be enhanced according to radial_multiplier =   1, to contain    36 grid points.
 
  Finished reading input file 'control.in'. Consistency checks are next.
 
  MPI_IN_PLACE appears to work with this MPI implementation.
  | Keeping use_mpi_in_place .true. (see manual).
  Target number of points in a grid batch is not set. Defaulting to  100
  Method for grid partitioning is not set. Defaulting to parallel hash+maxmin partitioning.
  Batch size limit is not set. Defaulting to    200
  By default, will store active basis functions for each batch.
  If in need of memory, prune_basis_once .false. can be used to disable this option.
  communication_type for Hartree potential was not specified.
  Defaulting to calc_hartree .
  Pulay mixer: Number of initial linear mixing iterations not set.
  Defaulting to    0 iterations.
  Work space size for distributed Hartree potential not set.
  Defaulting to   0.200000E+03 MB.
  Algorithm-dependent basis array size parameters:
  | n_max_pulay                         :       10
  Presetting      1001 iterations before the initial mixing cycle
  is restarted anyway using the sc_init_iter criterion / keyword.
  Presetting a factor      1.000 between actual scf density residual
  and density convergence criterion sc_accuracy_rho below which sc_init_iter
  takes no effect.
  Geometry relaxation not requested: no relaxation will be performed.
  Handling of forces: Unphysical translation and rotation will be removed from forces.
  No accuracy limit for integral partition fn. given. Defaulting to  0.1000E-14.
  No threshold value for u(r) in integrations given. Defaulting to  0.1000E-05.
  No accuracy for occupation numbers given. Defaulting to  0.1000E-12.
  No threshold value for occupation numbers given. Defaulting to  0.0000E+00.
  No accuracy for fermi level given. Defaulting to  0.1000E-19.
  Maximum # of iterations to find E_F not set. Defaulting to  200.
  Preferred method for the eigenvalue solver ('KS_method') not specified in 'control.in'.
  Defaulting to serial version, 'lapack_fast'.
  Will not use alltoall communication since running on < 1024 CPUs.
  Threshold for basis singularities not set.
  Default threshold for basis singularities:  0.1000E-04
  partition_type (choice of integration weights) for integrals was not specified.
  | Using a version of the partition function of Stratmann and coworkers ('stratmann_smoother').
  | At each grid point, the set of atoms used to build the partition table is smoothly restricted to
  | only those atoms whose free-atom density would be non-zero at that grid point.
  Partitioning for Hartree potential was not defined. Using partition_type for integrals.
  | Adjusted default value of keyword multip_moments_threshold to:       0.10000000E-11
  | This value may affect high angular momentum components of the Hartree potential in periodic systems.
  No q(lm)/r^(l+1) cutoff set for long-range Hartree potential.
  | Using default value of  0.100000E-09 .
  | Verify using the multipole_threshold keyword.
  Defaulting to new monopole extrapolation.
  Density update method: automatic selection selected.
------------------------------------------------------------


------------------------------------------------------------
          Reading geometry description geometry.in.
------------------------------------------------------------
  Input structure read successfully.
  The structure contains       13 atoms,  and a total of         48.000 electrons.

  Input geometry:
  | No unit cell requested.
  | Atomic structure:
  |       Atom                x [A]            y [A]            z [A]
  |    1: Species C             0.00000000        0.00000000        0.00000000
  |    2: Species H             1.09300000        0.00000000        0.00000000
  |    3: Species N            -0.47961000        0.00000000       -1.41207000
  |    4: Species H             0.06759000        0.67833000       -1.94336000
  |    5: Species H            -0.35537000       -0.93307000       -1.79947000
  |    6: Species C            -0.49584000        1.26211000        0.72868000
  |    7: Species H            -1.58789000        1.28919000        0.74431000
  |    8: Species H            -0.13407000        1.27425000        1.75947000
  |    9: Species H            -0.13407000        2.16087000        0.22380000
  |   10: Species C            -0.39425000       -1.28861000        0.74398000
  |   11: Species O            -0.10189000       -1.56493000        1.88303000
  |   12: Species O            -1.10210000       -2.13717000        0.06896000
  |   13: Species H            -1.25973000       -1.59348000       -0.72131000
  |

  | The smallest distance between any two atoms is         0.97209707 AA.
  |
  | The first atom of this pair is atom number                     12 .
  | The second atom of this pair is atom number                    13 .

  Number of empty states per atom not set in control.in - providing a guess from actual geometry.
  | Total number of empty states used during s.c.f. cycle:       29
  If you use a very high smearing, use empty_states (per atom!) in control.in to increase this value.

  Structure-dependent array size parameters: 
  | Maximum number of distinct radial functions  :       21
  | Maximum number of basis functions            :      119
  | Number of Kohn-Sham states (occupied + empty):       53
------------------------------------------------------------

------------------------------------------------------------
          Preparing all fixed parts of the calculation.
------------------------------------------------------------
  Determining machine precision:
    2.225073858507201E-308
  Setting up grids for atomic and cluster calculations.

  Creating wave function, potential, and density for free atoms.

  Species: H

  List of occupied orbitals and eigenvalues:
    n    l              occ      energy [Ha]    energy [eV]
    1    0           1.0000        -0.237589        -6.4651


  Species: C

  List of occupied orbitals and eigenvalues:
    n    l              occ      energy [Ha]    energy [eV]
    1    0           2.0000       -10.038835      -273.1706
    2    0           2.0000        -0.502696       -13.6791
    2    1           2.0000        -0.191971        -5.2238


  Species: N

  List of occupied orbitals and eigenvalues:
    n    l              occ      energy [Ha]    energy [eV]
    1    0           2.0000       -14.128000      -384.4424
    2    0           2.0000        -0.681077       -18.5330
    2    1           3.0000        -0.259788        -7.0692


  Species: O

  List of occupied orbitals and eigenvalues:
    n    l              occ      energy [Ha]    energy [eV]
    1    0           2.0000       -18.898188      -514.2459
    2    0           2.0000        -0.878505       -23.9053
    2    1           4.0000        -0.331779        -9.0282

  Creating fixed part of basis set: Ionic, confined, hydrogenic.
 
  H                    hydrogenic:
 
  List of hydrogenic basis orbitals: 
    n    l      effective z      eigenvalue [eV]  inner max. [A]     outer max. [A]     outer radius [A]   
    2    0         2.100000       -14.9728           0.193243           1.317208           4.583499
    2    1         3.500000       -41.6669           0.602369           0.602369           3.723403
 
 
  C                    hydrogenic:
 
  List of hydrogenic basis orbitals: 
    n    l      effective z      eigenvalue [eV]  inner max. [A]     outer max. [A]     outer radius [A]   
    2    1         1.700000        -9.7616           1.230570           1.230570           4.607917
    3    2         6.000000       -54.4224           0.792453           0.792453           3.883070
    2    0         4.900000       -81.6679           0.082559           0.562749           3.078220
 
 
  N                    hydrogenic:
 
  List of hydrogenic basis orbitals: 
    n    l      effective z      eigenvalue [eV]  inner max. [A]     outer max. [A]     outer radius [A]   
    2    1         1.800000       -10.9749           1.177451           1.177451           4.573712
    3    2         6.800000       -69.9026           0.704619           0.704619           3.538137
    3    0         5.800000       -50.8545           0.067388           1.191934           4.250239
 
 
  O                    hydrogenic:
 
  List of hydrogenic basis orbitals: 
    n    l      effective z      eigenvalue [eV]  inner max. [A]     outer max. [A]     outer radius [A]   
    2    1         1.800000       -10.9749           1.164242           1.164242           4.578029
    3    2         7.600000       -87.3180           0.624125           0.624125           3.251020
    3    0         6.400000       -61.9207           0.061167           1.081902           4.001998
 

  Adding cutoff potential to free-atom effective potential.
  Creating atomic-like basis functions for current effective potential.

  Species H                   :

  List of atomic basis orbitals and eigenvalues:
    n    l      energy [Ha]    energy [eV]    outer radius [A]
    1    0        -0.237589        -6.4651       4.527807


  Species C                   :

  List of atomic basis orbitals and eigenvalues:
    n    l      energy [Ha]    energy [eV]    outer radius [A]
    1    0       -10.038835      -273.1706       1.934409
    2    0        -0.502696       -13.6791       4.496620
    2    1        -0.191971        -5.2238       4.551928


  Species N                   :

  List of atomic basis orbitals and eigenvalues:
    n    l      energy [Ha]    energy [eV]    outer radius [A]
    1    0       -14.128000      -384.4424       1.637919
    2    0        -0.681077       -18.5330       4.463241
    2    1        -0.259788        -7.0692       4.518138


  Species O                   :

  List of atomic basis orbitals and eigenvalues:
    n    l      energy [Ha]    energy [eV]    outer radius [A]
    1    0       -18.898188      -514.2459       1.415765
    2    0        -0.878505       -23.9053       4.413171
    2    1        -0.331779        -9.0282       4.522403

  Assembling full basis from fixed parts.
  | Species H :   atomic orbital   1 s accepted.
  | Species H :    hydro orbital   2 s accepted.
  | Species H :    hydro orbital   2 p accepted.
  | Species C :   atomic orbital   1 s accepted.
  | Species C :    hydro orbital   2 s accepted.
  | Species C :   atomic orbital   2 s accepted.
  | Species C :   atomic orbital   2 p accepted.
  | Species C :    hydro orbital   2 p accepted.
  | Species C :    hydro orbital   3 d accepted.
  | Species N :   atomic orbital   1 s accepted.
  | Species N :    hydro orbital   3 s accepted.
  | Species N :   atomic orbital   2 s accepted.
  | Species N :   atomic orbital   2 p accepted.
  | Species N :    hydro orbital   2 p accepted.
  | Species N :    hydro orbital   3 d accepted.
  | Species O :   atomic orbital   1 s accepted.
  | Species O :    hydro orbital   3 s accepted.
  | Species O :   atomic orbital   2 s accepted.
  | Species O :   atomic orbital   2 p accepted.
  | Species O :    hydro orbital   2 p accepted.
  | Species O :    hydro orbital   3 d accepted.
 
  Basis size parameters after reduction:
  | Total number of radial functions:       21
  | Total number of basis functions :      119
 
  Per-task memory consumption for arrays in subroutine allocate_ext:
  |           5.250512MB.
  Testing on-site integration grid accuracy.
  |  Species  Function  <phi|h_atom|phi> (log., in eV)  <phi|h_atom|phi> (rad., in eV)
           1        1                 -6.4663192853                 -6.4651273558
           1        2                 13.7111246313                 13.7170609718
           1        3                 25.2673269279                 25.2674696378
           2        4               -273.1705927641               -273.1705631568
           2        5                -10.7109323383                -10.7107120029
           2        6                 17.4381822266                 17.4352413244
           2        7                 -5.2255326521                 -5.2270484734
           2        8                  8.6835629259                  8.6603288385
           2        9                 27.4952418996                 27.4953360207
           3       10               -384.4424306495               -384.4423701208
           3       11                 12.5842251816                 12.5842222903
           3       12                -15.7264628251                -15.7264433455
           3       13                 -7.0696854293                 -7.0701769954
           3       14                  8.8090390882                  8.7901077751
           3       15                 35.9586762123                 35.9588528632
           4       16               -514.2458688638               -514.2457643834
           4       17                 15.1795651126                 15.1795290741
           4       18                -21.5359799773                -21.5360846186
           4       19                 -9.0283069236                 -9.0284644067
           4       20                  8.3027758564                  8.2834874195
           4       21                 45.8339351984                 45.8338762259

  Preparing densities etc. for the partition functions (integrals / Hartree potential).

  Preparations completed.
  max(cpu_time)          :      0.151 s.
  Wall clock time (cpu1) :      0.152 s.
------------------------------------------------------------

------------------------------------------------------------
          Begin self-consistency loop: Initialization.

          Date     :  20200801, Time     :  170011.324
------------------------------------------------------------

  Initializing index lists of integration centers etc. from given atomic structure:
  | Number of centers in hartree potential         :        13
  | Number of centers in hartree multipole         :        13
  | Number of centers in electron density summation:        13
  | Number of centers in basis integrals           :        13
  | Number of centers in integrals                 :        13
  | Number of centers in hamiltonian               :        13
  Partitioning the integration grid into batches with parallel hashing+maxmin method.
  | Number of batches:      959
  | Maximal batch size:     139
  | Minimal batch size:      66
  | Average batch size:      72.624
  | Standard deviation of batch sizes:      17.157

  Integration load balanced across     1 MPI tasks.
  Work distribution over tasks is as follows:
  Task     0 has      69646 integration points.
  Initializing partition tables, free-atom densities, potentials, etc. across the integration grid (initialize_grid_storage).
  | initialize_grid_storage: Actual outermost partition radius vs. multipole_radius_free
  | (-- VB: in principle, multipole_radius_free should be larger, hence this output)
  | Species        1: Confinement radius =              4.999999999999999 AA, multipole_radius_free =              5.054417573612229 AA.
  | Species        1: outer_partition_radius set to              5.054417573612229 AA .
  | Species        2: Confinement radius =              4.999999999999999 AA, multipole_radius_free =              5.019602836301480 AA.
  | Species        2: outer_partition_radius set to              5.019602836301480 AA .
  | Species        3: Confinement radius =              4.999999999999999 AA, multipole_radius_free =              5.043624274424571 AA.
  | Species        3: outer_partition_radius set to              5.043624274424571 AA .
  | Species        4: Confinement radius =              4.999999999999999 AA, multipole_radius_free =              5.048384829883283 AA.
  | Species        4: outer_partition_radius set to              5.048384829883283 AA .
  | Original list of interatomic distances with          13 x         13 entries is created.
  | Net number of integration points:    69646
  | of which are non-zero points    :    59397
  Renormalizing the initial density to the exact electron count on the 3D integration grid.
  | Initial density: Formal number of electrons (from input files) :      48.0000000000
  | Integrated number of electrons on 3D grid     :      47.9999261972
  | Charge integration error                      :      -0.0000738028
  | Normalization factor for density and gradient :       1.0000015376
  Obtaining max. number of non-zero basis functions in each batch (get_n_compute_maxes).
  | Maximal number of non-zero basis functions:      119 in task     0
  Selecting the method for density update.
  Loop over occupied states selected for charge density update.
  Allocating        0.050 MB for KS_eigenvector
  Integrating Hamiltonian matrix: batch-based integration.
  Time summed over all CPUs for integration: real work        0.504 s, elapsed        0.504 s
  Integrating overlap matrix.
  Time summed over all CPUs for integration: real work        0.219 s, elapsed        0.219 s

  Updating Kohn-Sham eigenvalues and eigenvectors using ELSI and the ELPA eigensolver.
  Overlap matrix is nonsingular
  | Lowest eigenvalue of overlap  :  0.45E-02
  | Highest eigenvalue of overlap :  0.63E+01
  Finished singularity check of overlap matrix
  | Time :     0.002 s
  Finished Cholesky decomposition
  | Time :     0.000 s
  Finished transformation to standard eigenproblem
  | Time :     0.000 s
  Starting LAPACK eigensolver
  Finished solving standard eigenproblem
  | Time :     0.002 s
  Finished back-transformation of eigenvectors
  | Time :     0.000 s

  Obtaining occupation numbers and chemical potential using ELSI.
  | Chemical potential (Fermi level):    -8.93123192eV
  Writing Kohn-Sham eigenvalues.

  State    Occupation    Eigenvalue [Ha]    Eigenvalue [eV]
      1       2.00000         -19.007873         -517.23055
      2       2.00000         -18.977118         -516.39365
      3       2.00000         -14.247720         -387.70019
      4       2.00000         -10.166638         -276.64829
      5       2.00000         -10.142033         -275.97875
      6       2.00000         -10.132037         -275.70677
      7       2.00000          -1.182452          -32.17616
      8       2.00000          -1.102292          -29.99489
      9       2.00000          -0.994136          -27.05183
     10       2.00000          -0.862222          -23.46226
     11       2.00000          -0.752353          -20.47257
     12       2.00000          -0.683190          -18.59055
     13       2.00000          -0.647519          -17.61989
     14       2.00000          -0.604099          -16.43836
     15       2.00000          -0.583916          -15.88916
     16       2.00000          -0.559221          -15.21719
     17       2.00000          -0.549394          -14.94977
     18       2.00000          -0.531754          -14.46975
     19       2.00000          -0.515235          -14.02025
     20       2.00000          -0.502586          -13.67606
     21       2.00000          -0.479044          -13.03546
     22       2.00000          -0.430347          -11.71035
     23       2.00000          -0.402735          -10.95899
     24       2.00000          -0.391426          -10.65124
     25       0.00000          -0.148246           -4.03399
     26       0.00000          -0.069334           -1.88667
     27       0.00000          -0.029168           -0.79371
     28       0.00000          -0.012589           -0.34257
     29       0.00000           0.000618            0.01680
     30       0.00000           0.014509            0.39481
     31       0.00000           0.017435            0.47444
     32       0.00000           0.042402            1.15382
     33       0.00000           0.054708            1.48868
     34       0.00000           0.056331            1.53284
     35       0.00000           0.075445            2.05297
     36       0.00000           0.131164            3.56914
     37       0.00000           0.173467            4.72028
     38       0.00000           0.201688            5.48822
     39       0.00000           0.212945            5.79453
     40       0.00000           0.223873            6.09190
     41       0.00000           0.229540            6.24611
     42       0.00000           0.258887            7.04468
     43       0.00000           0.285933            7.78064
     44       0.00000           0.301881            8.21459
     45       0.00000           0.348745            9.48984
     46       0.00000           0.361349            9.83280
     47       0.00000           0.380775           10.36141
     48       0.00000           0.416090           11.32237
     49       0.00000           0.421599           11.47230
     50       0.00000           0.451841           12.29522
     51       0.00000           0.523928           14.25680
     52       0.00000           0.554285           15.08286
     53       0.00000           0.590455           16.06710

  Highest occupied state (VBM) at    -10.65123868 eV
  | Occupation number:      2.00000000

  Lowest unoccupied state (CBM) at    -4.03398705 eV
  | Occupation number:      0.00000000

  Overall HOMO-LUMO gap:      6.61725163 eV.
  Calculating total energy contributions from superposition of free atom densities.

  Total energy components:
  | Sum of eigenvalues            :        -188.89468306 Ha       -5140.08585080 eV
  | XC energy correction          :         -41.81077204 Ha       -1137.72899411 eV
  | XC potential correction       :          53.75027635 Ha        1462.61943663 eV
  | Free-atom electrostatic energy:        -146.80319409 Ha       -3994.71816011 eV
  | Hartree energy correction     :           0.00000000 Ha           0.00000000 eV
  | vdW energy correction         :           0.00000000 Ha           0.00000000 eV
  | Entropy correction            :           0.00000000 Ha           0.00000000 eV
  | ---------------------------
  | Total energy                  :        -323.75837284 Ha       -8809.91356839 eV
  | Total energy, T -> 0          :        -323.75837284 Ha       -8809.91356839 eV  <-- do not rely on this value for anything but (periodic) metals
  | Electronic free energy        :        -323.75837284 Ha       -8809.91356839 eV

  Derived energy quantities:
  | Kinetic energy                :         320.54328449 Ha        8722.42656310 eV
  | Electrostatic energy          :        -602.49088529 Ha      -16394.61113738 eV
  | Energy correction for multipole
  | error in Hartree potential    :           0.00000000 Ha           0.00000000 eV
  | Sum of eigenvalues per atom                           :        -395.39121929 eV
  | Total energy (T->0) per atom                          :        -677.68565911 eV  <-- do not rely on this value for anything but (periodic) metals
  | Electronic free energy per atom                       :        -677.68565911 eV
  Initialize hartree_potential_storage
  Max. number of atoms included in rho_multipole:           13

  End scf initialization - timings             :  max(cpu_time)    wall_clock(cpu1)
  | Time for scf. initialization               :        1.175 s           1.177 s
  | Boundary condition initialization          :        0.000 s           0.001 s
  | Integration                                :        0.723 s           0.724 s
  | Solution of K.-S. eqns.                    :        0.004 s           0.004 s
  | Grid partitioning                          :        0.113 s           0.113 s
  | Preloading free-atom quantities on grid    :        0.002 s           0.002 s
  | Free-atom superposition energy             :        0.086 s           0.086 s
  | Total energy evaluation                    :        0.000 s           0.000 s

  Partial memory accounting:
  | Current value for overall tracked memory usage on task 0  :           0.165 MB
  | Peak value for overall tracked memory usage on task 0     :           0.678 MB after allocating wave
  | Largest tracked array allocation on task 0 so far         :           0.132 MB  when allocating H_times_psi
  Note:  These values currently only include a subset of arrays which are explicitly tracked.
  The "true" memory usage will be greater.
------------------------------------------------------------

------------------------------------------------------------
          Begin self-consistency iteration #    1

  Date     :  20200801, Time     :  170012.502
------------------------------------------------------------
  Evaluating new KS density.
  Integration grid: deviation in total charge (<rho> - N_e) =  -1.421085E-14
  Pulay mixing of updated and previous charge densities.

  Evaluating partitioned Hartree potential by multipole expansion.
  | Analytical far-field extrapolation by fixed multipoles:
  | Hartree multipole sum: apparent total charge =  -0.177248E-03
  Summing up the Hartree potential.
  Time summed over all CPUs for potential: real work        0.284 s, elapsed        0.284 s
  | RMS charge density error from multipole expansion :   0.590747E-02

  Integrating Hamiltonian matrix: batch-based integration.
  Time summed over all CPUs for integration: real work        0.493 s, elapsed        0.493 s

  Updating Kohn-Sham eigenvalues and eigenvectors using ELSI and the ELPA eigensolver.
  Finished Cholesky decomposition
  | Time :     0.000 s
  Finished transformation to standard eigenproblem
  | Time :     0.000 s
  Starting LAPACK eigensolver
  Finished solving standard eigenproblem
  | Time :     0.001 s
  Finished back-transformation of eigenvectors
  | Time :     0.000 s

  Obtaining occupation numbers and chemical potential using ELSI.
  | Chemical potential (Fermi level):    -7.92634508eV
  Writing Kohn-Sham eigenvalues.

  State    Occupation    Eigenvalue [Ha]    Eigenvalue [eV]
      1       2.00000         -18.909886         -514.56418
      2       2.00000         -18.829200         -512.36861
      3       2.00000         -14.112613         -384.02374
      4       2.00000         -10.114306         -275.22426
      5       2.00000         -10.068852         -273.98741
      6       2.00000         -10.031862         -272.98086
      7       2.00000          -1.134482          -30.87084
      8       2.00000          -1.036094          -28.19354
      9       2.00000          -0.934152          -25.41957
     10       2.00000          -0.799829          -21.76445
     11       2.00000          -0.701681          -19.09372
     12       2.00000          -0.640186          -17.42036
     13       2.00000          -0.597452          -16.25749
     14       2.00000          -0.548707          -14.93107
     15       2.00000          -0.531827          -14.47175
     16       2.00000          -0.499354          -13.58812
     17       2.00000          -0.488072          -13.28112
     18       2.00000          -0.476018          -12.95310
     19       2.00000          -0.453114          -12.32987
     20       2.00000          -0.446345          -12.14567
     21       2.00000          -0.425063          -11.56655
     22       2.00000          -0.367083           -9.98884
     23       2.00000          -0.330489           -8.99306
     24       2.00000          -0.326027           -8.87165
     25       0.00000          -0.109761           -2.98674
     26       0.00000          -0.048620           -1.32301
     27       0.00000           0.009228            0.25112
     28       0.00000           0.017408            0.47370
     29       0.00000           0.035143            0.95630
     30       0.00000           0.042796            1.16453
     31       0.00000           0.053720            1.46180
     32       0.00000           0.081374            2.21430
     33       0.00000           0.083291            2.26646
     34       0.00000           0.092388            2.51402
     35       0.00000           0.111377            3.03072
     36       0.00000           0.160040            4.35491
     37       0.00000           0.199847            5.43810
     38       0.00000           0.233411            6.35144
     39       0.00000           0.246605            6.71045
     40       0.00000           0.248477            6.76140
     41       0.00000           0.261652            7.11991
     42       0.00000           0.290817            7.91354
     43       0.00000           0.321612            8.75150
     44       0.00000           0.341174            9.28381
     45       0.00000           0.388521           10.57220
     46       0.00000           0.399746           10.87765
     47       0.00000           0.417156           11.35140
     48       0.00000           0.450789           12.26658
     49       0.00000           0.455468           12.39391
     50       0.00000           0.485966           13.22380
     51       0.00000           0.557851           15.17989
     52       0.00000           0.585361           15.92850
     53       0.00000           0.624381           16.99027

  Highest occupied state (VBM) at     -8.87164704 eV
  | Occupation number:      2.00000000

  Lowest unoccupied state (CBM) at    -2.98674028 eV
  | Occupation number:      0.00000000

  Overall HOMO-LUMO gap:      5.88490676 eV.

  Total energy components:
  | Sum of eigenvalues            :        -185.60539108 Ha       -5050.57966209 eV
  | XC energy correction          :         -42.13209398 Ha       -1146.47260900 eV
  | XC potential correction       :          54.16805818 Ha        1473.98785864 eV
  | Free-atom electrostatic energy:        -146.80319409 Ha       -3994.71816011 eV
  | Hartree energy correction     :          -3.21035773 Ha         -87.35827845 eV
  | vdW energy correction         :           0.00000000 Ha           0.00000000 eV
  | Entropy correction            :           0.00000000 Ha           0.00000000 eV
  | ---------------------------
  | Total energy                  :        -323.58297870 Ha       -8805.14085101 eV
  | Total energy, T -> 0          :        -323.58297870 Ha       -8805.14085101 eV  <-- do not rely on this value for anything but (periodic) metals
  | Electronic free energy        :        -323.58297870 Ha       -8805.14085101 eV

  Derived energy quantities:
  | Kinetic energy                :         322.29580746 Ha        8770.11513953 eV
  | Electrostatic energy          :        -603.74669218 Ha      -16428.78338154 eV
  | Energy correction for multipole
  | error in Hartree potential    :           0.01172463 Ha           0.31904347 eV
  | Sum of eigenvalues per atom                           :        -388.50612785 eV
  | Total energy (T->0) per atom                          :        -677.31852700 eV  <-- do not rely on this value for anything but (periodic) metals
  | Electronic free energy per atom                       :        -677.31852700 eV

  Self-consistency convergence accuracy:
  | Change of charge density      :  0.5764E+00
  | Change of sum of eigenvalues  :  0.8951E+02 eV
  | Change of total energy        :  0.4773E+01 eV

  End self-consistency iteration #     1       :  max(cpu_time)    wall_clock(cpu1)
  | Time for this iteration                    :        1.201 s           1.201 s
  | Charge density update                      :        0.405 s           0.405 s
  | Density mixing                             :        0.006 s           0.006 s
  | Hartree multipole update                   :        0.009 s           0.009 s
  | Hartree multipole summation                :        0.285 s           0.285 s
  | Integration                                :        0.493 s           0.494 s
  | Solution of K.-S. eqns.                    :        0.002 s           0.002 s
  | Total energy evaluation                    :        0.000 s           0.000 s

  Partial memory accounting:
  | Current value for overall tracked memory usage on task 0  :           0.165 MB
  | Peak value for overall tracked memory usage on task 0     :           0.695 MB after allocating gradient_basis_wave
  | Largest tracked array allocation on task 0 so far         :           0.397 MB  when allocating gradient_basis_wave
  Note:  These values currently only include a subset of arrays which are explicitly tracked.
  The "true" memory usage will be greater.
------------------------------------------------------------

------------------------------------------------------------
          Begin self-consistency iteration #    2

  Date     :  20200801, Time     :  170013.704
------------------------------------------------------------
  Evaluating new KS density.
  Integration grid: deviation in total charge (<rho> - N_e) =   0.000000E+00
  Pulay mixing of updated and previous charge densities.

  Evaluating partitioned Hartree potential by multipole expansion.
  | Analytical far-field extrapolation by fixed multipoles:
  | Hartree multipole sum: apparent total charge =  -0.308767E-03
  Summing up the Hartree potential.
  Time summed over all CPUs for potential: real work        0.283 s, elapsed        0.283 s
  | RMS charge density error from multipole expansion :   0.140376E-01

  Integrating Hamiltonian matrix: batch-based integration.
  Time summed over all CPUs for integration: real work        0.506 s, elapsed        0.506 s

  Updating Kohn-Sham eigenvalues and eigenvectors using ELSI and the ELPA eigensolver.
  Finished Cholesky decomposition
  | Time :     0.000 s
  Finished transformation to standard eigenproblem
  | Time :     0.000 s
  Starting LAPACK eigensolver
  Finished solving standard eigenproblem
  | Time :     0.002 s
  Finished back-transformation of eigenvectors
  | Time :     0.000 s

  Obtaining occupation numbers and chemical potential using ELSI.
  | Chemical potential (Fermi level):    -6.86162411eV
  Highest occupied state (VBM) at     -7.00379715 eV
  | Occupation number:      2.00000000

  Lowest unoccupied state (CBM) at    -1.66527374 eV
  | Occupation number:      0.00000000

  Overall HOMO-LUMO gap:      5.33852341 eV.

  Checking to see if s.c.f. parameters should be adjusted.

  Total energy components:
  | Sum of eigenvalues            :        -182.14967927 Ha       -4956.54495922 eV
  | XC energy correction          :         -42.48298708 Ha       -1156.02089607 eV
  | XC potential correction       :          54.62266322 Ha        1486.35829129 eV
  | Free-atom electrostatic energy:        -146.80319409 Ha       -3994.71816011 eV
  | Hartree energy correction     :          -6.69469897 Ha        -182.17202773 eV
  | vdW energy correction         :           0.00000000 Ha           0.00000000 eV
  | Entropy correction            :          -0.00000000 Ha          -0.00000000 eV
  | ---------------------------
  | Total energy                  :        -323.50789618 Ha       -8803.09775183 eV
  | Total energy, T -> 0          :        -323.50789618 Ha       -8803.09775183 eV  <-- do not rely on this value for anything but (periodic) metals
  | Electronic free energy        :        -323.50789618 Ha       -8803.09775183 eV

  Derived energy quantities:
  | Kinetic energy                :         323.58688521 Ha        8805.24715262 eV
  | Electrostatic energy          :        -604.61179432 Ha      -16452.32400838 eV
  | Energy correction for multipole
  | error in Hartree potential    :           0.02574307 Ha           0.70050459 eV
  | Sum of eigenvalues per atom                           :        -381.27268917 eV
  | Total energy (T->0) per atom                          :        -677.16136553 eV  <-- do not rely on this value for anything but (periodic) metals
  | Electronic free energy per atom                       :        -677.16136553 eV

  Self-consistency convergence accuracy:
  | Change of charge density      :  0.3602E+00
  | Change of sum of eigenvalues  :  0.9403E+02 eV
  | Change of total energy        :  0.2043E+01 eV

  End self-consistency iteration #     2       :  max(cpu_time)    wall_clock(cpu1)
  | Time for this iteration                    :        1.197 s           1.199 s
  | Charge density update                      :        0.390 s           0.391 s
  | Density mixing                             :        0.007 s           0.007 s
  | Hartree multipole update                   :        0.009 s           0.009 s
  | Hartree multipole summation                :        0.283 s           0.283 s
  | Integration                                :        0.506 s           0.507 s
  | Solution of K.-S. eqns.                    :        0.002 s           0.002 s
  | Total energy evaluation                    :        0.000 s           0.000 s

  Partial memory accounting:
  | Current value for overall tracked memory usage on task 0  :           0.166 MB
  | Peak value for overall tracked memory usage on task 0     :           0.695 MB after allocating gradient_basis_wave
  | Largest tracked array allocation on task 0 so far         :           0.397 MB  when allocating gradient_basis_wave
  Note:  These values currently only include a subset of arrays which are explicitly tracked.
  The "true" memory usage will be greater.
------------------------------------------------------------

------------------------------------------------------------
          Begin self-consistency iteration #    3

  Date     :  20200801, Time     :  170014.905
------------------------------------------------------------
  Evaluating new KS density.
  Integration grid: deviation in total charge (<rho> - N_e) =  -7.105427E-14
  Pulay mixing of updated and previous charge densities.

  Evaluating partitioned Hartree potential by multipole expansion.
  | Analytical far-field extrapolation by fixed multipoles:
  | Hartree multipole sum: apparent total charge =  -0.402804E-03
  Summing up the Hartree potential.
  Time summed over all CPUs for potential: real work        0.284 s, elapsed        0.284 s
  | RMS charge density error from multipole expansion :   0.222522E-01

  Integrating Hamiltonian matrix: batch-based integration.
  Time summed over all CPUs for integration: real work        0.506 s, elapsed        0.506 s

  Updating Kohn-Sham eigenvalues and eigenvectors using ELSI and the ELPA eigensolver.
  Finished Cholesky decomposition
  | Time :     0.000 s
  Finished transformation to standard eigenproblem
  | Time :     0.000 s
  Starting LAPACK eigensolver
  Finished solving standard eigenproblem
  | Time :     0.002 s
  Finished back-transformation of eigenvectors
  | Time :     0.000 s

  Obtaining occupation numbers and chemical potential using ELSI.
  | Chemical potential (Fermi level):    -6.33716230eV
  Highest occupied state (VBM) at     -6.40565828 eV
  | Occupation number:      2.00000000

  Lowest unoccupied state (CBM) at    -0.94076494 eV
  | Occupation number:      0.00000000

  Overall HOMO-LUMO gap:      5.46489333 eV.

  Total energy components:
  | Sum of eigenvalues            :        -180.83413139 Ha       -4920.74707994 eV
  | XC energy correction          :         -42.63644378 Ha       -1160.19666554 eV
  | XC potential correction       :          54.81812076 Ha        1491.67696143 eV
  | Free-atom electrostatic energy:        -146.80319409 Ha       -3994.71816011 eV
  | Hartree energy correction     :          -8.04018845 Ha        -218.78465942 eV
  | vdW energy correction         :           0.00000000 Ha           0.00000000 eV
  | Entropy correction            :          -0.00000000 Ha          -0.00000000 eV
  | ---------------------------
  | Total energy                  :        -323.49583696 Ha       -8802.76960357 eV
  | Total energy, T -> 0          :        -323.49583696 Ha       -8802.76960357 eV  <-- do not rely on this value for anything but (periodic) metals
  | Electronic free energy        :        -323.49583696 Ha       -8802.76960357 eV

  Derived energy quantities:
  | Kinetic energy                :         323.20571320 Ha        8794.87493441 eV
  | Electrostatic energy          :        -604.06510637 Ha      -16437.44787244 eV
  | Energy correction for multipole
  | error in Hartree potential    :           0.03644587 Ha           0.99174249 eV
  | Sum of eigenvalues per atom                           :        -378.51900615 eV
  | Total energy (T->0) per atom                          :        -677.13612335 eV  <-- do not rely on this value for anything but (periodic) metals
  | Electronic free energy per atom                       :        -677.13612335 eV

  Self-consistency convergence accuracy:
  | Change of charge density      :  0.2017E+00
  | Change of sum of eigenvalues  :  0.3580E+02 eV
  | Change of total energy        :  0.3281E+00 eV

  End self-consistency iteration #     3       :  max(cpu_time)    wall_clock(cpu1)
  | Time for this iteration                    :        1.205 s           1.213 s
  | Charge density update                      :        0.395 s           0.402 s
  | Density mixing                             :        0.009 s           0.008 s
  | Hartree multipole update                   :        0.009 s           0.009 s
  | Hartree multipole summation                :        0.285 s           0.285 s
  | Integration                                :        0.506 s           0.507 s
  | Solution of K.-S. eqns.                    :        0.002 s           0.002 s
  | Total energy evaluation                    :        0.000 s           0.000 s

  Partial memory accounting:
  | Current value for overall tracked memory usage on task 0  :           0.166 MB
  | Peak value for overall tracked memory usage on task 0     :           0.695 MB after allocating gradient_basis_wave
  | Largest tracked array allocation on task 0 so far         :           0.397 MB  when allocating gradient_basis_wave
  Note:  These values currently only include a subset of arrays which are explicitly tracked.
  The "true" memory usage will be greater.
------------------------------------------------------------

------------------------------------------------------------
          Begin self-consistency iteration #    4

  Date     :  20200801, Time     :  170016.120
------------------------------------------------------------
  Evaluating new KS density.
  Integration grid: deviation in total charge (<rho> - N_e) =   3.552714E-14
  Pulay mixing of updated and previous charge densities.

  Evaluating partitioned Hartree potential by multipole expansion.
  | Analytical far-field extrapolation by fixed multipoles:
  | Hartree multipole sum: apparent total charge =  -0.433011E-03
  Summing up the Hartree potential.
  Time summed over all CPUs for potential: real work        0.281 s, elapsed        0.281 s
  | RMS charge density error from multipole expansion :   0.257657E-01

  Integrating Hamiltonian matrix: batch-based integration.
  Time summed over all CPUs for integration: real work        0.501 s, elapsed        0.501 s

  Updating Kohn-Sham eigenvalues and eigenvectors using ELSI and the ELPA eigensolver.
  Finished Cholesky decomposition
  | Time :     0.000 s
  Finished transformation to standard eigenproblem
  | Time :     0.000 s
  Starting LAPACK eigensolver
  Finished solving standard eigenproblem
  | Time :     0.002 s
  Finished back-transformation of eigenvectors
  | Time :     0.000 s

  Obtaining occupation numbers and chemical potential using ELSI.
  | Chemical potential (Fermi level):    -2.12377553eV
  Highest occupied state (VBM) at     -6.07605738 eV
  | Occupation number:      2.00000000

  Lowest unoccupied state (CBM) at    -0.86803063 eV
  | Occupation number:      0.00000000

  Overall HOMO-LUMO gap:      5.20802675 eV.

  Total energy components:
  | Sum of eigenvalues            :        -180.74194323 Ha       -4918.23851240 eV
  | XC energy correction          :         -42.67182268 Ha       -1161.15937414 eV
  | XC potential correction       :          54.86234029 Ha        1492.88023608 eV
  | Free-atom electrostatic energy:        -146.80319409 Ha       -3994.71816011 eV
  | Hartree energy correction     :          -8.14029101 Ha        -221.50858873 eV
  | vdW energy correction         :           0.00000000 Ha           0.00000000 eV
  | Entropy correction            :           0.00000000 Ha           0.00000000 eV
  | ---------------------------
  | Total energy                  :        -323.49491072 Ha       -8802.74439929 eV
  | Total energy, T -> 0          :        -323.49491072 Ha       -8802.74439929 eV  <-- do not rely on this value for anything but (periodic) metals
  | Electronic free energy        :        -323.49491072 Ha       -8802.74439929 eV

  Derived energy quantities:
  | Kinetic energy                :         322.80801474 Ha        8784.05300875 eV
  | Electrostatic energy          :        -603.63110278 Ha      -16425.63803390 eV
  | Energy correction for multipole
  | error in Hartree potential    :           0.04046235 Ha           1.10103662 eV
  | Sum of eigenvalues per atom                           :        -378.32603942 eV
  | Total energy (T->0) per atom                          :        -677.13418456 eV  <-- do not rely on this value for anything but (periodic) metals
  | Electronic free energy per atom                       :        -677.13418456 eV

  Self-consistency convergence accuracy:
  | Change of charge density      :  0.6573E-01
  | Change of sum of eigenvalues  :  0.2509E+01 eV
  | Change of total energy        :  0.2520E-01 eV

  End self-consistency iteration #     4       :  max(cpu_time)    wall_clock(cpu1)
  | Time for this iteration                    :        1.196 s           1.198 s
  | Charge density update                      :        0.393 s           0.394 s
  | Density mixing                             :        0.010 s           0.010 s
  | Hartree multipole update                   :        0.009 s           0.009 s
  | Hartree multipole summation                :        0.281 s           0.281 s
  | Integration                                :        0.501 s           0.501 s
  | Solution of K.-S. eqns.                    :        0.002 s           0.003 s
  | Total energy evaluation                    :        0.000 s           0.000 s

  Partial memory accounting:
  | Current value for overall tracked memory usage on task 0  :           0.166 MB
  | Peak value for overall tracked memory usage on task 0     :           0.696 MB after allocating gradient_basis_wave
  | Largest tracked array allocation on task 0 so far         :           0.397 MB  when allocating gradient_basis_wave
  Note:  These values currently only include a subset of arrays which are explicitly tracked.
  The "true" memory usage will be greater.
------------------------------------------------------------

------------------------------------------------------------
          Begin self-consistency iteration #    5

  Date     :  20200801, Time     :  170017.320
------------------------------------------------------------
  Evaluating new KS density.
  Integration grid: deviation in total charge (<rho> - N_e) =   2.842171E-14
  Pulay mixing of updated and previous charge densities.

  Evaluating partitioned Hartree potential by multipole expansion.
  | Analytical far-field extrapolation by fixed multipoles:
  | Hartree multipole sum: apparent total charge =  -0.428205E-03
  Summing up the Hartree potential.
  Time summed over all CPUs for potential: real work        0.282 s, elapsed        0.282 s
  | RMS charge density error from multipole expansion :   0.255091E-01

  Integrating Hamiltonian matrix: batch-based integration.
  Time summed over all CPUs for integration: real work        0.503 s, elapsed        0.503 s

  Updating Kohn-Sham eigenvalues and eigenvectors using ELSI and the ELPA eigensolver.
  Finished Cholesky decomposition
  | Time :     0.000 s
  Finished transformation to standard eigenproblem
  | Time :     0.000 s
  Starting LAPACK eigensolver
  Finished solving standard eigenproblem
  | Time :     0.001 s
  Finished back-transformation of eigenvectors
  | Time :     0.000 s

  Obtaining occupation numbers and chemical potential using ELSI.
  | Chemical potential (Fermi level):    -2.14496001eV
  Highest occupied state (VBM) at     -6.21688147 eV
  | Occupation number:      2.00000000

  Lowest unoccupied state (CBM) at    -0.93015317 eV
  | Occupation number:      0.00000000

  Overall HOMO-LUMO gap:      5.28672829 eV.

  Total energy components:
  | Sum of eigenvalues            :        -180.87740939 Ha       -4921.92473416 eV
  | XC energy correction          :         -42.65376689 Ha       -1160.66805127 eV
  | XC potential correction       :          54.83894469 Ha        1492.24360943 eV
  | Free-atom electrostatic energy:        -146.80319409 Ha       -3994.71816011 eV
  | Hartree energy correction     :          -7.99915378 Ha        -217.66804909 eV
  | vdW energy correction         :           0.00000000 Ha           0.00000000 eV
  | Entropy correction            :           0.00000000 Ha           0.00000000 eV
  | ---------------------------
  | Total energy                  :        -323.49457945 Ha       -8802.73538519 eV
  | Total energy, T -> 0          :        -323.49457945 Ha       -8802.73538519 eV  <-- do not rely on this value for anything but (periodic) metals
  | Electronic free energy        :        -323.49457945 Ha       -8802.73538519 eV

  Derived energy quantities:
  | Kinetic energy                :         322.73536000 Ha        8782.07597283 eV
  | Electrostatic energy          :        -603.57617257 Ha      -16424.14330675 eV
  | Energy correction for multipole
  | error in Hartree potential    :           0.03989932 Ha           1.08571569 eV
  | Sum of eigenvalues per atom                           :        -378.60959494 eV
  | Total energy (T->0) per atom                          :        -677.13349117 eV  <-- do not rely on this value for anything but (periodic) metals
  | Electronic free energy per atom                       :        -677.13349117 eV

  Self-consistency convergence accuracy:
  | Change of charge density      :  0.2394E-01
  | Change of sum of eigenvalues  : -0.3686E+01 eV
  | Change of total energy        :  0.9014E-02 eV

  End self-consistency iteration #     5       :  max(cpu_time)    wall_clock(cpu1)
  | Time for this iteration                    :        1.197 s           1.198 s
  | Charge density update                      :        0.390 s           0.389 s
  | Density mixing                             :        0.011 s           0.012 s
  | Hartree multipole update                   :        0.009 s           0.009 s
  | Hartree multipole summation                :        0.282 s           0.282 s
  | Integration                                :        0.503 s           0.503 s
  | Solution of K.-S. eqns.                    :        0.002 s           0.002 s
  | Total energy evaluation                    :        0.000 s           0.001 s

  Partial memory accounting:
  | Current value for overall tracked memory usage on task 0  :           0.166 MB
  | Peak value for overall tracked memory usage on task 0     :           0.696 MB after allocating gradient_basis_wave
  | Largest tracked array allocation on task 0 so far         :           0.397 MB  when allocating gradient_basis_wave
  Note:  These values currently only include a subset of arrays which are explicitly tracked.
  The "true" memory usage will be greater.
------------------------------------------------------------

------------------------------------------------------------
          Begin self-consistency iteration #    6

  Date     :  20200801, Time     :  170018.521
------------------------------------------------------------
  Evaluating new KS density.
  Integration grid: deviation in total charge (<rho> - N_e) =   4.263256E-14
  Pulay mixing of updated and previous charge densities.

  Evaluating partitioned Hartree potential by multipole expansion.
  | Analytical far-field extrapolation by fixed multipoles:
  | Hartree multipole sum: apparent total charge =  -0.429120E-03
  Summing up the Hartree potential.
  Time summed over all CPUs for potential: real work        0.285 s, elapsed        0.285 s
  | RMS charge density error from multipole expansion :   0.257946E-01

  Integrating Hamiltonian matrix: batch-based integration.
  Time summed over all CPUs for integration: real work        0.507 s, elapsed        0.507 s

  Updating Kohn-Sham eigenvalues and eigenvectors using ELSI and the ELPA eigensolver.
  Finished Cholesky decomposition
  | Time :     0.000 s
  Finished transformation to standard eigenproblem
  | Time :     0.000 s
  Starting LAPACK eigensolver
  Finished solving standard eigenproblem
  | Time :     0.002 s
  Finished back-transformation of eigenvectors
  | Time :     0.000 s

  Obtaining occupation numbers and chemical potential using ELSI.
  | Chemical potential (Fermi level):    -2.14262468eV
  Highest occupied state (VBM) at     -6.25862771 eV
  | Occupation number:      2.00000000

  Lowest unoccupied state (CBM) at    -0.97241780 eV
  | Occupation number:      0.00000000

  Overall HOMO-LUMO gap:      5.28620991 eV.

  Total energy components:
  | Sum of eigenvalues            :        -180.94135536 Ha       -4923.66479272 eV
  | XC energy correction          :         -42.64529613 Ha       -1160.43755014 eV
  | XC potential correction       :          54.82793203 Ha        1491.94393982 eV
  | Free-atom electrostatic energy:        -146.80319409 Ha       -3994.71816011 eV
  | Hartree energy correction     :          -7.93258260 Ha        -215.85655514 eV
  | vdW energy correction         :           0.00000000 Ha           0.00000000 eV
  | Entropy correction            :           0.00000000 Ha           0.00000000 eV
  | ---------------------------
  | Total energy                  :        -323.49449615 Ha       -8802.73311829 eV
  | Total energy, T -> 0          :        -323.49449615 Ha       -8802.73311829 eV  <-- do not rely on this value for anything but (periodic) metals
  | Electronic free energy        :        -323.49449615 Ha       -8802.73311829 eV

  Derived energy quantities:
  | Kinetic energy                :         322.63449563 Ha        8779.33131342 eV
  | Electrostatic energy          :        -603.48369564 Ha      -16421.62688157 eV
  | Energy correction for multipole
  | error in Hartree potential    :           0.03994696 Ha           1.08701205 eV
  | Sum of eigenvalues per atom                           :        -378.74344559 eV
  | Total energy (T->0) per atom                          :        -677.13331679 eV  <-- do not rely on this value for anything but (periodic) metals
  | Electronic free energy per atom                       :        -677.13331679 eV

  Self-consistency convergence accuracy:
  | Change of charge density      :  0.1122E-01
  | Change of sum of eigenvalues  : -0.1740E+01 eV
  | Change of total energy        :  0.2267E-02 eV

  End self-consistency iteration #     6       :  max(cpu_time)    wall_clock(cpu1)
  | Time for this iteration                    :        1.209 s           1.210 s
  | Charge density update                      :        0.392 s           0.393 s
  | Density mixing                             :        0.012 s           0.013 s
  | Hartree multipole update                   :        0.009 s           0.009 s
  | Hartree multipole summation                :        0.285 s           0.285 s
  | Integration                                :        0.507 s           0.507 s
  | Solution of K.-S. eqns.                    :        0.002 s           0.003 s
  | Total energy evaluation                    :        0.000 s           0.000 s

  Partial memory accounting:
  | Current value for overall tracked memory usage on task 0  :           0.166 MB
  | Peak value for overall tracked memory usage on task 0     :           0.696 MB after allocating gradient_basis_wave
  | Largest tracked array allocation on task 0 so far         :           0.397 MB  when allocating gradient_basis_wave
  Note:  These values currently only include a subset of arrays which are explicitly tracked.
  The "true" memory usage will be greater.
------------------------------------------------------------

------------------------------------------------------------
          Begin self-consistency iteration #    7

  Date     :  20200801, Time     :  170019.733
------------------------------------------------------------
  Evaluating new KS density.
  Integration grid: deviation in total charge (<rho> - N_e) =   5.684342E-14
  Pulay mixing of updated and previous charge densities.

  Evaluating partitioned Hartree potential by multipole expansion.
  | Analytical far-field extrapolation by fixed multipoles:
  | Hartree multipole sum: apparent total charge =  -0.430417E-03
  Summing up the Hartree potential.
  Time summed over all CPUs for potential: real work        0.280 s, elapsed        0.280 s
  | RMS charge density error from multipole expansion :   0.259495E-01

  Integrating Hamiltonian matrix: batch-based integration.
  Time summed over all CPUs for integration: real work        0.502 s, elapsed        0.502 s

  Updating Kohn-Sham eigenvalues and eigenvectors using ELSI and the ELPA eigensolver.
  Finished Cholesky decomposition
  | Time :     0.000 s
  Finished transformation to standard eigenproblem
  | Time :     0.000 s
  Starting LAPACK eigensolver
  Finished solving standard eigenproblem
  | Time :     0.002 s
  Finished back-transformation of eigenvectors
  | Time :     0.000 s

[...]
  |   Hirshfeld dipole moment :      0.06137641
  |   Hirshfeld second moments:      0.00026137      -0.02487163      -0.01499299
  |                                 -0.02487163      -0.02440605       0.00705216
  |                                 -0.01499299       0.00705216      -0.02014781
  ----------------------------------------------------------------------
  | Atom    12: O
  |   Hirshfeld charge        :     -0.13850056
  |   Free atom volume        :     23.61338643
  |   Hirshfeld volume        :     21.05759189
  |   Hirshfeld dipole vector :      0.01239310       0.03883521      -0.00884947
  |   Hirshfeld dipole moment :      0.04171422
  |   Hirshfeld second moments:      0.06078751      -0.01251685       0.01426038
  |                                 -0.01251685       0.03033288       0.00531828
  |                                  0.01426038       0.00531828       0.07729170
  ----------------------------------------------------------------------
  | Atom    13: H
  |   Hirshfeld charge        :      0.13309771
  |   Free atom volume        :      9.95071624
  |   Hirshfeld volume        :      7.08302035
  |   Hirshfeld dipole vector :     -0.03273453       0.01151765      -0.06787163
  |   Hirshfeld dipole moment :      0.07622837
  |   Hirshfeld second moments:      0.10476416      -0.00620165       0.00405359
  |                                 -0.00620165       0.06308263       0.03297124
  |                                  0.00405359       0.03297124       0.09029994
  ----------------------------------------------------------------------


  Total energy components:
  | Sum of eigenvalues            :        -180.92885008 Ha       -4923.32450654 eV
  | XC energy correction          :         -42.64379285 Ha       -1160.39664375 eV
  | XC potential correction       :          54.82604951 Ha        1491.89271372 eV
  | Free-atom electrostatic energy:        -146.80319409 Ha       -3994.71816011 eV
  | Hartree energy correction     :          -7.94469189 Ha        -216.18606574 eV
  | vdW energy correction         :          -0.00324363 Ha          -0.08826367 eV
  | Entropy correction            :           0.00000000 Ha           0.00000000 eV
  | ---------------------------
  | Total energy                  :        -323.49772302 Ha       -8802.82092609 eV
  | Total energy, T -> 0          :        -323.49772302 Ha       -8802.82092609 eV  <-- do not rely on this value for anything but (periodic) metals
  | Electronic free energy        :        -323.49772302 Ha       -8802.82092609 eV

  Derived energy quantities:
  | Kinetic energy                :         322.59974772 Ha        8778.38577482 eV
  | Electrostatic energy          :        -603.45043427 Ha      -16420.72179349 eV
  | Energy correction for multipole
  | error in Hartree potential    :           0.04001920 Ha           1.08897782 eV
  | Sum of eigenvalues per atom                           :        -378.71726973 eV
  | Total energy (T->0) per atom                          :        -677.14007124 eV  <-- do not rely on this value for anything but (periodic) metals
  | Electronic free energy per atom                       :        -677.14007124 eV

  atomic forces [eV/Ang]:
  -----------------------
  atom #    1
   Hellmann-Feynman              :  0.118747E+01  0.184812E+00  0.158941E+01
   Ionic forces                  :  0.000000E+00  0.000000E+00  0.000000E+00
   Multipole                     :  0.170064E+00  0.224993E+00 -0.256816E+00
   Pulay + GGA                   : -0.125351E+01  0.328471E-01 -0.148737E+01
   Van der Waals                 :  0.189294E-02  0.103151E-02 -0.107325E-02
   ----------------------------------------------------------------
   Total forces(   1)            :  0.105915E+00  0.443684E+00 -0.155849E+00
  atom #    2
   Hellmann-Feynman              :  0.399951E+00 -0.459340E-01  0.310170E+00
   Ionic forces                  :  0.000000E+00  0.000000E+00  0.000000E+00
   Multipole                     :  0.155290E+00  0.231664E-01 -0.333562E-01
   Pulay + GGA                   : -0.130266E+00  0.470282E-02  0.189058E-01
   Van der Waals                 :  0.817770E-02 -0.384863E-02 -0.160437E-02
   ----------------------------------------------------------------
   Total forces(   2)            :  0.433153E+00 -0.219134E-01  0.294115E+00
  atom #    3
   Hellmann-Feynman              : -0.112888E+02  0.206724E+01  0.142973E+01
   Ionic forces                  :  0.000000E+00  0.000000E+00  0.000000E+00
   Multipole                     : -0.131577E+00  0.163295E+00 -0.681047E+00
   Pulay + GGA                   :  0.109662E+02 -0.229206E+01  0.120464E+00
   Van der Waals                 :  0.359862E-02 -0.524551E-02 -0.858568E-02
   ----------------------------------------------------------------
   Total forces(   3)            : -0.450529E+00 -0.667705E-01  0.860558E+00
  atom #    4
   Hellmann-Feynman              :  0.162364E-01 -0.654673E-01 -0.261124E+00
   Ionic forces                  :  0.000000E+00  0.000000E+00  0.000000E+00
   Multipole                     :  0.447412E-01 -0.122668E-01 -0.822709E-01
   Pulay + GGA                   : -0.180769E+00 -0.940221E-01  0.112414E+00
   Van der Waals                 : -0.313927E-02 -0.734256E-02 -0.419334E-02
   ----------------------------------------------------------------
   Total forces(   4)            : -0.122930E+00 -0.179099E+00 -0.235174E+00
  atom #    5
   Hellmann-Feynman              :  0.700962E+00 -0.902475E-02 -0.623201E+00
   Ionic forces                  :  0.000000E+00  0.000000E+00  0.000000E+00
   Multipole                     :  0.400563E-01 -0.686256E-01 -0.102572E+00
   Pulay + GGA                   : -0.145040E-02  0.239934E+00 -0.319729E-02
   Van der Waals                 : -0.261508E-02  0.373381E-02 -0.254304E-02
   ----------------------------------------------------------------
   Total forces(   5)            :  0.736953E+00  0.166018E+00 -0.731513E+00
  atom #    6
   Hellmann-Feynman              : -0.256530E+00 -0.578586E+00  0.358302E+00
   Ionic forces                  :  0.000000E+00  0.000000E+00  0.000000E+00
   Multipole                     : -0.123431E+00  0.685949E+00  0.244153E+00
   Pulay + GGA                   :  0.449185E+00 -0.517743E+00 -0.631805E+00
   Van der Waals                 : -0.505431E-02  0.353387E-02 -0.113956E-03
   ----------------------------------------------------------------
   Total forces(   6)            :  0.641694E-01 -0.406846E+00 -0.294635E-01
  atom #    7
   Hellmann-Feynman              : -0.194511E+00 -0.406281E-01 -0.594742E-01
   Ionic forces                  :  0.000000E+00  0.000000E+00  0.000000E+00
   Multipole                     : -0.122893E+00  0.484909E-01  0.312815E-01
   Pulay + GGA                   :  0.117819E+00 -0.393195E-02 -0.168812E-01
   Van der Waals                 : -0.569342E-03 -0.351009E-04  0.160627E-02
   ----------------------------------------------------------------
   Total forces(   7)            : -0.200154E+00  0.389570E-02 -0.434676E-01
  atom #    8
   Hellmann-Feynman              :  0.126189E+00 -0.711002E-01  0.957870E-01
   Ionic forces                  :  0.000000E+00  0.000000E+00  0.000000E+00
   Multipole                     :  0.117828E-01  0.666439E-01  0.129380E+00
   Pulay + GGA                   : -0.469821E-01 -0.425806E-01 -0.941305E-01
   Van der Waals                 : -0.264612E-02  0.112962E-01  0.114289E-02
   ----------------------------------------------------------------
   Total forces(   8)            :  0.883436E-01 -0.357407E-01  0.132179E+00
  atom #    9
   Hellmann-Feynman              :  0.109643E+00  0.698599E-01 -0.181482E+00
   Ionic forces                  :  0.000000E+00  0.000000E+00  0.000000E+00
   Multipole                     :  0.171240E-01  0.128669E+00 -0.685513E-02
   Pulay + GGA                   : -0.517146E-01 -0.604431E-01  0.725081E-01
   Van der Waals                 : -0.233872E-02  0.567169E-02  0.716909E-02
   ----------------------------------------------------------------
   Total forces(   9)            :  0.727139E-01  0.143757E+00 -0.108660E+00
  atom #   10
   Hellmann-Feynman              :  0.232108E+01  0.372485E+01  0.203821E+01
   Ionic forces                  :  0.000000E+00  0.000000E+00  0.000000E+00
   Multipole                     :  0.922255E-01 -0.110355E+00  0.191391E+00
   Pulay + GGA                   : -0.134257E+01 -0.256832E+01 -0.284394E+00
   Van der Waals                 :  0.314012E-02 -0.102937E-01 -0.777949E-03
   ----------------------------------------------------------------
   Total forces(  10)            :  0.107387E+01  0.103589E+01  0.194443E+01
  atom #   11
   Hellmann-Feynman              :  0.410740E+01 -0.237591E+01  0.141022E+02
   Ionic forces                  :  0.000000E+00  0.000000E+00  0.000000E+00
   Multipole                     :  0.121584E+00 -0.556372E+00  0.989152E+00
   Pulay + GGA                   : -0.343640E+01  0.355165E+01 -0.141673E+02
   Van der Waals                 : -0.889402E-03 -0.122891E-01  0.660591E-02
   ----------------------------------------------------------------
   Total forces(  11)            :  0.791688E+00  0.607083E+00  0.930698E+00
  atom #   12
   Hellmann-Feynman              : -0.537521E+01 -0.131018E+02  0.932933E+00
   Ionic forces                  :  0.000000E+00  0.000000E+00  0.000000E+00
   Multipole                     : -0.100888E+01 -0.148384E+01  0.413214E-02
   Pulay + GGA                   :  0.497196E+01  0.134328E+02 -0.293335E+01
   Van der Waals                 :  0.988139E-04  0.571880E-02  0.527703E-02
   ----------------------------------------------------------------
   Total forces(  12)            : -0.141203E+01 -0.114720E+01 -0.199101E+01
  atom #   13
   Hellmann-Feynman              : -0.116479E+01 -0.468078E+00 -0.119484E+01
   Ionic forces                  :  0.000000E+00  0.000000E+00  0.000000E+00
   Multipole                     : -0.390554E-01  0.105926E+00 -0.804817E-01
   Pulay + GGA                   :  0.216813E-01 -0.187053E+00  0.404113E+00
   Van der Waals                 :  0.344053E-03  0.806869E-02 -0.290959E-02
   ----------------------------------------------------------------
   Total forces(  13)            : -0.118182E+01 -0.541136E+00 -0.874122E+00

  Timings for VdW correction (Tkatchenko-Scheffler 2009 or later):
  | CPU time:        0.091 s, Wall clock time:        0.092 s.
  Removing unitary transformations (pure translations, rotations) from forces on atoms.
  Atomic forces before filtering:
  | Net force on center of mass :  -0.656000E-03  0.162234E-02 -0.727922E-02 eV/A
  | Net torque on center of mass:   0.454930E-02 -0.131785E-02 -0.540769E-02 eV
  Atomic forces after filtering:
  | Net force on center of mass :   0.356812E-15  0.000000E+00  0.000000E+00 eV/A
  | Net torque on center of mass:   0.179376E-14 -0.283225E-15  0.000000E+00 eV

  Energy and forces in a compact form:
  | Total energy uncorrected      :         -0.880282092608567E+04 eV
  | Total energy corrected        :         -0.880282092608567E+04 eV  <-- do not rely on this value for anything but (periodic) metals
  | Electronic free energy        :         -0.880282092608567E+04 eV
  Total atomic forces (unitary forces cleaned) [eV/Ang]:
  |   1          0.105950576905111E+00          0.443632422870485E+00         -0.155320638258069E+00
  |   2          0.433188407759102E+00         -0.217438101141751E-01          0.294572005090367E+00
  |   3         -0.450584711927980E+00         -0.670764514798903E-01          0.861117316783916E+00
  |   4         -0.123158138037492E+00         -0.179353544045513E+00         -0.234726469361176E+00
  |   5          0.737060198364131E+00          0.165693438812323E+00         -0.730857669428302E+00
  |   6          0.639976367990192E-01         -0.406916312066902E+00         -0.290440743959877E-01
  |   7         -0.200329814983443E+00          0.360676669541775E-02         -0.429800844807500E-01
  |   8          0.882364972723884E-01         -0.356225098173907E-01          0.132573758991271E+00
  |   9          0.723277230270014E-01          0.143703878201300E+00         -0.108364724089306E+00
  |  10          0.107421324292427E+01          0.103583959356054E+01          0.194512822998602E+01
  |  11          0.792162682488559E+00          0.607221660518126E+00          0.931407925870704E+00
  |  12         -0.141155623798023E+01         -0.114746276533251E+01         -0.199017215763220E+01
  |  13         -0.118150806261044E+01         -0.541522367801802E+00         -0.873333419076489E+00

  ------------------------------------ 
  Start decomposition of the XC Energy 
  ------------------------------------ 
  X and C from original XC functional choice 
  Hartree-Fock Energy :          0.000000000 Ha              0.000000000 eV
  X Energy            :        -41.041125923 Ha          -1116.785857799 eV
  C Energy            :         -1.602666926 Ha            -43.610785950 eV
  Total XC Energy     :        -42.643792849 Ha          -1160.396643749 eV
  ------------------------------------ 
  LDA X and C from self-consistent density 
  X Energy LDA        :        -37.262782330 Ha          -1013.971897508 eV
  C Energy LDA        :         -3.139230655 Ha            -85.422812396 eV
  ------------------------------------ 
  End decomposition of the XC Energy 
  ------------------------------------ 

------------------------------------------------------------

------------------------------------------------------------------------------
  Final output of selected total energy values:

  The following output summarizes some interesting total energy values
  at the end of a run (AFTER all relaxation, molecular dynamics, etc.).

  | Total energy of the DFT / Hartree-Fock s.c.f. calculation      :          -8802.820926086 eV
  | Final zero-broadening corrected energy (caution - metals only) :          -8802.820926086 eV
  | For reference only, the value of 1 Hartree used in FHI-aims is :             27.211384500 eV

  Before relying on these values, please be sure to understand exactly which
  total energy value is referred to by a given number. Different objects may
  all carry the same name 'total energy'. Definitions:

  Total energy of the DFT / Hartree-Fock s.c.f. calculation:
  | Note that this energy does not include ANY quantities calculated after the
  | s.c.f. cycle, in particular not ANY RPA, MP2, etc. many-body perturbation terms.

  Final zero-broadening corrected energy:
  | For metallic systems only, a broadening of the occupation numbers at the Fermi
  | level can be extrapolated back to zero broadening by an electron-gas inspired
  | formula. For all systems that are not real metals, this value can be
  | meaningless and should be avoided.

------------------------------------------------------------------------------
  Methods described in the following list of references were used in this FHI-aims run.
  If you publish the results, please make sure to cite these reference if they apply.
  FHI-aims is an academic code, and for our developers (often, Ph.D. students
  and postdocs), scientific credit in the community is essential.
  Thank you for helping us!

  For any use of FHI-aims, please cite:

    Volker Blum, Ralf Gehrke, Felix Hanke, Paula Havu, Ville Havu,
    Xinguo Ren, Karsten Reuter, and Matthias Scheffler
    'Ab initio molecular simulations with numeric atom-centered orbitals'
    Computer Physics Communications 180, 2175-2196 (2009)
    http://dx.doi.org/10.1016/j.cpc.2009.06.022


  The scalable eigensolver library ELPA was used in your run.
  ELPA is essential especially for large systems on hundreds or thousands of CPUs.
  For ELPA, please cite:

    Andreas Marek, Volker Blum, Rainer Johanni, Ville Havu, Bruno Lang,
    Thomas Auckenthaler, Alexander Heinecke, Hans-Joachim Bungartz, and Hermann Lederer,
    'The ELPA Library - Scalable Parallel Eigenvalue Solutions
    for Electronic Structure Theory and Computational Science'
    The Journal of Physics: Condensed Matter 26, 213201 (2014).
    http://dx.doi.org/10.1088/0953-8984/26/21/213201


  The ELSI infrastructure was used in your run to solve the Kohn-Sham electronic structure.
  Please check out http://elsi-interchange.org to learn more.
  If scalability is important for your project, please acknowledge ELSI by citing:

    V. W-z. Yu, F. Corsetti, A. Garcia, W. P. Huhn, M. Jacquelin, W. Jia,
    B. Lange, L. Lin, J. Lu, W. Mi, A. Seifitokaldani, A. Vazquez-Mayagoitia,
    C. Yang, H. Yang, and V. Blum
    'ELSI: A unified software interface for Kohn-Sham electronic structure solvers'
    Computer Physics Communications 222, 267-285 (2018).
    http://dx.doi.org/10.1016/j.cpc.2017.09.007


  For the real-space grid partitioning and parallelization used in this calculation, please cite:

    Ville Havu, Volker Blum, Paula Havu, and Matthias Scheffler,
    'Efficient O(N) integration for all-electron electronic structure calculation'
    'using numerically tabulated basis functions'
    Journal of Computational Physics 228, 8367-8379 (2009).
    http://dx.doi.org/10.1016/j.jcp.2009.08.008

  Of course, there are many other important community references, e.g., those cited in the
  above references. Our list is limited to references that describe implementations in the
  FHI-aims code. The reason is purely practical (length of this list) - please credit others as well.

------------------------------------------------------------
          Leaving FHI-aims.
          Date     :  20200801, Time     :  170034.207

          Computational steps:
          | Number of self-consistency cycles          :           16
          | Number of SCF (re)initializations          :            1

          Detailed time accounting                     :  max(cpu_time)    wall_clock(cpu1)
          | Total time                                 :       22.976 s          23.050 s
          | Preparation time                           :        0.151 s           0.152 s
          | Boundary condition initalization           :        0.000 s           0.001 s
          | Grid partitioning                          :        0.113 s           0.113 s
          | Preloading free-atom quantities on grid    :        0.002 s           0.002 s
          | Free-atom superposition energy             :        0.086 s           0.086 s
          | Total time for integrations                :        8.783 s           8.789 s
          | Total time for solution of K.-S. equations :        0.037 s           0.039 s
          | Total time for density & force components  :        7.251 s           7.266 s
          | Total time for mixing                      :        0.220 s           0.223 s
          | Total time for Hartree multipole update    :        0.141 s           0.143 s
          | Total time for Hartree multipole sum       :        5.784 s           5.792 s
          | Total time for total energy evaluation     :        0.003 s           0.002 s
          | Total time for vdW correction              :        0.091 s           0.092 s

          Partial memory accounting:
          | Residual value for overall tracked memory usage across tasks :           0.000 MB (should be 0.000 MB)
          | Peak values for overall tracked memory usage (after allocating hessian_basis_wave):
          |   Minimum:        1.622 MB (on task 1)
          |   Maximum:        1.622 MB (on task 1)
          |   Average:        1.622 MB
          | Largest tracked array allocation (hessian_basis_wave):
          |   Minimum:        0.794 MB (on task 1)
          |   Maximum:        0.794 MB (on task 1)
          |   Average:        0.794 MB
          Note:  These values currently only include a subset of arrays which are explicitly tracked.
          The "true" memory usage will be greater.

          Have a nice day.
------------------------------------------------------------
