  MPI-parallelism will be employed.
------------------------------------------------------------
          Invoking FHI-aims ...
          Version 171221_1
          Compiled on 2019/09/09 at 14:39:39 on host puhti-login2.bullx.

          When using FHI-aims, please cite the following reference:

          Volker Blum, Ralf Gehrke, Felix Hanke, Paula Havu,
          Ville Havu, Xinguo Ren, Karsten Reuter, and Matthias Scheffler,
          'Ab Initio Molecular Simulations with Numeric Atom-Centered Orbitals',
          Computer Physics Communications 180, 2175-2196 (2009)

          For any questions about FHI-aims, please visit the aimsclub website
          with its forums and wiki. Contributions to both the forums and the
          wiki are warmly encouraged - they are for you, and everyone is welcome there.

------------------------------------------------------------



  Date     :  20200710, Time     :  150639.199
  Time zero on CPU 1             :   0.112890000000000E-01  s.
  Internal wall clock time zero  :           363625599.199  s.

  FHI-aims created a unique identifier for this run for later identification
  aims_uuid : 7E01799E-45ED-42D4-A55C-6EA0A24F0DE3

  Using        1 parallel tasks.
  Task        0 on host r18c44.bullx reporting.

  Performing system and environment tests:
  | Environment variable OMP_NUM_THREADS correctly set to 1.
  | Stacksize not measured: no C compiler
  | Checking for scalapack...
  | Testing pdtran()...
  | All pdtran() tests passed.

  Obtaining array dimensions for all initial allocations:
  
  -----------------------------------------------------------------------
  Parsing control.in (first pass over file, find array dimensions only).
  The contents of control.in will be repeated verbatim below
  unless switched off by setting 'verbatim_writeout .false.' .
  in the first line of control.in .
  -----------------------------------------------------------------------
  
  #########################################################################################
  #
  #  Volker Blum, FHI 2009 : Test run input file control.in for simple H2O
  #
  #########################################################################################
  #
  #  Physical model
  #
    xc                 pbe
    vdw_correction_hirshfeld
    spin               none
    relativistic       none
    charge             0.
  #
  #  SCF convergence
  #
    occupation_type    gaussian 0.01
    mixer              pulay
      n_max_pulay        10
      charge_mix_param   0.2
    sc_accuracy_rho    1E-5
    sc_accuracy_eev    1E-3
    sc_accuracy_etot   1E-6
    sc_accuracy_forces 1E-4
    sc_iter_limit      100
  #
  #  Relaxation
  #
  #  relax_geometry   bfgs 1.e-3
  #
  ################################################################################
  #
  #  FHI-aims code project
  #  VB, Fritz-Haber Institut, 2009
  #
  #  Suggested "light" defaults for H atom (to be pasted into control.in file)
  #  Be sure to double-check any results obtained with these settings for post-processing,
  #  e.g., with the "tight" defaults and larger basis sets.
  #
  ################################################################################
    species        H
  #     global species definitions
      nucleus             1
      mass                1.00794
  #
      l_hartree           4
  #
      cut_pot             3.5  1.5  1.0
      basis_dep_cutoff    1e-4
  #
      radial_base         24 5.0
      radial_multiplier   1
      angular_grids       specified
        division   0.2421   50
        division   0.3822  110
        division   0.4799  194
        division   0.5341  302
  #      division   0.5626  434
  #      division   0.5922  590
  #      division   0.6542  770
  #      division   0.6868 1202
  #      outer_grid  770
        outer_grid  302
  ################################################################################
  #
  #  Definition of "minimal" basis
  #
  ################################################################################
  #     valence basis states
      valence      1  s   1.
  #     ion occupancy
      ion_occ      1  s   0.5
  ################################################################################
  #
  #  Suggested additional basis functions. For production calculations,
  #  uncomment them one after another (the most important basis functions are
  #  listed first).
  #
  #  Basis constructed for dimers: 0.5 A, 0.7 A, 1.0 A, 1.5 A, 2.5 A
  #
  ################################################################################
  #  "First tier" - improvements: -1014.90 meV to -62.69 meV
       hydro 2 s 2.1
       hydro 2 p 3.5
  #  "Second tier" - improvements: -12.89 meV to -1.83 meV
  #     hydro 1 s 0.85
  #     hydro 2 p 3.7
  #     hydro 2 s 1.2
  #     hydro 3 d 7
  #  "Third tier" - improvements: -0.25 meV to -0.12 meV
  #     hydro 4 f 11.2
  #     hydro 3 p 4.8
  #     hydro 4 d 9
  #     hydro 3 s 3.2
  ################################################################################
  #
  #  FHI-aims code project
  #  VB, Fritz-Haber Institut, 2009
  #
  #  Suggested "light" defaults for C atom (to be pasted into control.in file)
  #  Be sure to double-check any results obtained with these settings for post-processing,
  #  e.g., with the "tight" defaults and larger basis sets.
  #
  ################################################################################
    species        C
  #     global species definitions
      nucleus             6
      mass                12.0107
  #
      l_hartree           4
  #
      cut_pot             3.5  1.5  1.0
      basis_dep_cutoff    1e-4
  #
      radial_base         34 5.0
      radial_multiplier   1
      angular_grids specified
        division   0.3326   50
        division   0.5710  110
        division   0.7727  194
        division   0.8772  302
  #      division   0.9334  434
  #      division   0.9625  590
  #      division   0.9924  770
  #      division   1.0230  974
  #      division   1.4589 1202
  #     outer_grid  974
       outer_grid 302
  ################################################################################
  #
  #  Definition of "minimal" basis
  #
  ################################################################################
  #     valence basis states
      valence      2  s   2.
      valence      2  p   2.
  #     ion occupancy
      ion_occ      2  s   1.
      ion_occ      2  p   1.
  ################################################################################
  #
  #  Suggested additional basis functions. For production calculations,
  #  uncomment them one after another (the most important basis functions are
  #  listed first).
  #
  #  Constructed for dimers: 1.0 A, 1.25 A, 1.5 A, 2.0 A, 3.0 A
  #
  ################################################################################
  #  "First tier" - improvements: -1214.57 meV to -155.61 meV
       hydro 2 p 1.7
       hydro 3 d 6
       hydro 2 s 4.9
  #  "Second tier" - improvements: -67.75 meV to -5.23 meV
  #     hydro 4 f 9.8
  #     hydro 3 p 5.2
  #     hydro 3 s 4.3
  #     hydro 5 g 14.4
  #     hydro 3 d 6.2
  #  "Third tier" - improvements: -2.43 meV to -0.60 meV
  #     hydro 2 p 5.6
  #     hydro 2 s 1.4
  #     hydro 3 d 4.9
  #     hydro 4 f 11.2
  #  "Fourth tier" - improvements: -0.39 meV to -0.18 meV
  #     hydro 2 p 2.1
  #     hydro 5 g 16.4
  #     hydro 4 d 13.2
  #     hydro 3 s 13.6
  #     hydro 4 f 17.6
  #  Further basis functions - improvements: -0.08 meV and below
  #     hydro 3 s 2
  #     hydro 3 p 6
  #     hydro 4 d 20
  ################################################################################
  #
  #  FHI-aims code project
  #  VB, Fritz-Haber Institut, 2009
  #
  #  Suggested "light" defaults for N atom (to be pasted into control.in file)
  #  Be sure to double-check any results obtained with these settings for post-processing,
  #  e.g., with the "tight" defaults and larger basis sets.
  #
  ################################################################################
    species        N
  #     global species definitions
      nucleus             7
      mass                14.0067
  #
      l_hartree           4
  #
      cut_pot             3.5  1.5  1.0
      basis_dep_cutoff    1e-4
  #
      radial_base         35 5.0
      radial_multiplier   1
      angular_grids       specified
        division   0.2599   50
        division   0.4601  110
        division   0.5885  194
        division   0.6503  302
  #      division   0.6939  434
  #      division   0.7396  590
  #      division   0.7632  770
  #      division   0.8122  974
  #      division   1.1604 1202
  #      outer_grid  974
        outer_grid  302
  ################################################################################
  #
  #  Definition of "minimal" basis
  #
  ################################################################################
  #     valence basis states
      valence      2  s   2.
      valence      2  p   3.
  #     ion occupancy
      ion_occ      2  s   1.
      ion_occ      2  p   2.
  ################################################################################
  #
  #  Suggested additional basis functions. For production calculations,
  #  uncomment them one after another (the most important basis functions are
  #  listed first).
  #
  #  Constructed for dimers: 1.0 A, 1.1 A, 1.5 A, 2.0 A, 3.0 A
  #
  ################################################################################
  #  "First tier" - improvements: -1193.42 meV to -220.60 meV
       hydro 2 p 1.8
       hydro 3 d 6.8
       hydro 3 s 5.8
  #  "Second tier" - improvements: -80.21 meV to -6.86 meV
  #     hydro 4 f 10.8
  #     hydro 3 p 5.8
  #     hydro 1 s 0.8
  #     hydro 5 g 16
  #     hydro 3 d 4.9
  #  "Third tier" - improvements: -4.29 meV to -0.53 meV
  #     hydro 3 s 16
  #     ionic 2 p auto
  #     hydro 3 d 6.6
  #     hydro 4 f 11.6
  #  "Fourth tier" - improvements: -0.75 meV to -0.25 meV
  #     hydro 2 p 4.5
  #     hydro 2 s 2.4
  #     hydro 5 g 14.4
  #     hydro 4 d 14.4
  #     hydro 4 f 16.8
  # Further basis functions - -0.21 meV and below
  #     hydro 3 p 14.8
  #     hydro 3 s 4.4
  #     hydro 3 d 19.6
  #     hydro 5 g 12.8
  ################################################################################
  #
  #  FHI-aims code project
  #  VB, Fritz-Haber Institut, 2009
  #
  #  Suggested "light" defaults for O atom (to be pasted into control.in file)
  #  Be sure to double-check any results obtained with these settings for post-processing,
  #  e.g., with the "tight" defaults and larger basis sets.
  #
  ################################################################################
    species        O
  #     global species definitions
      nucleus             8
      mass                15.9994
  #
      l_hartree           4
  #
      cut_pot             3.5  1.5  1.0
      basis_dep_cutoff    1e-4
  #
      radial_base         36 5.0
      radial_multiplier   1
       angular_grids specified
        division   0.2659   50
        division   0.4451  110
        division   0.6052  194
        division   0.7543  302
  #      division   0.8014  434
  #      division   0.8507  590
  #      division   0.8762  770
  #      division   0.9023  974
  #      division   1.2339 1202
  #      outer_grid 974
        outer_grid 302
  ################################################################################
  #
  #  Definition of "minimal" basis
  #
  ################################################################################
  #     valence basis states
      valence      2  s   2.
      valence      2  p   4.
  #     ion occupancy
      ion_occ      2  s   1.
      ion_occ      2  p   3.
  ################################################################################
  #
  #  Suggested additional basis functions. For production calculations,
  #  uncomment them one after another (the most important basis functions are
  #  listed first).
  #
  #  Constructed for dimers: 1.0 A, 1.208 A, 1.5 A, 2.0 A, 3.0 A
  #
  ################################################################################
  #  "First tier" - improvements: -699.05 meV to -159.38 meV
       hydro 2 p 1.8
       hydro 3 d 7.6
       hydro 3 s 6.4
  #  "Second tier" - improvements: -49.91 meV to -5.39 meV
  #     hydro 4 f 11.6
  #     hydro 3 p 6.2
  #     hydro 3 d 5.6
  #     hydro 5 g 17.6
  #     hydro 1 s 0.75
  #  "Third tier" - improvements: -2.83 meV to -0.50 meV
  #     ionic 2 p auto
  #     hydro 4 f 10.8
  #     hydro 4 d 4.7
  #     hydro 2 s 6.8
  #  "Fourth tier" - improvements: -0.40 meV to -0.12 meV
  #     hydro 3 p 5
  #     hydro 3 s 3.3
  #     hydro 5 g 15.6
  #     hydro 4 f 17.6
  #     hydro 4 d 14
  # Further basis functions - -0.08 meV and below
  #     hydro 3 s 2.1
  #     hydro 4 d 11.6
  #     hydro 3 p 16
  #     hydro 2 s 17.2
  
  -----------------------------------------------------------------------
  Completed first pass over input file control.in .
  -----------------------------------------------------------------------
  
  
  -----------------------------------------------------------------------
  Parsing geometry.in (first pass over file, find array dimensions only).
  The contents of geometry.in will be repeated verbatim below
  unless switched off by setting 'verbatim_writeout .false.' .
  in the first line of geometry.in .
  -----------------------------------------------------------------------
  
  atom  0.00000 0.00000 0.00000 C
  atom  1.09300 0.00000 0.00000 H
  atom  -0.47961 0.00000 -1.41207 N
  atom  -1.20027 -0.71578 -1.51273 H
  atom  -0.86312 0.91807 -1.62701 H
  atom  -0.49584 1.26211 0.72868 C
  atom  -1.58789 1.28919 0.74431 H
  atom  -0.13407 1.27425 1.75947 H
  atom  -0.13407 2.16087 0.22380 H
  atom  -0.39425 -1.28861 0.74398 C
  atom  -0.10189 -1.56493 1.88303 O
  atom  -1.10210 -2.13717 0.06896 O
  atom  -0.72674 -1.96647 -0.81135 H
  
  -----------------------------------------------------------------------
  Completed first pass over input file geometry.in .
  -----------------------------------------------------------------------
  

  Basic array size parameters:
  | Number of species                 :        4
  | Number of atoms                   :       13
  | Max. basis fn. angular momentum   :        2
  | Max. atomic/ionic basis occupied n:        2
  | Max. number of basis fn. types    :        2
  | Max. radial fns per species/type  :        3
  | Max. logarithmic grid size        :     1301
  | Max. radial integration grid size :       36
  | Max. angular integration grid size:      302
  | Max. angular grid division number :        8
  | Radial grid for Hartree potential :     1301
  | Number of spin channels           :        1

------------------------------------------------------------
          Reading file control.in.
------------------------------------------------------------
  XC: Using PBE gradient-corrected functionals.
  Spin treatment: No spin polarisation.
  Non-relativistic treatment of kinetic energy.
  Charge =   0.000000E+00: Neutral system requested explicitly.
  Occupation type: Gaussian broadening, width =   0.100000E-01 eV.
  Using pulay charge density mixing.
  Pulay mixing - number of memorized iterations:   10
  Charge density mixing - mixing parameter:     0.2000
  Convergence accuracy of self-consistent charge density:  0.1000E-04
  Convergence accuracy of sum of eigenvalues:  0.1000E-02
  Convergence accuracy of total energy:  0.1000E-05
  Convergence accuracy of forces:  0.1000E-03
  Maximum number of s.-c. iterations  :   100
 
  Reading configuration options for species H                   .
  | Found nuclear charge :   1.0000
  | Found atomic mass :    1.00794000000000      amu
  | Found l_max for Hartree potential  :   4
  | Found cutoff potl. onset [A], width [A], scale factor :    3.50000    1.50000    1.00000
  | Threshold for basis-dependent cutoff potential is   0.100000E-03
  | Found data for basic radial integration grid :    24 points, outermost radius =    5.000 A
  | Found multiplier for basic radial grid :   1
  | Found angular grid specification: user-specified.
  | Specified grid contains     5 separate shells.
  | Check grid settings after all constraints further below.
  | Found free-atom valence shell :  1 s   1.000
  | No ionic wave fns used. Skipping ion_occ.
  | Found hydrogenic basis function :  2 s   2.100
  | Found hydrogenic basis function :  2 p   3.500
  Species H                   : Missing cutoff potential type.
  Defaulting to exp(1/x)/(1-x)^2 type cutoff potential.
  Species H : No 'logarithmic' tag. Using default grid for free atom:
  | Default logarithmic grid data [bohr] : 0.1000E-03 0.1000E+03 0.1012E+01
  Species H : On-site basis accuracy parameter (for Gram-Schmidt orthonormalisation) not specified.
  Using default value basis_acc =  0.1000000E-03.
  Species H                   : Using default innermost maximum threshold i_radial=  2 for radial functions.
  Species H                   : Default cutoff onset for free atom density etc. : 0.35000000E+01 AA.
  Species H                   : Basic radial grid will be enhanced according to radial_multiplier =   1, to contain    24 grid points.
 
  Reading configuration options for species C                   .
  | Found nuclear charge :   6.0000
  | Found atomic mass :    12.0107000000000      amu
  | Found l_max for Hartree potential  :   4
  | Found cutoff potl. onset [A], width [A], scale factor :    3.50000    1.50000    1.00000
  | Threshold for basis-dependent cutoff potential is   0.100000E-03
  | Found data for basic radial integration grid :    34 points, outermost radius =    5.000 A
  | Found multiplier for basic radial grid :   1
  | Found angular grid specification: user-specified.
  | Specified grid contains     5 separate shells.
  | Check grid settings after all constraints further below.
  | Found free-atom valence shell :  2 s   2.000
  | Found free-atom valence shell :  2 p   2.000
  | No ionic wave fns used. Skipping ion_occ.
  | No ionic wave fns used. Skipping ion_occ.
  | Found hydrogenic basis function :  2 p   1.700
  | Found hydrogenic basis function :  3 d   6.000
  | Found hydrogenic basis function :  2 s   4.900
  Species C                   : Missing cutoff potential type.
  Defaulting to exp(1/x)/(1-x)^2 type cutoff potential.
  Species C : No 'logarithmic' tag. Using default grid for free atom:
  | Default logarithmic grid data [bohr] : 0.1000E-03 0.1000E+03 0.1012E+01
  Species C : On-site basis accuracy parameter (for Gram-Schmidt orthonormalisation) not specified.
  Using default value basis_acc =  0.1000000E-03.
  Species C                   : Using default innermost maximum threshold i_radial=  2 for radial functions.
  Species C                   : Default cutoff onset for free atom density etc. : 0.35000000E+01 AA.
  Species C                   : Basic radial grid will be enhanced according to radial_multiplier =   1, to contain    34 grid points.
 
  Reading configuration options for species N                   .
  | Found nuclear charge :   7.0000
  | Found atomic mass :    14.0067000000000      amu
  | Found l_max for Hartree potential  :   4
  | Found cutoff potl. onset [A], width [A], scale factor :    3.50000    1.50000    1.00000
  | Threshold for basis-dependent cutoff potential is   0.100000E-03
  | Found data for basic radial integration grid :    35 points, outermost radius =    5.000 A
  | Found multiplier for basic radial grid :   1
  | Found angular grid specification: user-specified.
  | Specified grid contains     5 separate shells.
  | Check grid settings after all constraints further below.
  | Found free-atom valence shell :  2 s   2.000
  | Found free-atom valence shell :  2 p   3.000
  | No ionic wave fns used. Skipping ion_occ.
  | No ionic wave fns used. Skipping ion_occ.
  | Found hydrogenic basis function :  2 p   1.800
  | Found hydrogenic basis function :  3 d   6.800
  | Found hydrogenic basis function :  3 s   5.800
  Species N                   : Missing cutoff potential type.
  Defaulting to exp(1/x)/(1-x)^2 type cutoff potential.
  Species N : No 'logarithmic' tag. Using default grid for free atom:
  | Default logarithmic grid data [bohr] : 0.1000E-03 0.1000E+03 0.1012E+01
  Species N : On-site basis accuracy parameter (for Gram-Schmidt orthonormalisation) not specified.
  Using default value basis_acc =  0.1000000E-03.
  Species N                   : Using default innermost maximum threshold i_radial=  2 for radial functions.
  Species N                   : Default cutoff onset for free atom density etc. : 0.35000000E+01 AA.
  Species N                   : Basic radial grid will be enhanced according to radial_multiplier =   1, to contain    35 grid points.
 
  Reading configuration options for species O                   .
  | Found nuclear charge :   8.0000
  | Found atomic mass :    15.9994000000000      amu
  | Found l_max for Hartree potential  :   4
  | Found cutoff potl. onset [A], width [A], scale factor :    3.50000    1.50000    1.00000
  | Threshold for basis-dependent cutoff potential is   0.100000E-03
  | Found data for basic radial integration grid :    36 points, outermost radius =    5.000 A
  | Found multiplier for basic radial grid :   1
  | Found angular grid specification: user-specified.
  | Specified grid contains     5 separate shells.
  | Check grid settings after all constraints further below.
  | Found free-atom valence shell :  2 s   2.000
  | Found free-atom valence shell :  2 p   4.000
  | No ionic wave fns used. Skipping ion_occ.
  | No ionic wave fns used. Skipping ion_occ.
  | Found hydrogenic basis function :  2 p   1.800
  | Found hydrogenic basis function :  3 d   7.600
  | Found hydrogenic basis function :  3 s   6.400
  Species O                   : Missing cutoff potential type.
  Defaulting to exp(1/x)/(1-x)^2 type cutoff potential.
  Species O : No 'logarithmic' tag. Using default grid for free atom:
  | Default logarithmic grid data [bohr] : 0.1000E-03 0.1000E+03 0.1012E+01
  Species O : On-site basis accuracy parameter (for Gram-Schmidt orthonormalisation) not specified.
  Using default value basis_acc =  0.1000000E-03.
  Species O                   : Using default innermost maximum threshold i_radial=  2 for radial functions.
  Species O                   : Default cutoff onset for free atom density etc. : 0.35000000E+01 AA.
  Species O                   : Basic radial grid will be enhanced according to radial_multiplier =   1, to contain    36 grid points.
 
  Finished reading input file 'control.in'. Consistency checks are next.
 
  MPI_IN_PLACE appears to work with this MPI implementation.
  | Keeping use_mpi_in_place .true. (see manual).
  Target number of points in a grid batch is not set. Defaulting to  100
  Method for grid partitioning is not set. Defaulting to parallel hash+maxmin partitioning.
  Batch size limit is not set. Defaulting to    200
  By default, will store active basis functions for each batch.
  If in need of memory, prune_basis_once .false. can be used to disable this option.
  communication_type for Hartree potential was not specified.
  Defaulting to calc_hartree .
  Pulay mixer: Number of initial linear mixing iterations not set.
  Defaulting to    0 iterations.
  Work space size for distributed Hartree potential not set.
  Defaulting to   0.200000E+03 MB.
  Algorithm-dependent basis array size parameters:
  | n_max_pulay                         :       10
  Presetting      1001 iterations before the initial mixing cycle
  is restarted anyway using the sc_init_iter criterion / keyword.
  Presetting a factor      1.000 between actual scf density residual
  and density convergence criterion sc_accuracy_rho below which sc_init_iter
  takes no effect.
  Geometry relaxation not requested: no relaxation will be performed.
  Handling of forces: Unphysical translation and rotation will be removed from forces.
  No accuracy limit for integral partition fn. given. Defaulting to  0.1000E-14.
  No threshold value for u(r) in integrations given. Defaulting to  0.1000E-05.
  No accuracy for occupation numbers given. Defaulting to  0.1000E-12.
  No threshold value for occupation numbers given. Defaulting to  0.0000E+00.
  No accuracy for fermi level given. Defaulting to  0.1000E-19.
  Maximum # of iterations to find E_F not set. Defaulting to  200.
  Preferred method for the eigenvalue solver ('KS_method') not specified in 'control.in'.
  Defaulting to serial version, 'lapack_fast'.
  Will not use alltoall communication since running on < 1024 CPUs.
  Threshold for basis singularities not set.
  Default threshold for basis singularities:  0.1000E-04
  partition_type (choice of integration weights) for integrals was not specified.
  | Using a version of the partition function of Stratmann and coworkers ('stratmann_smoother').
  | At each grid point, the set of atoms used to build the partition table is smoothly restricted to
  | only those atoms whose free-atom density would be non-zero at that grid point.
  Partitioning for Hartree potential was not defined. Using partition_type for integrals.
  | Adjusted default value of keyword multip_moments_threshold to:       0.10000000E-11
  | This value may affect high angular momentum components of the Hartree potential in periodic systems.
  No q(lm)/r^(l+1) cutoff set for long-range Hartree potential.
  | Using default value of  0.100000E-09 .
  | Verify using the multipole_threshold keyword.
  Defaulting to new monopole extrapolation.
  Density update method: automatic selection selected.
------------------------------------------------------------


------------------------------------------------------------
          Reading geometry description geometry.in.
------------------------------------------------------------
  Input structure read successfully.
  The structure contains       13 atoms,  and a total of         48.000 electrons.

  Input geometry:
  | No unit cell requested.
  | Atomic structure:
  |       Atom                x [A]            y [A]            z [A]
  |    1: Species C             0.00000000        0.00000000        0.00000000
  |    2: Species H             1.09300000        0.00000000        0.00000000
  |    3: Species N            -0.47961000        0.00000000       -1.41207000
  |    4: Species H            -1.20027000       -0.71578000       -1.51273000
  |    5: Species H            -0.86312000        0.91807000       -1.62701000
  |    6: Species C            -0.49584000        1.26211000        0.72868000
  |    7: Species H            -1.58789000        1.28919000        0.74431000
  |    8: Species H            -0.13407000        1.27425000        1.75947000
  |    9: Species H            -0.13407000        2.16087000        0.22380000
  |   10: Species C            -0.39425000       -1.28861000        0.74398000
  |   11: Species O            -0.10189000       -1.56493000        1.88303000
  |   12: Species O            -1.10210000       -2.13717000        0.06896000
  |   13: Species H            -0.72674000       -1.96647000       -0.81135000
  |

  | The smallest distance between any two atoms is         0.97210047 AA.
  |
  | The first atom of this pair is atom number                     12 .
  | The second atom of this pair is atom number                    13 .

  Number of empty states per atom not set in control.in - providing a guess from actual geometry.
  | Total number of empty states used during s.c.f. cycle:       29
  If you use a very high smearing, use empty_states (per atom!) in control.in to increase this value.

  Structure-dependent array size parameters: 
  | Maximum number of distinct radial functions  :       21
  | Maximum number of basis functions            :      119
  | Number of Kohn-Sham states (occupied + empty):       53
------------------------------------------------------------

------------------------------------------------------------
          Preparing all fixed parts of the calculation.
------------------------------------------------------------
  Determining machine precision:
    2.225073858507201E-308
  Setting up grids for atomic and cluster calculations.

  Creating wave function, potential, and density for free atoms.

  Species: H

  List of occupied orbitals and eigenvalues:
    n    l              occ      energy [Ha]    energy [eV]
    1    0           1.0000        -0.237589        -6.4651


  Species: C

  List of occupied orbitals and eigenvalues:
    n    l              occ      energy [Ha]    energy [eV]
    1    0           2.0000       -10.038835      -273.1706
    2    0           2.0000        -0.502696       -13.6791
    2    1           2.0000        -0.191971        -5.2238


  Species: N

  List of occupied orbitals and eigenvalues:
    n    l              occ      energy [Ha]    energy [eV]
    1    0           2.0000       -14.128000      -384.4424
    2    0           2.0000        -0.681077       -18.5330
    2    1           3.0000        -0.259788        -7.0692


  Species: O

  List of occupied orbitals and eigenvalues:
    n    l              occ      energy [Ha]    energy [eV]
    1    0           2.0000       -18.898188      -514.2459
    2    0           2.0000        -0.878505       -23.9053
    2    1           4.0000        -0.331779        -9.0282

  Creating fixed part of basis set: Ionic, confined, hydrogenic.
 
  H                    hydrogenic:
 
  List of hydrogenic basis orbitals: 
    n    l      effective z      eigenvalue [eV]  inner max. [A]     outer max. [A]     outer radius [A]   
    2    0         2.100000       -14.9728           0.193243           1.317208           4.583499
    2    1         3.500000       -41.6669           0.602369           0.602369           3.723403
 
 
  C                    hydrogenic:
 
  List of hydrogenic basis orbitals: 
    n    l      effective z      eigenvalue [eV]  inner max. [A]     outer max. [A]     outer radius [A]   
    2    1         1.700000        -9.7616           1.230570           1.230570           4.607917
    3    2         6.000000       -54.4224           0.792453           0.792453           3.883070
    2    0         4.900000       -81.6679           0.082559           0.562749           3.078220
 
 
  N                    hydrogenic:
 
  List of hydrogenic basis orbitals: 
    n    l      effective z      eigenvalue [eV]  inner max. [A]     outer max. [A]     outer radius [A]   
    2    1         1.800000       -10.9749           1.177451           1.177451           4.573712
    3    2         6.800000       -69.9026           0.704619           0.704619           3.538137
    3    0         5.800000       -50.8545           0.067388           1.191934           4.250239
 
 
  O                    hydrogenic:
 
  List of hydrogenic basis orbitals: 
    n    l      effective z      eigenvalue [eV]  inner max. [A]     outer max. [A]     outer radius [A]   
    2    1         1.800000       -10.9749           1.164242           1.164242           4.578029
    3    2         7.600000       -87.3180           0.624125           0.624125           3.251020
    3    0         6.400000       -61.9207           0.061167           1.081902           4.001998
 

  Adding cutoff potential to free-atom effective potential.
  Creating atomic-like basis functions for current effective potential.

  Species H                   :

  List of atomic basis orbitals and eigenvalues:
    n    l      energy [Ha]    energy [eV]    outer radius [A]
    1    0        -0.237589        -6.4651       4.527807


  Species C                   :

  List of atomic basis orbitals and eigenvalues:
    n    l      energy [Ha]    energy [eV]    outer radius [A]
    1    0       -10.038835      -273.1706       1.934409
    2    0        -0.502696       -13.6791       4.496620
    2    1        -0.191971        -5.2238       4.551928


  Species N                   :

  List of atomic basis orbitals and eigenvalues:
    n    l      energy [Ha]    energy [eV]    outer radius [A]
    1    0       -14.128000      -384.4424       1.637919
    2    0        -0.681077       -18.5330       4.463241
    2    1        -0.259788        -7.0692       4.518138


  Species O                   :

  List of atomic basis orbitals and eigenvalues:
    n    l      energy [Ha]    energy [eV]    outer radius [A]
    1    0       -18.898188      -514.2459       1.415765
    2    0        -0.878505       -23.9053       4.413171
    2    1        -0.331779        -9.0282       4.522403

  Assembling full basis from fixed parts.
  | Species H :   atomic orbital   1 s accepted.
  | Species H :    hydro orbital   2 s accepted.
  | Species H :    hydro orbital   2 p accepted.
  | Species C :   atomic orbital   1 s accepted.
  | Species C :    hydro orbital   2 s accepted.
  | Species C :   atomic orbital   2 s accepted.
  | Species C :   atomic orbital   2 p accepted.
  | Species C :    hydro orbital   2 p accepted.
  | Species C :    hydro orbital   3 d accepted.
  | Species N :   atomic orbital   1 s accepted.
  | Species N :    hydro orbital   3 s accepted.
  | Species N :   atomic orbital   2 s accepted.
  | Species N :   atomic orbital   2 p accepted.
  | Species N :    hydro orbital   2 p accepted.
  | Species N :    hydro orbital   3 d accepted.
  | Species O :   atomic orbital   1 s accepted.
  | Species O :    hydro orbital   3 s accepted.
  | Species O :   atomic orbital   2 s accepted.
  | Species O :   atomic orbital   2 p accepted.
  | Species O :    hydro orbital   2 p accepted.
  | Species O :    hydro orbital   3 d accepted.
 
  Basis size parameters after reduction:
  | Total number of radial functions:       21
  | Total number of basis functions :      119
 
  Per-task memory consumption for arrays in subroutine allocate_ext:
  |           5.250512MB.
  Testing on-site integration grid accuracy.
  |  Species  Function  <phi|h_atom|phi> (log., in eV)  <phi|h_atom|phi> (rad., in eV)
           1        1                 -6.4663192853                 -6.4651273558
           1        2                 13.7111246313                 13.7170609718
           1        3                 25.2673269279                 25.2674696378
           2        4               -273.1705927641               -273.1705631568
           2        5                -10.7109323383                -10.7107120029
           2        6                 17.4381822266                 17.4352413244
           2        7                 -5.2255326521                 -5.2270484734
           2        8                  8.6835629259                  8.6603288385
           2        9                 27.4952418996                 27.4953360207
           3       10               -384.4424306495               -384.4423701208
           3       11                 12.5842251816                 12.5842222903
           3       12                -15.7264628251                -15.7264433455
           3       13                 -7.0696854293                 -7.0701769954
           3       14                  8.8090390882                  8.7901077751
           3       15                 35.9586762123                 35.9588528632
           4       16               -514.2458688638               -514.2457643834
           4       17                 15.1795651126                 15.1795290741
           4       18                -21.5359799773                -21.5360846186
           4       19                 -9.0283069236                 -9.0284644067
           4       20                  8.3027758564                  8.2834874195
           4       21                 45.8339351984                 45.8338762259

  Preparing densities etc. for the partition functions (integrals / Hartree potential).

  Preparations completed.
  max(cpu_time)          :      0.145 s.
  Wall clock time (cpu1) :      0.147 s.
------------------------------------------------------------

------------------------------------------------------------
          Begin self-consistency loop: Initialization.

          Date     :  20200710, Time     :  150639.360
------------------------------------------------------------

  Initializing index lists of integration centers etc. from given atomic structure:
  | Number of centers in hartree potential         :        13
  | Number of centers in hartree multipole         :        13
  | Number of centers in electron density summation:        13
  | Number of centers in basis integrals           :        13
  | Number of centers in integrals                 :        13
  | Number of centers in hamiltonian               :        13
  Partitioning the integration grid into batches with parallel hashing+maxmin method.
  | Number of batches:      962
  | Maximal batch size:     138
  | Minimal batch size:      66
  | Average batch size:      72.397
  | Standard deviation of batch sizes:      16.754

  Integration load balanced across     1 MPI tasks.
  Work distribution over tasks is as follows:
  Task     0 has      69646 integration points.
  Initializing partition tables, free-atom densities, potentials, etc. across the integration grid (initialize_grid_storage).
  | initialize_grid_storage: Actual outermost partition radius vs. multipole_radius_free
  | (-- VB: in principle, multipole_radius_free should be larger, hence this output)
  | Species        1: Confinement radius =              4.999999999999999 AA, multipole_radius_free =              5.054417573612229 AA.
  | Species        1: outer_partition_radius set to              5.054417573612229 AA .
  | Species        2: Confinement radius =              4.999999999999999 AA, multipole_radius_free =              5.019602836301480 AA.
  | Species        2: outer_partition_radius set to              5.019602836301480 AA .
  | Species        3: Confinement radius =              4.999999999999999 AA, multipole_radius_free =              5.043624274424571 AA.
  | Species        3: outer_partition_radius set to              5.043624274424571 AA .
  | Species        4: Confinement radius =              4.999999999999999 AA, multipole_radius_free =              5.048384829883283 AA.
  | Species        4: outer_partition_radius set to              5.048384829883283 AA .
  | Original list of interatomic distances with          13 x         13 entries is created.
  | Net number of integration points:    69646
  | of which are non-zero points    :    59308
  Renormalizing the initial density to the exact electron count on the 3D integration grid.
  | Initial density: Formal number of electrons (from input files) :      48.0000000000
  | Integrated number of electrons on 3D grid     :      47.9998887114
  | Charge integration error                      :      -0.0001112886
  | Normalization factor for density and gradient :       1.0000023185
  Obtaining max. number of non-zero basis functions in each batch (get_n_compute_maxes).
  | Maximal number of non-zero basis functions:      119 in task     0
  Selecting the method for density update.
  Loop over occupied states selected for charge density update.
  Allocating        0.050 MB for KS_eigenvector
  Integrating Hamiltonian matrix: batch-based integration.
  Time summed over all CPUs for integration: real work        0.495 s, elapsed        0.495 s
  Integrating overlap matrix.
  Time summed over all CPUs for integration: real work        0.212 s, elapsed        0.212 s

  Updating Kohn-Sham eigenvalues and eigenvectors using ELSI and the ELPA eigensolver.
  Overlap matrix is nonsingular
  | Lowest eigenvalue of overlap  :  0.50E-02
  | Highest eigenvalue of overlap :  0.64E+01
  Finished singularity check of overlap matrix
  | Time :     0.002 s
  Finished Cholesky decomposition
  | Time :     0.000 s
  Finished transformation to standard eigenproblem
  | Time :     0.000 s
  Starting LAPACK eigensolver
  Finished solving standard eigenproblem
  | Time :     0.002 s
  Finished back-transformation of eigenvectors
  | Time :     0.000 s

  Obtaining occupation numbers and chemical potential using ELSI.
  | Chemical potential (Fermi level):    -9.72272968eV
  Writing Kohn-Sham eigenvalues.

  State    Occupation    Eigenvalue [Ha]    Eigenvalue [eV]
      1       2.00000         -19.008343         -517.24334
      2       2.00000         -18.977133         -516.39406
      3       2.00000         -14.246861         -387.67682
      4       2.00000         -10.166899         -276.65541
      5       2.00000         -10.141804         -275.97252
      6       2.00000         -10.132127         -275.70921
      7       2.00000          -1.183289          -32.19892
      8       2.00000          -1.102088          -29.98935
      9       2.00000          -0.993842          -27.04380
     10       2.00000          -0.859628          -23.39167
     11       2.00000          -0.756329          -20.58075
     12       2.00000          -0.684592          -18.62869
     13       2.00000          -0.648434          -17.64480
     14       2.00000          -0.594600          -16.17990
     15       2.00000          -0.580342          -15.79191
     16       2.00000          -0.565365          -15.38435
     17       2.00000          -0.557154          -15.16094
     18       2.00000          -0.528794          -14.38923
     19       2.00000          -0.517857          -14.09160
     20       2.00000          -0.505135          -13.74541
     21       2.00000          -0.470346          -12.79878
     22       2.00000          -0.429131          -11.67724
     23       2.00000          -0.407719          -11.09460
     24       2.00000          -0.385947          -10.50216
     25       0.00000          -0.152693           -4.15499
     26       0.00000          -0.071667           -1.95017
     27       0.00000          -0.027959           -0.76080
     28       0.00000          -0.019258           -0.52403
     29       0.00000           0.000611            0.01662
     30       0.00000           0.004323            0.11763
     31       0.00000           0.020785            0.56558
     32       0.00000           0.030237            0.82279
     33       0.00000           0.057743            1.57127
     34       0.00000           0.062040            1.68819
     35       0.00000           0.091886            2.50033
     36       0.00000           0.129314            3.51881
     37       0.00000           0.160560            4.36906
     38       0.00000           0.201482            5.48261
     39       0.00000           0.218964            5.95831
     40       0.00000           0.237559            6.46432
     41       0.00000           0.248839            6.77126
     42       0.00000           0.262714            7.14881
     43       0.00000           0.288733            7.85683
     44       0.00000           0.309111            8.41134
     45       0.00000           0.335976            9.14237
     46       0.00000           0.354590            9.64887
     47       0.00000           0.371663           10.11347
     48       0.00000           0.382987           10.42160
     49       0.00000           0.449059           12.21951
     50       0.00000           0.486401           13.23565
     51       0.00000           0.514621           14.00354
     52       0.00000           0.543238           14.78227
     53       0.00000           0.559960           15.23730

  Highest occupied state (VBM) at    -10.50216238 eV
  | Occupation number:      2.00000000

  Lowest unoccupied state (CBM) at    -4.15498619 eV
  | Occupation number:      0.00000000

  Overall HOMO-LUMO gap:      6.34717619 eV.
  Calculating total energy contributions from superposition of free atom densities.

  Total energy components:
  | Sum of eigenvalues            :        -188.88751916 Ha       -5139.89091118 eV
  | XC energy correction          :         -41.81313017 Ha       -1137.79316209 eV
  | XC potential correction       :          53.75362816 Ha        1462.71064402 eV
  | Free-atom electrostatic energy:        -146.80214387 Ha       -3994.68958228 eV
  | Hartree energy correction     :           0.00000000 Ha           0.00000000 eV
  | vdW energy correction         :           0.00000000 Ha           0.00000000 eV
  | Entropy correction            :           0.00000000 Ha           0.00000000 eV
  | ---------------------------
  | Total energy                  :        -323.74916504 Ha       -8809.66301153 eV
  | Total energy, T -> 0          :        -323.74916504 Ha       -8809.66301153 eV  <-- do not rely on this value for anything but (periodic) metals
  | Electronic free energy        :        -323.74916504 Ha       -8809.66301153 eV

  Derived energy quantities:
  | Kinetic energy                :         320.55598891 Ha        8722.77226809 eV
  | Electrostatic energy          :        -602.49202379 Ha      -16394.64211753 eV
  | Energy correction for multipole
  | error in Hartree potential    :           0.00000000 Ha           0.00000000 eV
  | Sum of eigenvalues per atom                           :        -395.37622394 eV
  | Total energy (T->0) per atom                          :        -677.66638550 eV  <-- do not rely on this value for anything but (periodic) metals
  | Electronic free energy per atom                       :        -677.66638550 eV
  Initialize hartree_potential_storage
  Max. number of atoms included in rho_multipole:           13

  End scf initialization - timings             :  max(cpu_time)    wall_clock(cpu1)
  | Time for scf. initialization               :        1.150 s           1.153 s
  | Boundary condition initialization          :        0.000 s           0.000 s
  | Integration                                :        0.706 s           0.707 s
  | Solution of K.-S. eqns.                    :        0.004 s           0.005 s
  | Grid partitioning                          :        0.111 s           0.111 s
  | Preloading free-atom quantities on grid    :        0.002 s           0.003 s
  | Free-atom superposition energy             :        0.084 s           0.084 s
  | Total energy evaluation                    :        0.000 s           0.000 s

  Partial memory accounting:
  | Current value for overall tracked memory usage on task 0  :           0.165 MB
  | Peak value for overall tracked memory usage on task 0     :           0.676 MB after allocating wave
  | Largest tracked array allocation on task 0 so far         :           0.131 MB  when allocating H_times_psi
  Note:  These values currently only include a subset of arrays which are explicitly tracked.
  The "true" memory usage will be greater.
------------------------------------------------------------

------------------------------------------------------------
          Begin self-consistency iteration #    1

  Date     :  20200710, Time     :  150640.513
------------------------------------------------------------
  Evaluating new KS density.
  Integration grid: deviation in total charge (<rho> - N_e) =  -3.552714E-14
  Pulay mixing of updated and previous charge densities.

  Evaluating partitioned Hartree potential by multipole expansion.
  | Analytical far-field extrapolation by fixed multipoles:
  | Hartree multipole sum: apparent total charge =  -0.211442E-03
  Summing up the Hartree potential.
  Time summed over all CPUs for potential: real work        0.284 s, elapsed        0.284 s
  | RMS charge density error from multipole expansion :   0.591616E-02

  Integrating Hamiltonian matrix: batch-based integration.
  Time summed over all CPUs for integration: real work        0.500 s, elapsed        0.500 s

  Updating Kohn-Sham eigenvalues and eigenvectors using ELSI and the ELPA eigensolver.
  Finished Cholesky decomposition
  | Time :     0.000 s
  Finished transformation to standard eigenproblem
  | Time :     0.000 s
  Starting LAPACK eigensolver
  Finished solving standard eigenproblem
  | Time :     0.002 s
  Finished back-transformation of eigenvectors
  | Time :     0.000 s

  Obtaining occupation numbers and chemical potential using ELSI.
  | Chemical potential (Fermi level):    -4.57519590eV
  Writing Kohn-Sham eigenvalues.

  State    Occupation    Eigenvalue [Ha]    Eigenvalue [eV]
      1       2.00000         -18.911237         -514.60093
      2       2.00000         -18.832680         -512.46331
      3       2.00000         -14.106851         -383.86694
      4       2.00000         -10.116973         -275.29685
      5       2.00000         -10.067432         -273.94876
      6       2.00000         -10.034632         -273.05622
      7       2.00000          -1.137496          -30.95284
      8       2.00000          -1.038180          -28.25031
      9       2.00000          -0.930860          -25.32999
     10       2.00000          -0.797306          -21.69580
     11       2.00000          -0.706471          -19.22406
     12       2.00000          -0.644516          -17.53818
     13       2.00000          -0.597480          -16.25826
     14       2.00000          -0.535403          -14.56907
     15       2.00000          -0.527791          -14.36193
     16       2.00000          -0.516471          -14.05389
     17       2.00000          -0.489972          -13.33281
     18       2.00000          -0.469264          -12.76932
     19       2.00000          -0.462239          -12.57817
     20       2.00000          -0.448400          -12.20159
     21       2.00000          -0.417206          -11.35276
     22       2.00000          -0.369885          -10.06507
     23       2.00000          -0.335683           -9.13439
     24       2.00000          -0.317692           -8.64483
     25       0.00000          -0.115915           -3.15422
     26       0.00000          -0.050496           -1.37406
     27       0.00000           0.005442            0.14808
     28       0.00000           0.020949            0.57005
     29       0.00000           0.027410            0.74585
     30       0.00000           0.033556            0.91312
     31       0.00000           0.057001            1.55109
     32       0.00000           0.063857            1.73764
     33       0.00000           0.089999            2.44901
     34       0.00000           0.098219            2.67268
     35       0.00000           0.129922            3.53535
     36       0.00000           0.157944            4.29787
     37       0.00000           0.184362            5.01675
     38       0.00000           0.229726            6.25116
     39       0.00000           0.247120            6.72447
     40       0.00000           0.271180            7.37919
     41       0.00000           0.278140            7.56858
     42       0.00000           0.299070            8.13811
     43       0.00000           0.324311            8.82496
     44       0.00000           0.347002            9.44241
     45       0.00000           0.370013           10.06855
     46       0.00000           0.387327           10.53970
     47       0.00000           0.412348           11.22056
     48       0.00000           0.417131           11.35072
     49       0.00000           0.481738           13.10877
     50       0.00000           0.518588           14.11149
     51       0.00000           0.546369           14.86745
     52       0.00000           0.574133           15.62296
     53       0.00000           0.593779           16.15756

  Highest occupied state (VBM) at     -8.64483315 eV
  | Occupation number:      2.00000000

  Lowest unoccupied state (CBM) at    -3.15421714 eV
  | Occupation number:      0.00000000

  Overall HOMO-LUMO gap:      5.49061601 eV.

  Total energy components:
  | Sum of eigenvalues            :        -185.62424047 Ha       -5051.09258000 eV
  | XC energy correction          :         -42.13447688 Ha       -1146.53745120 eV
  | XC potential correction       :          54.17141295 Ha        1474.07914674 eV
  | Free-atom electrostatic energy:        -146.80214387 Ha       -3994.68958228 eV
  | Hartree energy correction     :          -3.18313126 Ha         -86.61740873 eV
  | vdW energy correction         :           0.00000000 Ha           0.00000000 eV
  | Entropy correction            :           0.00000000 Ha           0.00000000 eV
  | ---------------------------
  | Total energy                  :        -323.57257954 Ha       -8804.85787547 eV
  | Total energy, T -> 0          :        -323.57257954 Ha       -8804.85787547 eV  <-- do not rely on this value for anything but (periodic) metals
  | Electronic free energy        :        -323.57257954 Ha       -8804.85787547 eV

  Derived energy quantities:
  | Kinetic energy                :         322.31306373 Ha        8770.58470644 eV
  | Electrostatic energy          :        -603.75116638 Ha      -16428.90513071 eV
  | Energy correction for multipole
  | error in Hartree potential    :           0.01182380 Ha           0.32174210 eV
  | Sum of eigenvalues per atom                           :        -388.54558308 eV
  | Total energy (T->0) per atom                          :        -677.29675965 eV  <-- do not rely on this value for anything but (periodic) metals
  | Electronic free energy per atom                       :        -677.29675965 eV

  Self-consistency convergence accuracy:
  | Change of charge density      :  0.5795E+00
  | Change of sum of eigenvalues  :  0.8880E+02 eV
  | Change of total energy        :  0.4805E+01 eV

  End self-consistency iteration #     1       :  max(cpu_time)    wall_clock(cpu1)
  | Time for this iteration                    :        1.188 s           1.201 s
  | Charge density update                      :        0.394 s           0.398 s
  | Density mixing                             :        0.005 s           0.006 s
  | Hartree multipole update                   :        0.009 s           0.008 s
  | Hartree multipole summation                :        0.285 s           0.286 s
  | Integration                                :        0.493 s           0.501 s
  | Solution of K.-S. eqns.                    :        0.002 s           0.002 s
  | Total energy evaluation                    :        0.000 s           0.000 s

  Partial memory accounting:
  | Current value for overall tracked memory usage on task 0  :           0.165 MB
  | Peak value for overall tracked memory usage on task 0     :           0.691 MB after allocating gradient_basis_wave
  | Largest tracked array allocation on task 0 so far         :           0.394 MB  when allocating gradient_basis_wave
  Note:  These values currently only include a subset of arrays which are explicitly tracked.
  The "true" memory usage will be greater.
------------------------------------------------------------

------------------------------------------------------------
          Begin self-consistency iteration #    2

  Date     :  20200710, Time     :  150641.715
------------------------------------------------------------
  Evaluating new KS density.
  Integration grid: deviation in total charge (<rho> - N_e) =  -5.684342E-14
  Pulay mixing of updated and previous charge densities.

  Evaluating partitioned Hartree potential by multipole expansion.
  | Analytical far-field extrapolation by fixed multipoles:
  | Hartree multipole sum: apparent total charge =  -0.337294E-03
  Summing up the Hartree potential.
  Time summed over all CPUs for potential: real work        0.284 s, elapsed        0.284 s
  | RMS charge density error from multipole expansion :   0.140513E-01

  Integrating Hamiltonian matrix: batch-based integration.
  Time summed over all CPUs for integration: real work        0.494 s, elapsed        0.494 s

  Updating Kohn-Sham eigenvalues and eigenvectors using ELSI and the ELPA eigensolver.
  Finished Cholesky decomposition
  | Time :     0.000 s
  Finished transformation to standard eigenproblem
  | Time :     0.000 s
  Starting LAPACK eigensolver
  Finished solving standard eigenproblem
  | Time :     0.002 s
  Finished back-transformation of eigenvectors
  | Time :     0.000 s

  Obtaining occupation numbers and chemical potential using ELSI.
  | Chemical potential (Fermi level):    -3.58804662eV
  Highest occupied state (VBM) at     -6.80095806 eV
  | Occupation number:      2.00000000

  Lowest unoccupied state (CBM) at    -1.88189837 eV
  | Occupation number:      0.00000000

  Overall HOMO-LUMO gap:      4.91905969 eV.

  Checking to see if s.c.f. parameters should be adjusted.

  Total energy components:
  | Sum of eigenvalues            :        -182.19513065 Ha       -4957.78175426 eV
  | XC energy correction          :         -42.48536359 Ha       -1156.08556428 eV
  | XC potential correction       :          54.62595834 Ha        1486.44795610 eV
  | Free-atom electrostatic energy:        -146.80214387 Ha       -3994.68958228 eV
  | Hartree energy correction     :          -6.64014561 Ha        -180.68755544 eV
  | vdW energy correction         :           0.00000000 Ha           0.00000000 eV
  | Entropy correction            :           0.00000000 Ha           0.00000000 eV
  | ---------------------------
  | Total energy                  :        -323.49682539 Ha       -8802.79650015 eV
  | Total energy, T -> 0          :        -323.49682539 Ha       -8802.79650015 eV  <-- do not rely on this value for anything but (periodic) metals
  | Electronic free energy        :        -323.49682539 Ha       -8802.79650015 eV

  Derived energy quantities:
  | Kinetic energy                :         323.60706019 Ha        8805.79614165 eV
  | Electrostatic energy          :        -604.61852198 Ha      -16452.50707753 eV
  | Energy correction for multipole
  | error in Hartree potential    :           0.02593052 Ha           0.70560545 eV
  | Sum of eigenvalues per atom                           :        -381.36782725 eV
  | Total energy (T->0) per atom                          :        -677.13819232 eV  <-- do not rely on this value for anything but (periodic) metals
  | Electronic free energy per atom                       :        -677.13819232 eV

  Self-consistency convergence accuracy:
  | Change of charge density      :  0.3630E+00
  | Change of sum of eigenvalues  :  0.9331E+02 eV
  | Change of total energy        :  0.2061E+01 eV

  End self-consistency iteration #     2       :  max(cpu_time)    wall_clock(cpu1)
  | Time for this iteration                    :        1.186 s           1.187 s
  | Charge density update                      :        0.389 s           0.389 s
  | Density mixing                             :        0.007 s           0.007 s
  | Hartree multipole update                   :        0.009 s           0.009 s
  | Hartree multipole summation                :        0.285 s           0.285 s
  | Integration                                :        0.494 s           0.494 s
  | Solution of K.-S. eqns.                    :        0.002 s           0.002 s
  | Total energy evaluation                    :        0.000 s           0.001 s

  Partial memory accounting:
  | Current value for overall tracked memory usage on task 0  :           0.166 MB
  | Peak value for overall tracked memory usage on task 0     :           0.691 MB after allocating gradient_basis_wave
  | Largest tracked array allocation on task 0 so far         :           0.394 MB  when allocating gradient_basis_wave
  Note:  These values currently only include a subset of arrays which are explicitly tracked.
  The "true" memory usage will be greater.
------------------------------------------------------------

------------------------------------------------------------
          Begin self-consistency iteration #    3

  Date     :  20200710, Time     :  150642.902
------------------------------------------------------------
  Evaluating new KS density.
  Integration grid: deviation in total charge (<rho> - N_e) =   2.842171E-14
  Pulay mixing of updated and previous charge densities.

  Evaluating partitioned Hartree potential by multipole expansion.
  | Analytical far-field extrapolation by fixed multipoles:
  | Hartree multipole sum: apparent total charge =  -0.422340E-03
  Summing up the Hartree potential.
  Time summed over all CPUs for potential: real work        0.284 s, elapsed        0.284 s
  | RMS charge density error from multipole expansion :   0.221579E-01

  Integrating Hamiltonian matrix: batch-based integration.
  Time summed over all CPUs for integration: real work        0.493 s, elapsed        0.493 s

  Updating Kohn-Sham eigenvalues and eigenvectors using ELSI and the ELPA eigensolver.
  Finished Cholesky decomposition
  | Time :     0.000 s
  Finished transformation to standard eigenproblem
  | Time :     0.000 s
  Starting LAPACK eigensolver
  Finished solving standard eigenproblem
  | Time :     0.001 s
  Finished back-transformation of eigenvectors
  | Time :     0.000 s

  Obtaining occupation numbers and chemical potential using ELSI.
  | Chemical potential (Fermi level):    -3.11378970eV
  Highest occupied state (VBM) at     -6.16923475 eV
  | Occupation number:      2.00000000

  Lowest unoccupied state (CBM) at    -1.18241118 eV
  | Occupation number:      0.00000000

  Overall HOMO-LUMO gap:      4.98682357 eV.

  Total energy components:
  | Sum of eigenvalues            :        -180.89468666 Ha       -4922.39487271 eV
  | XC energy correction          :         -42.63831164 Ha       -1160.24749249 eV
  | XC potential correction       :          54.82076823 Ha        1491.74900289 eV
  | Free-atom electrostatic energy:        -146.80214387 Ha       -3994.68958228 eV
  | Hartree energy correction     :          -7.97037700 Ha        -216.88499318 eV
  | vdW energy correction         :           0.00000000 Ha           0.00000000 eV
  | Entropy correction            :           0.00000000 Ha           0.00000000 eV
  | ---------------------------
  | Total energy                  :        -323.48475094 Ha       -8802.46793777 eV
  | Total energy, T -> 0          :        -323.48475094 Ha       -8802.46793777 eV  <-- do not rely on this value for anything but (periodic) metals
  | Electronic free energy        :        -323.48475094 Ha       -8802.46793777 eV

  Derived energy quantities:
  | Kinetic energy                :         323.24209316 Ha        8795.86488358 eV
  | Electrostatic energy          :        -604.08853246 Ha      -16438.08532887 eV
  | Energy correction for multipole
  | error in Hartree potential    :           0.03652121 Ha           0.99379270 eV
  | Sum of eigenvalues per atom                           :        -378.64575944 eV
  | Total energy (T->0) per atom                          :        -677.11291829 eV  <-- do not rely on this value for anything but (periodic) metals
  | Electronic free energy per atom                       :        -677.11291829 eV

  Self-consistency convergence accuracy:
  | Change of charge density      :  0.2034E+00
  | Change of sum of eigenvalues  :  0.3539E+02 eV
  | Change of total energy        :  0.3286E+00 eV

  End self-consistency iteration #     3       :  max(cpu_time)    wall_clock(cpu1)
  | Time for this iteration                    :        1.185 s           1.187 s
  | Charge density update                      :        0.388 s           0.389 s
  | Density mixing                             :        0.008 s           0.008 s
  | Hartree multipole update                   :        0.009 s           0.009 s
  | Hartree multipole summation                :        0.284 s           0.284 s
  | Integration                                :        0.493 s           0.494 s
  | Solution of K.-S. eqns.                    :        0.002 s           0.002 s
  | Total energy evaluation                    :        0.000 s           0.001 s

  Partial memory accounting:
  | Current value for overall tracked memory usage on task 0  :           0.166 MB
  | Peak value for overall tracked memory usage on task 0     :           0.692 MB after allocating gradient_basis_wave
  | Largest tracked array allocation on task 0 so far         :           0.394 MB  when allocating gradient_basis_wave
  Note:  These values currently only include a subset of arrays which are explicitly tracked.
  The "true" memory usage will be greater.
------------------------------------------------------------

------------------------------------------------------------
          Begin self-consistency iteration #    4

  Date     :  20200710, Time     :  150644.093
------------------------------------------------------------
  Evaluating new KS density.
  Integration grid: deviation in total charge (<rho> - N_e) =  -2.842171E-14
  Pulay mixing of updated and previous charge densities.

  Evaluating partitioned Hartree potential by multipole expansion.
  | Analytical far-field extrapolation by fixed multipoles:
  | Hartree multipole sum: apparent total charge =  -0.449220E-03
  Summing up the Hartree potential.
  Time summed over all CPUs for potential: real work        0.284 s, elapsed        0.284 s
  | RMS charge density error from multipole expansion :   0.257302E-01

  Integrating Hamiltonian matrix: batch-based integration.
  Time summed over all CPUs for integration: real work        0.494 s, elapsed        0.494 s

  Updating Kohn-Sham eigenvalues and eigenvectors using ELSI and the ELPA eigensolver.
  Finished Cholesky decomposition
  | Time :     0.000 s
  Finished transformation to standard eigenproblem
  | Time :     0.000 s
  Starting LAPACK eigensolver
  Finished solving standard eigenproblem
  | Time :     0.002 s
  Finished back-transformation of eigenvectors
  | Time :     0.000 s

  Obtaining occupation numbers and chemical potential using ELSI.
  | Chemical potential (Fermi level):    -3.02183141eV
  Highest occupied state (VBM) at     -5.98576483 eV
  | Occupation number:      2.00000000

  Lowest unoccupied state (CBM) at    -1.10497339 eV
  | Occupation number:      0.00000000

  Overall HOMO-LUMO gap:      4.88079144 eV.

  Total energy components:
  | Sum of eigenvalues            :        -180.80806668 Ha       -4920.03782313 eV
  | XC energy correction          :         -42.67378414 Ha       -1161.21274838 eV
  | XC potential correction       :          54.86503674 Ha        1492.95361023 eV
  | Free-atom electrostatic energy:        -146.80214387 Ha       -3994.68958228 eV
  | Hartree energy correction     :          -8.06480331 Ha        -219.45446376 eV
  | vdW energy correction         :           0.00000000 Ha           0.00000000 eV
  | Entropy correction            :           0.00000000 Ha           0.00000000 eV
  | ---------------------------
  | Total energy                  :        -323.48376127 Ha       -8802.44100732 eV
  | Total energy, T -> 0          :        -323.48376127 Ha       -8802.44100732 eV  <-- do not rely on this value for anything but (periodic) metals
  | Electronic free energy        :        -323.48376127 Ha       -8802.44100732 eV

  Derived energy quantities:
  | Kinetic energy                :         322.83221724 Ha        8784.71159243 eV
  | Electrostatic energy          :        -603.64219437 Ha      -16425.93985137 eV
  | Energy correction for multipole
  | error in Hartree potential    :           0.04058863 Ha           1.10447288 eV
  | Sum of eigenvalues per atom                           :        -378.46444793 eV
  | Total energy (T->0) per atom                          :        -677.11084672 eV  <-- do not rely on this value for anything but (periodic) metals
  | Electronic free energy per atom                       :        -677.11084672 eV

  Self-consistency convergence accuracy:
  | Change of charge density      :  0.6759E-01
  | Change of sum of eigenvalues  :  0.2357E+01 eV
  | Change of total energy        :  0.2693E-01 eV

  End self-consistency iteration #     4       :  max(cpu_time)    wall_clock(cpu1)
  | Time for this iteration                    :        1.186 s           1.187 s
  | Charge density update                      :        0.387 s           0.388 s
  | Density mixing                             :        0.009 s           0.009 s
  | Hartree multipole update                   :        0.009 s           0.009 s
  | Hartree multipole summation                :        0.284 s           0.284 s
  | Integration                                :        0.494 s           0.495 s
  | Solution of K.-S. eqns.                    :        0.002 s           0.002 s
  | Total energy evaluation                    :        0.000 s           0.000 s

  Partial memory accounting:
  | Current value for overall tracked memory usage on task 0  :           0.166 MB
  | Peak value for overall tracked memory usage on task 0     :           0.692 MB after allocating gradient_basis_wave
  | Largest tracked array allocation on task 0 so far         :           0.394 MB  when allocating gradient_basis_wave
  Note:  These values currently only include a subset of arrays which are explicitly tracked.
  The "true" memory usage will be greater.
------------------------------------------------------------

------------------------------------------------------------
          Begin self-consistency iteration #    5

  Date     :  20200710, Time     :  150645.281
------------------------------------------------------------
  Evaluating new KS density.
  Integration grid: deviation in total charge (<rho> - N_e) =   0.000000E+00
  Pulay mixing of updated and previous charge densities.

  Evaluating partitioned Hartree potential by multipole expansion.
  | Analytical far-field extrapolation by fixed multipoles:
  | Hartree multipole sum: apparent total charge =  -0.444434E-03
  Summing up the Hartree potential.
  Time summed over all CPUs for potential: real work        0.284 s, elapsed        0.284 s
  | RMS charge density error from multipole expansion :   0.254842E-01

  Integrating Hamiltonian matrix: batch-based integration.
  Time summed over all CPUs for integration: real work        0.494 s, elapsed        0.494 s

  Updating Kohn-Sham eigenvalues and eigenvectors using ELSI and the ELPA eigensolver.
  Finished Cholesky decomposition
  | Time :     0.000 s
  Finished transformation to standard eigenproblem
  | Time :     0.000 s
  Starting LAPACK eigensolver
  Finished solving standard eigenproblem
  | Time :     0.001 s
  Finished back-transformation of eigenvectors
  | Time :     0.000 s

  Obtaining occupation numbers and chemical potential using ELSI.
  | Chemical potential (Fermi level):    -3.06218572eV
  Highest occupied state (VBM) at     -6.07655803 eV
  | Occupation number:      2.00000000

  Lowest unoccupied state (CBM) at    -1.17357334 eV
  | Occupation number:      0.00000000

  Overall HOMO-LUMO gap:      4.90298469 eV.

  Total energy components:
  | Sum of eigenvalues            :        -180.94937752 Ha       -4923.88308661 eV
  | XC energy correction          :         -42.65504474 Ha       -1160.70282339 eV
  | XC potential correction       :          54.84075733 Ha        1492.29293393 eV
  | Free-atom electrostatic energy:        -146.80214387 Ha       -3994.68958228 eV
  | Hartree energy correction     :          -7.91765215 Ha        -215.45027707 eV
  | vdW energy correction         :           0.00000000 Ha           0.00000000 eV
  | Entropy correction            :           0.00000000 Ha           0.00000000 eV
  | ---------------------------
  | Total energy                  :        -323.48346095 Ha       -8802.43283542 eV
  | Total energy, T -> 0          :        -323.48346095 Ha       -8802.43283542 eV  <-- do not rely on this value for anything but (periodic) metals
  | Electronic free energy        :        -323.48346095 Ha       -8802.43283542 eV

  Derived energy quantities:
  | Kinetic energy                :         322.75388803 Ha        8782.58014603 eV
  | Electrostatic energy          :        -603.58230424 Ha      -16424.31015806 eV
  | Energy correction for multipole
  | error in Hartree potential    :           0.04001131 Ha           1.08876313 eV
  | Sum of eigenvalues per atom                           :        -378.76023743 eV
  | Total energy (T->0) per atom                          :        -677.11021811 eV  <-- do not rely on this value for anything but (periodic) metals
  | Electronic free energy per atom                       :        -677.11021811 eV

  Self-consistency convergence accuracy:
  | Change of charge density      :  0.2253E-01
  | Change of sum of eigenvalues  : -0.3845E+01 eV
  | Change of total energy        :  0.8172E-02 eV

  End self-consistency iteration #     5       :  max(cpu_time)    wall_clock(cpu1)
  | Time for this iteration                    :        1.186 s           1.187 s
  | Charge density update                      :        0.386 s           0.386 s
  | Density mixing                             :        0.011 s           0.011 s
  | Hartree multipole update                   :        0.009 s           0.009 s
  | Hartree multipole summation                :        0.284 s           0.284 s
  | Integration                                :        0.494 s           0.494 s
  | Solution of K.-S. eqns.                    :        0.002 s           0.003 s
  | Total energy evaluation                    :        0.000 s           0.000 s

  Partial memory accounting:
  | Current value for overall tracked memory usage on task 0  :           0.166 MB
  | Peak value for overall tracked memory usage on task 0     :           0.692 MB after allocating gradient_basis_wave
  | Largest tracked array allocation on task 0 so far         :           0.394 MB  when allocating gradient_basis_wave
  Note:  These values currently only include a subset of arrays which are explicitly tracked.
  The "true" memory usage will be greater.
------------------------------------------------------------

------------------------------------------------------------
          Begin self-consistency iteration #    6

  Date     :  20200710, Time     :  150646.469
------------------------------------------------------------
  Evaluating new KS density.
  Integration grid: deviation in total charge (<rho> - N_e) =  -7.105427E-15
  Pulay mixing of updated and previous charge densities.

  Evaluating partitioned Hartree potential by multipole expansion.
  | Analytical far-field extrapolation by fixed multipoles:
  | Hartree multipole sum: apparent total charge =  -0.445524E-03
  Summing up the Hartree potential.
  Time summed over all CPUs for potential: real work        0.284 s, elapsed        0.284 s
  | RMS charge density error from multipole expansion :   0.258189E-01

  Integrating Hamiltonian matrix: batch-based integration.
  Time summed over all CPUs for integration: real work        0.494 s, elapsed        0.494 s

  Updating Kohn-Sham eigenvalues and eigenvectors using ELSI and the ELPA eigensolver.
  Finished Cholesky decomposition
  | Time :     0.000 s
  Finished transformation to standard eigenproblem
  | Time :     0.000 s
  Starting LAPACK eigensolver
  Finished solving standard eigenproblem
  | Time :     0.001 s
  Finished back-transformation of eigenvectors
  | Time :     0.000 s

  Obtaining occupation numbers and chemical potential using ELSI.
  | Chemical potential (Fermi level):    -3.06785020eV
  Highest occupied state (VBM) at     -6.07907377 eV
  | Occupation number:      2.00000000

  Lowest unoccupied state (CBM) at    -1.21160445 eV
  | Occupation number:      0.00000000

  Overall HOMO-LUMO gap:      4.86746932 eV.

  Total energy components:
  | Sum of eigenvalues            :        -180.99992166 Ha       -4925.25846269 eV
  | XC energy correction          :         -42.64861538 Ha       -1160.52787138 eV
  | XC potential correction       :          54.83238226 Ha        1492.06503682 eV
  | Free-atom electrostatic energy:        -146.80214387 Ha       -3994.68958228 eV
  | Hartree energy correction     :          -7.86509291 Ha        -214.02006740 eV
  | vdW energy correction         :           0.00000000 Ha           0.00000000 eV
  | Entropy correction            :           0.00000000 Ha           0.00000000 eV
  | ---------------------------
  | Total energy                  :        -323.48339155 Ha       -8802.43094694 eV
  | Total energy, T -> 0          :        -323.48339155 Ha       -8802.43094694 eV  <-- do not rely on this value for anything but (periodic) metals
  | Electronic free energy        :        -323.48339155 Ha       -8802.43094694 eV

  Derived energy quantities:
  | Kinetic energy                :         322.65790582 Ha        8779.96833714 eV
  | Electrostatic energy          :        -603.49268199 Ha      -16421.87141270 eV
  | Energy correction for multipole
  | error in Hartree potential    :           0.04013140 Ha           1.09203083 eV
  | Sum of eigenvalues per atom                           :        -378.86603559 eV
  | Total energy (T->0) per atom                          :        -677.11007284 eV  <-- do not rely on this value for anything but (periodic) metals
  | Electronic free energy per atom                       :        -677.11007284 eV

  Self-consistency convergence accuracy:
  | Change of charge density      :  0.1094E-01
  | Change of sum of eigenvalues  : -0.1375E+01 eV
  | Change of total energy        :  0.1888E-02 eV

  End self-consistency iteration #     6       :  max(cpu_time)    wall_clock(cpu1)
  | Time for this iteration                    :        1.188 s           1.189 s
  | Charge density update                      :        0.386 s           0.387 s
  | Density mixing                             :        0.012 s           0.012 s
  | Hartree multipole update                   :        0.009 s           0.009 s
  | Hartree multipole summation                :        0.285 s           0.285 s
  | Integration                                :        0.494 s           0.494 s
  | Solution of K.-S. eqns.                    :        0.002 s           0.002 s
  | Total energy evaluation                    :        0.000 s           0.000 s

  Partial memory accounting:
  | Current value for overall tracked memory usage on task 0  :           0.166 MB
  | Peak value for overall tracked memory usage on task 0     :           0.692 MB after allocating gradient_basis_wave
  | Largest tracked array allocation on task 0 so far         :           0.394 MB  when allocating gradient_basis_wave
  Note:  These values currently only include a subset of arrays which are explicitly tracked.
  The "true" memory usage will be greater.
------------------------------------------------------------

------------------------------------------------------------
          Begin self-consistency iteration #    7

  Date     :  20200710, Time     :  150647.661
------------------------------------------------------------
  Evaluating new KS density.
  Integration grid: deviation in total charge (<rho> - N_e) =  -2.131628E-14
  Pulay mixing of updated and previous charge densities.

  Evaluating partitioned Hartree potential by multipole expansion.
  | Analytical far-field extrapolation by fixed multipoles:
  | Hartree multipole sum: apparent total charge =  -0.446384E-03
  Summing up the Hartree potential.
  Time summed over all CPUs for potential: real work        0.284 s, elapsed        0.284 s
  | RMS charge density error from multipole expansion :   0.259628E-01

  Integrating Hamiltonian matrix: batch-based integration.
  Time summed over all CPUs for integration: real work        0.495 s, elapsed        0.495 s

  Updating Kohn-Sham eigenvalues and eigenvectors using ELSI and the ELPA eigensolver.
  Finished Cholesky decomposition
  | Time :     0.000 s
  Finished transformation to standard eigenproblem
  | Time :     0.000 s
  Starting LAPACK eigensolver
  Finished solving standard eigenproblem
  | Time :     0.002 s
  Finished back-transformation of eigenvectors
  | Time :     0.000 s

[...]
  |   Hirshfeld dipole moment :      0.05869123
  |   Hirshfeld second moments:      0.01141914      -0.02577369      -0.01408144
  |                                 -0.02577369      -0.02468721       0.00525629
  |                                 -0.01408144       0.00525629      -0.01922028
  ----------------------------------------------------------------------
  | Atom    12: O
  |   Hirshfeld charge        :     -0.13712953
  |   Free atom volume        :     23.61338643
  |   Hirshfeld volume        :     20.94152390
  |   Hirshfeld dipole vector :      0.02239619       0.03428504      -0.01116862
  |   Hirshfeld dipole moment :      0.04244751
  |   Hirshfeld second moments:      0.05478373      -0.01226708      -0.00723546
  |                                 -0.01226708       0.03521307       0.02180048
  |                                 -0.00723546       0.02180048       0.08745490
  ----------------------------------------------------------------------
  | Atom    13: H
  |   Hirshfeld charge        :      0.15518175
  |   Free atom volume        :      9.95071624
  |   Hirshfeld volume        :      6.72411884
  |   Hirshfeld dipole vector :      0.03502377      -0.02013133      -0.08878004
  |   Hirshfeld dipole moment :      0.09753886
  |   Hirshfeld second moments:      0.11491779      -0.01065965       0.01108850
  |                                 -0.01065965       0.08329359       0.02621124
  |                                  0.01108850       0.02621124       0.09572324
  ----------------------------------------------------------------------


  Total energy components:
  | Sum of eigenvalues            :        -180.99166122 Ha       -4925.03368463 eV
  | XC energy correction          :         -42.64661074 Ha       -1160.47332255 eV
  | XC potential correction       :          54.82985389 Ha        1491.99623618 eV
  | Free-atom electrostatic energy:        -146.80214387 Ha       -3994.68958228 eV
  | Hartree energy correction     :          -7.87281071 Ha        -214.23007934 eV
  | vdW energy correction         :          -0.00323431 Ha          -0.08801002 eV
  | Entropy correction            :           0.00000000 Ha           0.00000000 eV
  | ---------------------------
  | Total energy                  :        -323.48660696 Ha       -8802.51844265 eV
  | Total energy, T -> 0          :        -323.48660696 Ha       -8802.51844265 eV  <-- do not rely on this value for anything but (periodic) metals
  | Electronic free energy        :        -323.48660696 Ha       -8802.51844265 eV

  Derived energy quantities:
  | Kinetic energy                :         322.62201904 Ha        8778.99180832 eV
  | Electrostatic energy          :        -603.45878095 Ha      -16420.94891840 eV
  | Energy correction for multipole
  | error in Hartree potential    :           0.04018874 Ha           1.09359130 eV
  | Sum of eigenvalues per atom                           :        -378.84874497 eV
  | Total energy (T->0) per atom                          :        -677.11680328 eV  <-- do not rely on this value for anything but (periodic) metals
  | Electronic free energy per atom                       :        -677.11680328 eV

  atomic forces [eV/Ang]:
  -----------------------
  atom #    1
   Hellmann-Feynman              :  0.749835E+00  0.111658E+00  0.150672E+01
   Ionic forces                  :  0.000000E+00  0.000000E+00  0.000000E+00
   Multipole                     : -0.375591E-01  0.298551E+00 -0.275494E+00
   Pulay + GGA                   : -0.113421E+01  0.370742E-01 -0.152116E+01
   Van der Waals                 :  0.226278E-02  0.131454E-02 -0.114889E-02
   ----------------------------------------------------------------
   Total forces(   1)            : -0.419675E+00  0.448598E+00 -0.291083E+00
  atom #    2
   Hellmann-Feynman              :  0.355050E+00  0.475454E-01  0.548368E-01
   Ionic forces                  :  0.000000E+00  0.000000E+00  0.000000E+00
   Multipole                     :  0.160637E+00  0.907738E-02 -0.338521E-01
   Pulay + GGA                   : -0.155329E+00  0.817158E-02 -0.626433E-02
   Van der Waals                 :  0.693569E-02 -0.424547E-02 -0.625292E-02
   ----------------------------------------------------------------
   Total forces(   2)            :  0.367294E+00  0.605489E-01  0.846746E-02
  atom #    3
   Hellmann-Feynman              :  0.890358E+01 -0.312342E+01 -0.523755E+01
   Ionic forces                  :  0.000000E+00  0.000000E+00  0.000000E+00
   Multipole                     : -0.167506E+00  0.166660E+00 -0.102169E+01
   Pulay + GGA                   : -0.800562E+01  0.256420E+01  0.665523E+01
   Van der Waals                 :  0.356987E-02 -0.498224E-02 -0.839899E-02
   ----------------------------------------------------------------
   Total forces(   3)            :  0.734025E+00 -0.397551E+00  0.387597E+00
  atom #    4
   Hellmann-Feynman              : -0.543580E+00  0.578190E+00 -0.250665E+00
   Ionic forces                  :  0.000000E+00  0.000000E+00  0.000000E+00
   Multipole                     : -0.113868E+00 -0.196242E-01 -0.524006E-01
   Pulay + GGA                   :  0.116790E+00  0.242109E+00 -0.442819E-01
   Van der Waals                 : -0.261883E-03  0.227826E-02  0.117176E-02
   ----------------------------------------------------------------
   Total forces(   4)            : -0.540920E+00  0.802953E+00 -0.346175E+00
  atom #    5
   Hellmann-Feynman              : -0.299508E+00  0.413809E-01 -0.155207E+00
   Ionic forces                  :  0.000000E+00  0.000000E+00  0.000000E+00
   Multipole                     : -0.681304E-01  0.469139E-01 -0.777456E-01
   Pulay + GGA                   :  0.149637E+00 -0.191802E+00  0.117037E-01
   Van der Waals                 : -0.117973E-02 -0.960738E-02 -0.568069E-02
   ----------------------------------------------------------------
   Total forces(   5)            : -0.219181E+00 -0.113115E+00 -0.226929E+00
  atom #    6
   Hellmann-Feynman              : -0.850696E-01 -0.606235E+00  0.457424E+00
   Ionic forces                  :  0.000000E+00  0.000000E+00  0.000000E+00
   Multipole                     : -0.121608E+00  0.572149E+00  0.254101E+00
   Pulay + GGA                   :  0.369797E+00 -0.440088E+00 -0.449160E+00
   Van der Waals                 : -0.226185E-02  0.597357E-02 -0.335426E-03
   ----------------------------------------------------------------
   Total forces(   6)            :  0.160858E+00 -0.468201E+00  0.262029E+00
  atom #    7
   Hellmann-Feynman              : -0.227571E+00 -0.621885E-01 -0.251520E-01
   Ionic forces                  :  0.000000E+00  0.000000E+00  0.000000E+00
   Multipole                     : -0.117619E+00  0.485143E-01  0.255547E-01
   Pulay + GGA                   :  0.108786E+00 -0.247901E-02  0.171622E-01
   Van der Waals                 : -0.342845E-02  0.147495E-02  0.784686E-02
   ----------------------------------------------------------------
   Total forces(   7)            : -0.239833E+00 -0.146782E-01  0.254117E-01
  atom #    8
   Hellmann-Feynman              :  0.947941E-01  0.287486E-01  0.173477E+00
   Ionic forces                  :  0.000000E+00  0.000000E+00  0.000000E+00
   Multipole                     :  0.130513E-01  0.614704E-01  0.121399E+00
   Pulay + GGA                   : -0.495754E-01 -0.479720E-01 -0.114833E+00
   Van der Waals                 : -0.298891E-02  0.113144E-01  0.478751E-03
   ----------------------------------------------------------------
   Total forces(   8)            :  0.552811E-01  0.535614E-01  0.180521E+00
  atom #    9
   Hellmann-Feynman              :  0.137068E+00  0.510355E-01 -0.203689E+00
   Ionic forces                  :  0.000000E+00  0.000000E+00  0.000000E+00
   Multipole                     :  0.171002E-01  0.130613E+00 -0.886842E-02
   Pulay + GGA                   : -0.244835E-01 -0.655046E-01  0.806363E-01
   Van der Waals                 : -0.114470E-02  0.601984E-02  0.774998E-02
   ----------------------------------------------------------------
   Total forces(   9)            :  0.128540E+00  0.122164E+00 -0.124171E+00
  atom #   10
   Hellmann-Feynman              :  0.303005E+01  0.436990E+01  0.220512E+01
   Ionic forces                  :  0.000000E+00  0.000000E+00  0.000000E+00
   Multipole                     : -0.212108E-01 -0.103332E-01  0.233521E+00
   Pulay + GGA                   : -0.176120E+01 -0.279614E+01 -0.178241E+00
   Van der Waals                 :  0.291263E-02 -0.108666E-01 -0.120561E-02
   ----------------------------------------------------------------
   Total forces(  10)            :  0.125055E+01  0.155257E+01  0.225920E+01
  atom #   11
   Hellmann-Feynman              :  0.408675E+01 -0.245861E+01  0.140655E+02
   Ionic forces                  :  0.000000E+00  0.000000E+00  0.000000E+00
   Multipole                     :  0.261415E+00 -0.599851E+00  0.778711E+00
   Pulay + GGA                   : -0.390808E+01  0.382179E+01 -0.138649E+02
   Van der Waals                 : -0.267126E-02 -0.110868E-01  0.682279E-02
   ----------------------------------------------------------------
   Total forces(  11)            :  0.437411E+00  0.752235E+00  0.986143E+00
  atom #   12
   Hellmann-Feynman              : -0.100117E+02 -0.107004E+02  0.194385E+01
   Ionic forces                  :  0.000000E+00  0.000000E+00  0.000000E+00
   Multipole                     : -0.728240E+00 -0.162518E+01  0.212259E-01
   Pulay + GGA                   :  0.960219E+01  0.103624E+02 -0.412802E+01
   Van der Waals                 :  0.360392E-03  0.726977E-02  0.374629E-02
   ----------------------------------------------------------------
   Total forces(  12)            : -0.113741E+01 -0.195592E+01 -0.215920E+01
  atom #   13
   Hellmann-Feynman              : -0.577029E+00 -0.720713E+00 -0.127704E+01
   Ionic forces                  :  0.000000E+00  0.000000E+00  0.000000E+00
   Multipole                     :  0.100677E+00  0.323480E-03 -0.103899E+00
   Pulay + GGA                   : -0.988919E-01 -0.127457E+00  0.415916E+00
   Van der Waals                 : -0.210459E-02  0.514319E-02 -0.479391E-02
   ----------------------------------------------------------------
   Total forces(  13)            : -0.577349E+00 -0.842703E+00 -0.969820E+00

  Timings for VdW correction (Tkatchenko-Scheffler 2009 or later):
  | CPU time:        0.091 s, Wall clock time:        0.091 s.
  Removing unitary transformations (pure translations, rotations) from forces on atoms.
  Atomic forces before filtering:
  | Net force on center of mass :  -0.404410E-03  0.458759E-03 -0.801100E-02 eV/A
  | Net torque on center of mass:   0.107615E-01  0.765270E-03  0.399342E-02 eV
  Atomic forces after filtering:
  | Net force on center of mass :   0.535218E-15  0.000000E+00 -0.535218E-15 eV/A
  | Net torque on center of mass:   0.188817E-15 -0.566451E-15 -0.377634E-15 eV

  Energy and forces in a compact form:
  | Total energy uncorrected      :         -0.880251844265241E+04 eV
  | Total energy corrected        :         -0.880251844265241E+04 eV  <-- do not rely on this value for anything but (periodic) metals
  | Electronic free energy        :         -0.880251844265241E+04 eV
  Total atomic forces (unitary forces cleaned) [eV/Ang]:
  |   1         -0.419630644414658E+00          0.448466333089473E+00         -0.290453334339758E+00
  |   2          0.367339003829458E+00          0.602348058845851E-01          0.916632446531669E-02
  |   3          0.734159877776891E+00         -0.398006091487957E+00          0.388195687076584E+00
  |   4         -0.540898541745289E+00          0.802589108654685E+00         -0.345417684582858E+00
  |   5         -0.218878932013626E+00         -0.113567693548178E+00         -0.226617532580033E+00
  |   6          0.161067702723644E+00         -0.468041049819353E+00          0.262265312381690E+00
  |   7         -0.239619860682717E+00         -0.143312166920188E-01          0.255709825007995E-01
  |   8          0.554269436560370E-01          0.539559711974707E-01          0.180777523569538E+00
  |   9          0.128931401500608E+00          0.122119261416346E+00         -0.124168781632643E+00
  |  10          0.125033675804494E+01          0.155271618845369E+01          0.226017011246766E+01
  |  11          0.437074635190002E+00          0.752659995112744E+00          0.987213351936279E+00
  |  12         -0.113772767355847E+01         -0.195585005565938E+01         -0.215802801761321E+01
  |  13         -0.577580670306824E+00         -0.842945556602103E+00         -0.968673943649364E+00

  ------------------------------------ 
  Start decomposition of the XC Energy 
  ------------------------------------ 
  X and C from original XC functional choice 
  Hartree-Fock Energy :          0.000000000 Ha              0.000000000 eV
  X Energy            :        -41.043503296 Ha          -1116.850549412 eV
  C Energy            :         -1.603107447 Ha            -43.622773138 eV
  Total XC Energy     :        -42.646610743 Ha          -1160.473322550 eV
  ------------------------------------ 
  LDA X and C from self-consistent density 
  X Energy LDA        :        -37.265693909 Ha          -1014.051125604 eV
  C Energy LDA        :         -3.139432168 Ha            -85.428295824 eV
  ------------------------------------ 
  End decomposition of the XC Energy 
  ------------------------------------ 

------------------------------------------------------------

------------------------------------------------------------------------------
  Final output of selected total energy values:

  The following output summarizes some interesting total energy values
  at the end of a run (AFTER all relaxation, molecular dynamics, etc.).

  | Total energy of the DFT / Hartree-Fock s.c.f. calculation      :          -8802.518442652 eV
  | Final zero-broadening corrected energy (caution - metals only) :          -8802.518442652 eV
  | For reference only, the value of 1 Hartree used in FHI-aims is :             27.211384500 eV

  Before relying on these values, please be sure to understand exactly which
  total energy value is referred to by a given number. Different objects may
  all carry the same name 'total energy'. Definitions:

  Total energy of the DFT / Hartree-Fock s.c.f. calculation:
  | Note that this energy does not include ANY quantities calculated after the
  | s.c.f. cycle, in particular not ANY RPA, MP2, etc. many-body perturbation terms.

  Final zero-broadening corrected energy:
  | For metallic systems only, a broadening of the occupation numbers at the Fermi
  | level can be extrapolated back to zero broadening by an electron-gas inspired
  | formula. For all systems that are not real metals, this value can be
  | meaningless and should be avoided.

------------------------------------------------------------------------------
  Methods described in the following list of references were used in this FHI-aims run.
  If you publish the results, please make sure to cite these reference if they apply.
  FHI-aims is an academic code, and for our developers (often, Ph.D. students
  and postdocs), scientific credit in the community is essential.
  Thank you for helping us!

  For any use of FHI-aims, please cite:

    Volker Blum, Ralf Gehrke, Felix Hanke, Paula Havu, Ville Havu,
    Xinguo Ren, Karsten Reuter, and Matthias Scheffler
    'Ab initio molecular simulations with numeric atom-centered orbitals'
    Computer Physics Communications 180, 2175-2196 (2009)
    http://dx.doi.org/10.1016/j.cpc.2009.06.022


  The scalable eigensolver library ELPA was used in your run.
  ELPA is essential especially for large systems on hundreds or thousands of CPUs.
  For ELPA, please cite:

    Andreas Marek, Volker Blum, Rainer Johanni, Ville Havu, Bruno Lang,
    Thomas Auckenthaler, Alexander Heinecke, Hans-Joachim Bungartz, and Hermann Lederer,
    'The ELPA Library - Scalable Parallel Eigenvalue Solutions
    for Electronic Structure Theory and Computational Science'
    The Journal of Physics: Condensed Matter 26, 213201 (2014).
    http://dx.doi.org/10.1088/0953-8984/26/21/213201


  The ELSI infrastructure was used in your run to solve the Kohn-Sham electronic structure.
  Please check out http://elsi-interchange.org to learn more.
  If scalability is important for your project, please acknowledge ELSI by citing:

    V. W-z. Yu, F. Corsetti, A. Garcia, W. P. Huhn, M. Jacquelin, W. Jia,
    B. Lange, L. Lin, J. Lu, W. Mi, A. Seifitokaldani, A. Vazquez-Mayagoitia,
    C. Yang, H. Yang, and V. Blum
    'ELSI: A unified software interface for Kohn-Sham electronic structure solvers'
    Computer Physics Communications 222, 267-285 (2018).
    http://dx.doi.org/10.1016/j.cpc.2017.09.007


  For the real-space grid partitioning and parallelization used in this calculation, please cite:

    Ville Havu, Volker Blum, Paula Havu, and Matthias Scheffler,
    'Efficient O(N) integration for all-electron electronic structure calculation'
    'using numerically tabulated basis functions'
    Journal of Computational Physics 228, 8367-8379 (2009).
    http://dx.doi.org/10.1016/j.jcp.2009.08.008

  Of course, there are many other important community references, e.g., those cited in the
  above references. Our list is limited to references that describe implementations in the
  FHI-aims code. The reason is purely practical (length of this list) - please credit others as well.

------------------------------------------------------------
          Leaving FHI-aims.
          Date     :  20200710, Time     :  150701.988

          Computational steps:
          | Number of self-consistency cycles          :           16
          | Number of SCF (re)initializations          :            1

          Detailed time accounting                     :  max(cpu_time)    wall_clock(cpu1)
          | Total time                                 :       22.703 s          22.789 s
          | Preparation time                           :        0.145 s           0.147 s
          | Boundary condition initalization           :        0.000 s           0.000 s
          | Grid partitioning                          :        0.111 s           0.111 s
          | Preloading free-atom quantities on grid    :        0.002 s           0.003 s
          | Free-atom superposition energy             :        0.084 s           0.084 s
          | Total time for integrations                :        8.618 s           8.638 s
          | Total time for solution of K.-S. equations :        0.036 s           0.041 s
          | Total time for density & force components  :        7.150 s           7.167 s
          | Total time for mixing                      :        0.216 s           0.217 s
          | Total time for Hartree multipole update    :        0.141 s           0.143 s
          | Total time for Hartree multipole sum       :        5.798 s           5.808 s
          | Total time for total energy evaluation     :        0.003 s           0.005 s
          | Total time for vdW correction              :        0.091 s           0.091 s

          Partial memory accounting:
          | Residual value for overall tracked memory usage across tasks :           0.000 MB (should be 0.000 MB)
          | Peak values for overall tracked memory usage (after allocating hessian_basis_wave):
          |   Minimum:        1.612 MB (on task 1)
          |   Maximum:        1.612 MB (on task 1)
          |   Average:        1.612 MB
          | Largest tracked array allocation (hessian_basis_wave):
          |   Minimum:        0.788 MB (on task 1)
          |   Maximum:        0.788 MB (on task 1)
          |   Average:        0.788 MB
          Note:  These values currently only include a subset of arrays which are explicitly tracked.
          The "true" memory usage will be greater.

          Have a nice day.
------------------------------------------------------------
