  MPI-parallelism will be employed.
------------------------------------------------------------
          Invoking FHI-aims ...
          Version 171221_1
          Compiled on 2019/09/09 at 14:39:39 on host puhti-login2.bullx.

          When using FHI-aims, please cite the following reference:

          Volker Blum, Ralf Gehrke, Felix Hanke, Paula Havu,
          Ville Havu, Xinguo Ren, Karsten Reuter, and Matthias Scheffler,
          'Ab Initio Molecular Simulations with Numeric Atom-Centered Orbitals',
          Computer Physics Communications 180, 2175-2196 (2009)

          For any questions about FHI-aims, please visit the aimsclub website
          with its forums and wiki. Contributions to both the forums and the
          wiki are warmly encouraged - they are for you, and everyone is welcome there.

------------------------------------------------------------



  Date     :  20200601, Time     :  010445.394
  Time zero on CPU 1             :   0.894940000000000E-01  s.
  Internal wall clock time zero  :           360205485.394  s.

  FHI-aims created a unique identifier for this run for later identification
  aims_uuid : B2F420BC-25AD-419F-AC56-3EDB61138236

  Using       20 parallel tasks.
  Task        0 on host r01c25.bullx reporting.
  Task        1 on host r01c25.bullx reporting.
  Task        2 on host r01c25.bullx reporting.
  Task        3 on host r01c25.bullx reporting.
  Task        4 on host r01c25.bullx reporting.
  Task        5 on host r01c25.bullx reporting.
  Task        6 on host r01c25.bullx reporting.
  Task        7 on host r01c25.bullx reporting.
  Task        8 on host r01c25.bullx reporting.
  Task        9 on host r01c25.bullx reporting.
  Task       10 on host r01c25.bullx reporting.
  Task       11 on host r01c25.bullx reporting.
  Task       12 on host r01c25.bullx reporting.
  Task       13 on host r01c25.bullx reporting.
  Task       14 on host r01c25.bullx reporting.
  Task       15 on host r01c25.bullx reporting.
  Task       16 on host r01c25.bullx reporting.
  Task       17 on host r01c25.bullx reporting.
  Task       18 on host r01c25.bullx reporting.
  Task       19 on host r01c25.bullx reporting.

  Performing system and environment tests:
  | Environment variable OMP_NUM_THREADS correctly set to 1.
  | Stacksize not measured: no C compiler
  | Checking for scalapack...
  | Testing pdtran()...
  | All pdtran() tests passed.

  Obtaining array dimensions for all initial allocations:
  
  -----------------------------------------------------------------------
  Parsing control.in (first pass over file, find array dimensions only).
  The contents of control.in will be repeated verbatim below
  unless switched off by setting 'verbatim_writeout .false.' .
  in the first line of control.in .
  -----------------------------------------------------------------------
  
  #########################################################################################
  #
  #  Volker Blum, FHI 2009 : Test run input file control.in for simple H2O
  #
  #########################################################################################
  #
  #  Physical model
  #
    xc                 pbe
    vdw_correction_hirshfeld
    spin               none
    relativistic       none
    charge             0.
  #
  #  SCF convergence
  #
    occupation_type    gaussian 0.01
    mixer              pulay
      n_max_pulay        10
      charge_mix_param   0.2
    sc_accuracy_rho    1E-5
    sc_accuracy_eev    1E-3
    sc_accuracy_etot   1E-6
    sc_accuracy_forces 1E-4
    sc_iter_limit      100
  #
  #  Relaxation
  #
  #  relax_geometry   bfgs 1.e-3
  #
  ################################################################################
  #
  #  FHI-aims code project
  #  VB, Fritz-Haber Institut, 2009
  #
  #  Suggested "light" defaults for H atom (to be pasted into control.in file)
  #  Be sure to double-check any results obtained with these settings for post-processing,
  #  e.g., with the "tight" defaults and larger basis sets.
  #
  ################################################################################
    species        H
  #     global species definitions
      nucleus             1
      mass                1.00794
  #
      l_hartree           4
  #
      cut_pot             3.5  1.5  1.0
      basis_dep_cutoff    1e-4
  #
      radial_base         24 5.0
      radial_multiplier   1
      angular_grids       specified
        division   0.2421   50
        division   0.3822  110
        division   0.4799  194
        division   0.5341  302
  #      division   0.5626  434
  #      division   0.5922  590
  #      division   0.6542  770
  #      division   0.6868 1202
  #      outer_grid  770
        outer_grid  302
  ################################################################################
  #
  #  Definition of "minimal" basis
  #
  ################################################################################
  #     valence basis states
      valence      1  s   1.
  #     ion occupancy
      ion_occ      1  s   0.5
  ################################################################################
  #
  #  Suggested additional basis functions. For production calculations,
  #  uncomment them one after another (the most important basis functions are
  #  listed first).
  #
  #  Basis constructed for dimers: 0.5 A, 0.7 A, 1.0 A, 1.5 A, 2.5 A
  #
  ################################################################################
  #  "First tier" - improvements: -1014.90 meV to -62.69 meV
       hydro 2 s 2.1
       hydro 2 p 3.5
  #  "Second tier" - improvements: -12.89 meV to -1.83 meV
  #     hydro 1 s 0.85
  #     hydro 2 p 3.7
  #     hydro 2 s 1.2
  #     hydro 3 d 7
  #  "Third tier" - improvements: -0.25 meV to -0.12 meV
  #     hydro 4 f 11.2
  #     hydro 3 p 4.8
  #     hydro 4 d 9
  #     hydro 3 s 3.2
  ################################################################################
  #
  #  FHI-aims code project
  #  VB, Fritz-Haber Institut, 2009
  #
  #  Suggested "light" defaults for C atom (to be pasted into control.in file)
  #  Be sure to double-check any results obtained with these settings for post-processing,
  #  e.g., with the "tight" defaults and larger basis sets.
  #
  ################################################################################
    species        C
  #     global species definitions
      nucleus             6
      mass                12.0107
  #
      l_hartree           4
  #
      cut_pot             3.5  1.5  1.0
      basis_dep_cutoff    1e-4
  #
      radial_base         34 5.0
      radial_multiplier   1
      angular_grids specified
        division   0.3326   50
        division   0.5710  110
        division   0.7727  194
        division   0.8772  302
  #      division   0.9334  434
  #      division   0.9625  590
  #      division   0.9924  770
  #      division   1.0230  974
  #      division   1.4589 1202
  #     outer_grid  974
       outer_grid 302
  ################################################################################
  #
  #  Definition of "minimal" basis
  #
  ################################################################################
  #     valence basis states
      valence      2  s   2.
      valence      2  p   2.
  #     ion occupancy
      ion_occ      2  s   1.
      ion_occ      2  p   1.
  ################################################################################
  #
  #  Suggested additional basis functions. For production calculations,
  #  uncomment them one after another (the most important basis functions are
  #  listed first).
  #
  #  Constructed for dimers: 1.0 A, 1.25 A, 1.5 A, 2.0 A, 3.0 A
  #
  ################################################################################
  #  "First tier" - improvements: -1214.57 meV to -155.61 meV
       hydro 2 p 1.7
       hydro 3 d 6
       hydro 2 s 4.9
  #  "Second tier" - improvements: -67.75 meV to -5.23 meV
  #     hydro 4 f 9.8
  #     hydro 3 p 5.2
  #     hydro 3 s 4.3
  #     hydro 5 g 14.4
  #     hydro 3 d 6.2
  #  "Third tier" - improvements: -2.43 meV to -0.60 meV
  #     hydro 2 p 5.6
  #     hydro 2 s 1.4
  #     hydro 3 d 4.9
  #     hydro 4 f 11.2
  #  "Fourth tier" - improvements: -0.39 meV to -0.18 meV
  #     hydro 2 p 2.1
  #     hydro 5 g 16.4
  #     hydro 4 d 13.2
  #     hydro 3 s 13.6
  #     hydro 4 f 17.6
  #  Further basis functions - improvements: -0.08 meV and below
  #     hydro 3 s 2
  #     hydro 3 p 6
  #     hydro 4 d 20
  ################################################################################
  #
  #  FHI-aims code project
  #  VB, Fritz-Haber Institut, 2009
  #
  #  Suggested "light" defaults for N atom (to be pasted into control.in file)
  #  Be sure to double-check any results obtained with these settings for post-processing,
  #  e.g., with the "tight" defaults and larger basis sets.
  #
  ################################################################################
    species        N
  #     global species definitions
      nucleus             7
      mass                14.0067
  #
      l_hartree           4
  #
      cut_pot             3.5  1.5  1.0
      basis_dep_cutoff    1e-4
  #
      radial_base         35 5.0
      radial_multiplier   1
      angular_grids       specified
        division   0.2599   50
        division   0.4601  110
        division   0.5885  194
        division   0.6503  302
  #      division   0.6939  434
  #      division   0.7396  590
  #      division   0.7632  770
  #      division   0.8122  974
  #      division   1.1604 1202
  #      outer_grid  974
        outer_grid  302
  ################################################################################
  #
  #  Definition of "minimal" basis
  #
  ################################################################################
  #     valence basis states
      valence      2  s   2.
      valence      2  p   3.
  #     ion occupancy
      ion_occ      2  s   1.
      ion_occ      2  p   2.
  ################################################################################
  #
  #  Suggested additional basis functions. For production calculations,
  #  uncomment them one after another (the most important basis functions are
  #  listed first).
  #
  #  Constructed for dimers: 1.0 A, 1.1 A, 1.5 A, 2.0 A, 3.0 A
  #
  ################################################################################
  #  "First tier" - improvements: -1193.42 meV to -220.60 meV
       hydro 2 p 1.8
       hydro 3 d 6.8
       hydro 3 s 5.8
  #  "Second tier" - improvements: -80.21 meV to -6.86 meV
  #     hydro 4 f 10.8
  #     hydro 3 p 5.8
  #     hydro 1 s 0.8
  #     hydro 5 g 16
  #     hydro 3 d 4.9
  #  "Third tier" - improvements: -4.29 meV to -0.53 meV
  #     hydro 3 s 16
  #     ionic 2 p auto
  #     hydro 3 d 6.6
  #     hydro 4 f 11.6
  #  "Fourth tier" - improvements: -0.75 meV to -0.25 meV
  #     hydro 2 p 4.5
  #     hydro 2 s 2.4
  #     hydro 5 g 14.4
  #     hydro 4 d 14.4
  #     hydro 4 f 16.8
  # Further basis functions - -0.21 meV and below
  #     hydro 3 p 14.8
  #     hydro 3 s 4.4
  #     hydro 3 d 19.6
  #     hydro 5 g 12.8
  ################################################################################
  #
  #  FHI-aims code project
  #  VB, Fritz-Haber Institut, 2009
  #
  #  Suggested "light" defaults for O atom (to be pasted into control.in file)
  #  Be sure to double-check any results obtained with these settings for post-processing,
  #  e.g., with the "tight" defaults and larger basis sets.
  #
  ################################################################################
    species        O
  #     global species definitions
      nucleus             8
      mass                15.9994
  #
      l_hartree           4
  #
      cut_pot             3.5  1.5  1.0
      basis_dep_cutoff    1e-4
  #
      radial_base         36 5.0
      radial_multiplier   1
       angular_grids specified
        division   0.2659   50
        division   0.4451  110
        division   0.6052  194
        division   0.7543  302
  #      division   0.8014  434
  #      division   0.8507  590
  #      division   0.8762  770
  #      division   0.9023  974
  #      division   1.2339 1202
  #      outer_grid 974
        outer_grid 302
  ################################################################################
  #
  #  Definition of "minimal" basis
  #
  ################################################################################
  #     valence basis states
      valence      2  s   2.
      valence      2  p   4.
  #     ion occupancy
      ion_occ      2  s   1.
      ion_occ      2  p   3.
  ################################################################################
  #
  #  Suggested additional basis functions. For production calculations,
  #  uncomment them one after another (the most important basis functions are
  #  listed first).
  #
  #  Constructed for dimers: 1.0 A, 1.208 A, 1.5 A, 2.0 A, 3.0 A
  #
  ################################################################################
  #  "First tier" - improvements: -699.05 meV to -159.38 meV
       hydro 2 p 1.8
       hydro 3 d 7.6
       hydro 3 s 6.4
  #  "Second tier" - improvements: -49.91 meV to -5.39 meV
  #     hydro 4 f 11.6
  #     hydro 3 p 6.2
  #     hydro 3 d 5.6
  #     hydro 5 g 17.6
  #     hydro 1 s 0.75
  #  "Third tier" - improvements: -2.83 meV to -0.50 meV
  #     ionic 2 p auto
  #     hydro 4 f 10.8
  #     hydro 4 d 4.7
  #     hydro 2 s 6.8
  #  "Fourth tier" - improvements: -0.40 meV to -0.12 meV
  #     hydro 3 p 5
  #     hydro 3 s 3.3
  #     hydro 5 g 15.6
  #     hydro 4 f 17.6
  #     hydro 4 d 14
  # Further basis functions - -0.08 meV and below
  #     hydro 3 s 2.1
  #     hydro 4 d 11.6
  #     hydro 3 p 16
  #     hydro 2 s 17.2
  
  -----------------------------------------------------------------------
  Completed first pass over input file control.in .
  -----------------------------------------------------------------------
  
  
  -----------------------------------------------------------------------
  Parsing geometry.in (first pass over file, find array dimensions only).
  The contents of geometry.in will be repeated verbatim below
  unless switched off by setting 'verbatim_writeout .false.' .
  in the first line of geometry.in .
  -----------------------------------------------------------------------
  
  atom  0.00000 0.00000 0.00000 C
  atom  1.09300 0.00000 0.00000 H
  atom  -0.47961 0.00000 -1.41207 N
  atom  -0.72585 0.95533 -1.67387 H
  atom  0.26664 -0.34762 -2.01073 H
  atom  -0.49584 1.26211 0.72868 C
  atom  0.34494 1.91365 0.97793 H
  atom  -1.19060 1.81952 0.09609 H
  atom  -1.01037 0.99113 1.65355 H
  atom  -0.39425 -1.28861 0.74398 C
  atom  -0.95560 -2.24170 0.25843 O
  atom  -0.08679 -1.33229 2.00109 O
  atom  -0.55556 -0.53107 2.28968 H
  
  -----------------------------------------------------------------------
  Completed first pass over input file geometry.in .
  -----------------------------------------------------------------------
  

  Basic array size parameters:
  | Number of species                 :        4
  | Number of atoms                   :       13
  | Max. basis fn. angular momentum   :        2
  | Max. atomic/ionic basis occupied n:        2
  | Max. number of basis fn. types    :        2
  | Max. radial fns per species/type  :        3
  | Max. logarithmic grid size        :     1301
  | Max. radial integration grid size :       36
  | Max. angular integration grid size:      302
  | Max. angular grid division number :        8
  | Radial grid for Hartree potential :     1301
  | Number of spin channels           :        1

------------------------------------------------------------
          Reading file control.in.
------------------------------------------------------------
  XC: Using PBE gradient-corrected functionals.
  Spin treatment: No spin polarisation.
  Non-relativistic treatment of kinetic energy.
  Charge =   0.000000E+00: Neutral system requested explicitly.
  Occupation type: Gaussian broadening, width =   0.100000E-01 eV.
  Using pulay charge density mixing.
  Pulay mixing - number of memorized iterations:   10
  Charge density mixing - mixing parameter:     0.2000
  Convergence accuracy of self-consistent charge density:  0.1000E-04
  Convergence accuracy of sum of eigenvalues:  0.1000E-02
  Convergence accuracy of total energy:  0.1000E-05
  Convergence accuracy of forces:  0.1000E-03
  Maximum number of s.-c. iterations  :   100
 
  Reading configuration options for species H                   .
  | Found nuclear charge :   1.0000
  | Found atomic mass :    1.00794000000000      amu
  | Found l_max for Hartree potential  :   4
  | Found cutoff potl. onset [A], width [A], scale factor :    3.50000    1.50000    1.00000
  | Threshold for basis-dependent cutoff potential is   0.100000E-03
  | Found data for basic radial integration grid :    24 points, outermost radius =    5.000 A
  | Found multiplier for basic radial grid :   1
  | Found angular grid specification: user-specified.
  | Specified grid contains     5 separate shells.
  | Check grid settings after all constraints further below.
  | Found free-atom valence shell :  1 s   1.000
  | No ionic wave fns used. Skipping ion_occ.
  | Found hydrogenic basis function :  2 s   2.100
  | Found hydrogenic basis function :  2 p   3.500
  Species H                   : Missing cutoff potential type.
  Defaulting to exp(1/x)/(1-x)^2 type cutoff potential.
  Species H : No 'logarithmic' tag. Using default grid for free atom:
  | Default logarithmic grid data [bohr] : 0.1000E-03 0.1000E+03 0.1012E+01
  Species H : On-site basis accuracy parameter (for Gram-Schmidt orthonormalisation) not specified.
  Using default value basis_acc =  0.1000000E-03.
  Species H                   : Using default innermost maximum threshold i_radial=  2 for radial functions.
  Species H                   : Default cutoff onset for free atom density etc. : 0.35000000E+01 AA.
  Species H                   : Basic radial grid will be enhanced according to radial_multiplier =   1, to contain    24 grid points.
 
  Reading configuration options for species C                   .
  | Found nuclear charge :   6.0000
  | Found atomic mass :    12.0107000000000      amu
  | Found l_max for Hartree potential  :   4
  | Found cutoff potl. onset [A], width [A], scale factor :    3.50000    1.50000    1.00000
  | Threshold for basis-dependent cutoff potential is   0.100000E-03
  | Found data for basic radial integration grid :    34 points, outermost radius =    5.000 A
  | Found multiplier for basic radial grid :   1
  | Found angular grid specification: user-specified.
  | Specified grid contains     5 separate shells.
  | Check grid settings after all constraints further below.
  | Found free-atom valence shell :  2 s   2.000
  | Found free-atom valence shell :  2 p   2.000
  | No ionic wave fns used. Skipping ion_occ.
  | No ionic wave fns used. Skipping ion_occ.
  | Found hydrogenic basis function :  2 p   1.700
  | Found hydrogenic basis function :  3 d   6.000
  | Found hydrogenic basis function :  2 s   4.900
  Species C                   : Missing cutoff potential type.
  Defaulting to exp(1/x)/(1-x)^2 type cutoff potential.
  Species C : No 'logarithmic' tag. Using default grid for free atom:
  | Default logarithmic grid data [bohr] : 0.1000E-03 0.1000E+03 0.1012E+01
  Species C : On-site basis accuracy parameter (for Gram-Schmidt orthonormalisation) not specified.
  Using default value basis_acc =  0.1000000E-03.
  Species C                   : Using default innermost maximum threshold i_radial=  2 for radial functions.
  Species C                   : Default cutoff onset for free atom density etc. : 0.35000000E+01 AA.
  Species C                   : Basic radial grid will be enhanced according to radial_multiplier =   1, to contain    34 grid points.
 
  Reading configuration options for species N                   .
  | Found nuclear charge :   7.0000
  | Found atomic mass :    14.0067000000000      amu
  | Found l_max for Hartree potential  :   4
  | Found cutoff potl. onset [A], width [A], scale factor :    3.50000    1.50000    1.00000
  | Threshold for basis-dependent cutoff potential is   0.100000E-03
  | Found data for basic radial integration grid :    35 points, outermost radius =    5.000 A
  | Found multiplier for basic radial grid :   1
  | Found angular grid specification: user-specified.
  | Specified grid contains     5 separate shells.
  | Check grid settings after all constraints further below.
  | Found free-atom valence shell :  2 s   2.000
  | Found free-atom valence shell :  2 p   3.000
  | No ionic wave fns used. Skipping ion_occ.
  | No ionic wave fns used. Skipping ion_occ.
  | Found hydrogenic basis function :  2 p   1.800
  | Found hydrogenic basis function :  3 d   6.800
  | Found hydrogenic basis function :  3 s   5.800
  Species N                   : Missing cutoff potential type.
  Defaulting to exp(1/x)/(1-x)^2 type cutoff potential.
  Species N : No 'logarithmic' tag. Using default grid for free atom:
  | Default logarithmic grid data [bohr] : 0.1000E-03 0.1000E+03 0.1012E+01
  Species N : On-site basis accuracy parameter (for Gram-Schmidt orthonormalisation) not specified.
  Using default value basis_acc =  0.1000000E-03.
  Species N                   : Using default innermost maximum threshold i_radial=  2 for radial functions.
  Species N                   : Default cutoff onset for free atom density etc. : 0.35000000E+01 AA.
  Species N                   : Basic radial grid will be enhanced according to radial_multiplier =   1, to contain    35 grid points.
 
  Reading configuration options for species O                   .
  | Found nuclear charge :   8.0000
  | Found atomic mass :    15.9994000000000      amu
  | Found l_max for Hartree potential  :   4
  | Found cutoff potl. onset [A], width [A], scale factor :    3.50000    1.50000    1.00000
  | Threshold for basis-dependent cutoff potential is   0.100000E-03
  | Found data for basic radial integration grid :    36 points, outermost radius =    5.000 A
  | Found multiplier for basic radial grid :   1
  | Found angular grid specification: user-specified.
  | Specified grid contains     5 separate shells.
  | Check grid settings after all constraints further below.
  | Found free-atom valence shell :  2 s   2.000
  | Found free-atom valence shell :  2 p   4.000
  | No ionic wave fns used. Skipping ion_occ.
  | No ionic wave fns used. Skipping ion_occ.
  | Found hydrogenic basis function :  2 p   1.800
  | Found hydrogenic basis function :  3 d   7.600
  | Found hydrogenic basis function :  3 s   6.400
  Species O                   : Missing cutoff potential type.
  Defaulting to exp(1/x)/(1-x)^2 type cutoff potential.
  Species O : No 'logarithmic' tag. Using default grid for free atom:
  | Default logarithmic grid data [bohr] : 0.1000E-03 0.1000E+03 0.1012E+01
  Species O : On-site basis accuracy parameter (for Gram-Schmidt orthonormalisation) not specified.
  Using default value basis_acc =  0.1000000E-03.
  Species O                   : Using default innermost maximum threshold i_radial=  2 for radial functions.
  Species O                   : Default cutoff onset for free atom density etc. : 0.35000000E+01 AA.
  Species O                   : Basic radial grid will be enhanced according to radial_multiplier =   1, to contain    36 grid points.
 
  Finished reading input file 'control.in'. Consistency checks are next.
 
  MPI_IN_PLACE appears to work with this MPI implementation.
  | Keeping use_mpi_in_place .true. (see manual).
  Target number of points in a grid batch is not set. Defaulting to  100
  Method for grid partitioning is not set. Defaulting to parallel hash+maxmin partitioning.
  Batch size limit is not set. Defaulting to    200
  By default, will store active basis functions for each batch.
  If in need of memory, prune_basis_once .false. can be used to disable this option.
  communication_type for Hartree potential was not specified.
  Defaulting to calc_hartree .
  Pulay mixer: Number of initial linear mixing iterations not set.
  Defaulting to    0 iterations.
  Work space size for distributed Hartree potential not set.
  Defaulting to   0.200000E+03 MB.
  Algorithm-dependent basis array size parameters:
  | n_max_pulay                         :       10
  Presetting      1001 iterations before the initial mixing cycle
  is restarted anyway using the sc_init_iter criterion / keyword.
  Presetting a factor      1.000 between actual scf density residual
  and density convergence criterion sc_accuracy_rho below which sc_init_iter
  takes no effect.
  Geometry relaxation not requested: no relaxation will be performed.
  Handling of forces: Unphysical translation and rotation will be removed from forces.
  No accuracy limit for integral partition fn. given. Defaulting to  0.1000E-14.
  No threshold value for u(r) in integrations given. Defaulting to  0.1000E-05.
  No accuracy for occupation numbers given. Defaulting to  0.1000E-12.
  No threshold value for occupation numbers given. Defaulting to  0.0000E+00.
  No accuracy for fermi level given. Defaulting to  0.1000E-19.
  Maximum # of iterations to find E_F not set. Defaulting to  200.
  Preferred method for the eigenvalue solver ('KS_method') not specified in 'control.in'.
  Calling BLACS routine to test compilation state
  Since ScaLAPACK support is enabled, defaulting to 'elsi'.
  Will not use alltoall communication since running on < 1024 CPUs.
  Threshold for basis singularities not set.
  Default threshold for basis singularities:  0.1000E-04
  partition_type (choice of integration weights) for integrals was not specified.
  | Using a version of the partition function of Stratmann and coworkers ('stratmann_smoother').
  | At each grid point, the set of atoms used to build the partition table is smoothly restricted to
  | only those atoms whose free-atom density would be non-zero at that grid point.
  Partitioning for Hartree potential was not defined. Using partition_type for integrals.
  | Adjusted default value of keyword multip_moments_threshold to:       0.10000000E-11
  | This value may affect high angular momentum components of the Hartree potential in periodic systems.
  No q(lm)/r^(l+1) cutoff set for long-range Hartree potential.
  | Using default value of  0.100000E-09 .
  | Verify using the multipole_threshold keyword.
  Defaulting to new monopole extrapolation.
  Density update method: automatic selection selected.
------------------------------------------------------------


------------------------------------------------------------
          Reading geometry description geometry.in.
------------------------------------------------------------
  Input structure read successfully.
  The structure contains       13 atoms,  and a total of         48.000 electrons.

  Input geometry:
  | No unit cell requested.
  | Atomic structure:
  |       Atom                x [A]            y [A]            z [A]
  |    1: Species C             0.00000000        0.00000000        0.00000000
  |    2: Species H             1.09300000        0.00000000        0.00000000
  |    3: Species N            -0.47961000        0.00000000       -1.41207000
  |    4: Species H            -0.72585000        0.95533000       -1.67387000
  |    5: Species H             0.26664000       -0.34762000       -2.01073000
  |    6: Species C            -0.49584000        1.26211000        0.72868000
  |    7: Species H             0.34494000        1.91365000        0.97793000
  |    8: Species H            -1.19060000        1.81952000        0.09609000
  |    9: Species H            -1.01037000        0.99113000        1.65355000
  |   10: Species C            -0.39425000       -1.28861000        0.74398000
  |   11: Species O            -0.95560000       -2.24170000        0.25843000
  |   12: Species O            -0.08679000       -1.33229000        2.00109000
  |   13: Species H            -0.55556000       -0.53107000        2.28968000
  |

  | The smallest distance between any two atoms is         0.97210236 AA.
  |
  | The first atom of this pair is atom number                     12 .
  | The second atom of this pair is atom number                    13 .

  Number of empty states per atom not set in control.in - providing a guess from actual geometry.
  | Total number of empty states used during s.c.f. cycle:       29
  If you use a very high smearing, use empty_states (per atom!) in control.in to increase this value.

  Structure-dependent array size parameters: 
  | Maximum number of distinct radial functions  :       21
  | Maximum number of basis functions            :      119
  | Number of Kohn-Sham states (occupied + empty):       53
------------------------------------------------------------

------------------------------------------------------------
          Preparing all fixed parts of the calculation.
------------------------------------------------------------
  Determining machine precision:
    2.225073858507201E-308
  Setting up grids for atomic and cluster calculations.

  Creating wave function, potential, and density for free atoms.

  Species: H

  List of occupied orbitals and eigenvalues:
    n    l              occ      energy [Ha]    energy [eV]
    1    0           1.0000        -0.237589        -6.4651


  Species: C

  List of occupied orbitals and eigenvalues:
    n    l              occ      energy [Ha]    energy [eV]
    1    0           2.0000       -10.038835      -273.1706
    2    0           2.0000        -0.502696       -13.6791
    2    1           2.0000        -0.191971        -5.2238


  Species: N

  List of occupied orbitals and eigenvalues:
    n    l              occ      energy [Ha]    energy [eV]
    1    0           2.0000       -14.128000      -384.4424
    2    0           2.0000        -0.681077       -18.5330
    2    1           3.0000        -0.259788        -7.0692


  Species: O

  List of occupied orbitals and eigenvalues:
    n    l              occ      energy [Ha]    energy [eV]
    1    0           2.0000       -18.898188      -514.2459
    2    0           2.0000        -0.878505       -23.9053
    2    1           4.0000        -0.331779        -9.0282

  Creating fixed part of basis set: Ionic, confined, hydrogenic.
 
  H                    hydrogenic:
 
  List of hydrogenic basis orbitals: 
    n    l      effective z      eigenvalue [eV]  inner max. [A]     outer max. [A]     outer radius [A]   
    2    0         2.100000       -14.9728           0.193243           1.317208           4.583499
    2    1         3.500000       -41.6669           0.602369           0.602369           3.723403
 
 
  C                    hydrogenic:
 
  List of hydrogenic basis orbitals: 
    n    l      effective z      eigenvalue [eV]  inner max. [A]     outer max. [A]     outer radius [A]   
    2    1         1.700000        -9.7616           1.230570           1.230570           4.607917
    3    2         6.000000       -54.4224           0.792453           0.792453           3.883070
    2    0         4.900000       -81.6679           0.082559           0.562749           3.078220
 
 
  N                    hydrogenic:
 
  List of hydrogenic basis orbitals: 
    n    l      effective z      eigenvalue [eV]  inner max. [A]     outer max. [A]     outer radius [A]   
    2    1         1.800000       -10.9749           1.177451           1.177451           4.573712
    3    2         6.800000       -69.9026           0.704619           0.704619           3.538137
    3    0         5.800000       -50.8545           0.067388           1.191934           4.250239
 
 
  O                    hydrogenic:
 
  List of hydrogenic basis orbitals: 
    n    l      effective z      eigenvalue [eV]  inner max. [A]     outer max. [A]     outer radius [A]   
    2    1         1.800000       -10.9749           1.164242           1.164242           4.578029
    3    2         7.600000       -87.3180           0.624125           0.624125           3.251020
    3    0         6.400000       -61.9207           0.061167           1.081902           4.001998
 

  Adding cutoff potential to free-atom effective potential.
  Creating atomic-like basis functions for current effective potential.

  Species H                   :

  List of atomic basis orbitals and eigenvalues:
    n    l      energy [Ha]    energy [eV]    outer radius [A]
    1    0        -0.237589        -6.4651       4.527807


  Species C                   :

  List of atomic basis orbitals and eigenvalues:
    n    l      energy [Ha]    energy [eV]    outer radius [A]
    1    0       -10.038835      -273.1706       1.934409
    2    0        -0.502696       -13.6791       4.496620
    2    1        -0.191971        -5.2238       4.551928


  Species N                   :

  List of atomic basis orbitals and eigenvalues:
    n    l      energy [Ha]    energy [eV]    outer radius [A]
    1    0       -14.128000      -384.4424       1.637919
    2    0        -0.681077       -18.5330       4.463241
    2    1        -0.259788        -7.0692       4.518138


  Species O                   :

  List of atomic basis orbitals and eigenvalues:
    n    l      energy [Ha]    energy [eV]    outer radius [A]
    1    0       -18.898188      -514.2459       1.415765
    2    0        -0.878505       -23.9053       4.413171
    2    1        -0.331779        -9.0282       4.522403

  Assembling full basis from fixed parts.
  | Species H :   atomic orbital   1 s accepted.
  | Species H :    hydro orbital   2 s accepted.
  | Species H :    hydro orbital   2 p accepted.
  | Species C :   atomic orbital   1 s accepted.
  | Species C :    hydro orbital   2 s accepted.
  | Species C :   atomic orbital   2 s accepted.
  | Species C :   atomic orbital   2 p accepted.
  | Species C :    hydro orbital   2 p accepted.
  | Species C :    hydro orbital   3 d accepted.
  | Species N :   atomic orbital   1 s accepted.
  | Species N :    hydro orbital   3 s accepted.
  | Species N :   atomic orbital   2 s accepted.
  | Species N :   atomic orbital   2 p accepted.
  | Species N :    hydro orbital   2 p accepted.
  | Species N :    hydro orbital   3 d accepted.
  | Species O :   atomic orbital   1 s accepted.
  | Species O :    hydro orbital   3 s accepted.
  | Species O :   atomic orbital   2 s accepted.
  | Species O :   atomic orbital   2 p accepted.
  | Species O :    hydro orbital   2 p accepted.
  | Species O :    hydro orbital   3 d accepted.
 
  Basis size parameters after reduction:
  | Total number of radial functions:       21
  | Total number of basis functions :      119
 
  Per-task memory consumption for arrays in subroutine allocate_ext:
  |           5.250512MB.
  Testing on-site integration grid accuracy.
  |  Species  Function  <phi|h_atom|phi> (log., in eV)  <phi|h_atom|phi> (rad., in eV)
           1        1                 -6.4663192853                 -6.4651273558
           1        2                 13.7111246313                 13.7170609718
           1        3                 25.2673269279                 25.2674696378
           2        4               -273.1705927641               -273.1705631568
           2        5                -10.7109323383                -10.7107120029
           2        6                 17.4381822266                 17.4352413244
           2        7                 -5.2255326521                 -5.2270484734
           2        8                  8.6835629259                  8.6603288385
           2        9                 27.4952418996                 27.4953360207
           3       10               -384.4424306495               -384.4423701208
           3       11                 12.5842251816                 12.5842222903
           3       12                -15.7264628251                -15.7264433455
           3       13                 -7.0696854293                 -7.0701769954
           3       14                  8.8090390882                  8.7901077751
           3       15                 35.9586762123                 35.9588528632
           4       16               -514.2458688638               -514.2457643834
           4       17                 15.1795651126                 15.1795290741
           4       18                -21.5359799773                -21.5360846186
           4       19                 -9.0283069236                 -9.0284644067
           4       20                  8.3027758564                  8.2834874195
           4       21                 45.8339351984                 45.8338762259

  Preparing densities etc. for the partition functions (integrals / Hartree potential).

  Preparations completed.
  max(cpu_time)          :      0.174 s.
  Wall clock time (cpu1) :      0.193 s.
------------------------------------------------------------

------------------------------------------------------------
          Begin self-consistency loop: Initialization.

          Date     :  20200601, Time     :  010447.464
------------------------------------------------------------

  Initializing index lists of integration centers etc. from given atomic structure:
  | Number of centers in hartree potential         :        13
  | Number of centers in hartree multipole         :        13
  | Number of centers in electron density summation:        13
  | Number of centers in basis integrals           :        13
  | Number of centers in integrals                 :        13
  | Number of centers in hamiltonian               :        13
  * Using 20 tasks for Scalapack Eigenvalue solver.
  Detailed listing of tasks and assigned k-points:
  (for non-periodic systems, the "k-point" denotes an internal label only)
   Task     0 k-point     1 on r01c25.bullx
   Task     1 k-point     1 on r01c25.bullx
   Task     2 k-point     1 on r01c25.bullx
   Task     3 k-point     1 on r01c25.bullx
   Task     4 k-point     1 on r01c25.bullx
   Task     5 k-point     1 on r01c25.bullx
   Task     6 k-point     1 on r01c25.bullx
   Task     7 k-point     1 on r01c25.bullx
   Task     8 k-point     1 on r01c25.bullx
   Task     9 k-point     1 on r01c25.bullx
   Task    10 k-point     1 on r01c25.bullx
   Task    11 k-point     1 on r01c25.bullx
   Task    12 k-point     1 on r01c25.bullx
   Task    13 k-point     1 on r01c25.bullx
   Task    14 k-point     1 on r01c25.bullx
   Task    15 k-point     1 on r01c25.bullx
   Task    16 k-point     1 on r01c25.bullx
   Task    17 k-point     1 on r01c25.bullx
   Task    18 k-point     1 on r01c25.bullx
   Task    19 k-point     1 on r01c25.bullx
  Tasks:    20 split into      5 X      4 BLACS grid
  Calculating block size based on n_basis =          119  max_nprow =            5  max_npcol =            4
  ScaLAPACK block size set to:           16
  Allocating        0.008 MB for ovlp
  Allocating        0.008 MB for ham
  Allocating        0.008 MB for eigenvec
  Required Scalapack workspace - INTEGER:            1  REAL:             1
  Partitioning the integration grid into batches with parallel hashing+maxmin method.
  | Number of batches:      830
  | Maximal batch size:     190
  | Minimal batch size:      49
  | Average batch size:      83.911
  | Standard deviation of batch sizes:      18.456

  Integration load balanced across    20 MPI tasks.
  Work distribution over tasks is as follows:
  Task     0 has       3488 integration points.
  Task     1 has       3446 integration points.
  Task     2 has       3520 integration points.
  Task     3 has       3487 integration points.
  Task     4 has       3492 integration points.
  Task     5 has       3509 integration points.
  Task     6 has       3414 integration points.
  Task     7 has       3439 integration points.
  Task     8 has       3492 integration points.
  Task     9 has       3437 integration points.
  Task    10 has       3446 integration points.
  Task    11 has       3452 integration points.
  Task    12 has       3515 integration points.
  Task    13 has       3560 integration points.
  Task    14 has       3559 integration points.
  Task    15 has       3514 integration points.
  Task    16 has       3433 integration points.
  Task    17 has       3512 integration points.
  Task    18 has       3423 integration points.
  Task    19 has       3508 integration points.
  Initializing partition tables, free-atom densities, potentials, etc. across the integration grid (initialize_grid_storage).
  | initialize_grid_storage: Actual outermost partition radius vs. multipole_radius_free
  | (-- VB: in principle, multipole_radius_free should be larger, hence this output)
  | Species        1: Confinement radius =              4.999999999999999 AA, multipole_radius_free =              5.054417573612229 AA.
  | Species        1: outer_partition_radius set to              5.054417573612229 AA .
  | Species        2: Confinement radius =              4.999999999999999 AA, multipole_radius_free =              5.019602836301480 AA.
  | Species        2: outer_partition_radius set to              5.019602836301480 AA .
  | Species        3: Confinement radius =              4.999999999999999 AA, multipole_radius_free =              5.043624274424571 AA.
  | Species        3: outer_partition_radius set to              5.043624274424571 AA .
  | Species        4: Confinement radius =              4.999999999999999 AA, multipole_radius_free =              5.048384829883283 AA.
  | Species        4: outer_partition_radius set to              5.048384829883283 AA .
  | Original list of interatomic distances with          13 x         13 entries is created.
  | Net number of integration points:    69646
  | of which are non-zero points    :    59633
  Renormalizing the initial density to the exact electron count on the 3D integration grid.
  | Initial density: Formal number of electrons (from input files) :      48.0000000000
  | Integrated number of electrons on 3D grid     :      47.9998236562
  | Charge integration error                      :      -0.0001763438
  | Normalization factor for density and gradient :       1.0000036738
  Obtaining max. number of non-zero basis functions in each batch (get_n_compute_maxes).
  | Maximal number of non-zero basis functions:      119 in task     0
  | Maximal number of non-zero basis functions:      119 in task     1
  | Maximal number of non-zero basis functions:      118 in task     2
  | Maximal number of non-zero basis functions:      119 in task     3
  | Maximal number of non-zero basis functions:      119 in task     4
  | Maximal number of non-zero basis functions:      119 in task     5
  | Maximal number of non-zero basis functions:      119 in task     6
  | Maximal number of non-zero basis functions:      118 in task     7
  | Maximal number of non-zero basis functions:      118 in task     8
  | Maximal number of non-zero basis functions:      117 in task     9
  | Maximal number of non-zero basis functions:      117 in task    10
  | Maximal number of non-zero basis functions:      118 in task    11
  | Maximal number of non-zero basis functions:      117 in task    12
  | Maximal number of non-zero basis functions:      118 in task    13
  | Maximal number of non-zero basis functions:      118 in task    14
  | Maximal number of non-zero basis functions:      118 in task    15
  | Maximal number of non-zero basis functions:      118 in task    16
  | Maximal number of non-zero basis functions:      118 in task    17
  | Maximal number of non-zero basis functions:      118 in task    18
  | Maximal number of non-zero basis functions:      117 in task    19
  Selecting the method for density update.
  Loop over occupied states selected for charge density update.
  Allocating        0.050 MB for KS_eigenvector
  Integrating Hamiltonian matrix: batch-based integration.
  Time summed over all CPUs for integration: real work        0.546 s, elapsed        0.603 s
  Integrating overlap matrix.
  Time summed over all CPUs for integration: real work        0.225 s, elapsed        0.240 s
  Deallocating overlap matrix.

  Updating Kohn-Sham eigenvalues and eigenvectors using ELSI and the ELPA eigensolver.
  ELPA settings:
  | ELPA solver          1
  | Time full => band           :     0.003 s
  | Time band => tridiagonal    :     0.002 s
  | Time solve tridiagonal      :     0.003 s
  Overlap matrix is nonsingular
  | Lowest eigenvalue of overlap  :  0.34E-02
  | Highest eigenvalue of overlap :  0.63E+01
  Finished singularity check of overlap matrix
  | Time :     0.007 s
  Finished Cholesky decomposition
  | Time :     0.006 s
  Finished transformation to standard eigenproblem
  | Time :     0.001 s
  Starting ELPA eigensolver
  | Time full => tridiagonal    :     0.002 s
  | Time solve tridiagonal      :     0.000 s
  | Time ev tridiagonal => full :     0.001 s
  Finished solving standard eigenproblem
  | Time :     0.003 s
  Finished back-transformation of eigenvectors
  | Time :     0.000 s

  Obtaining occupation numbers and chemical potential using ELSI.
  | Chemical potential (Fermi level):    -6.22720853eV
  Writing Kohn-Sham eigenvalues.

  State    Occupation    Eigenvalue [Ha]    Eigenvalue [eV]
      1       2.00000         -19.007729         -517.22661
      2       2.00000         -18.977082         -516.39267
      3       2.00000         -14.245847         -387.64922
      4       2.00000         -10.167232         -276.66447
      5       2.00000         -10.141538         -275.96530
      6       2.00000         -10.131974         -275.70503
      7       2.00000          -1.182321          -32.17260
      8       2.00000          -1.099504          -29.91903
      9       2.00000          -0.991792          -26.98804
     10       2.00000          -0.861132          -23.43259
     11       2.00000          -0.757150          -20.60310
     12       2.00000          -0.678842          -18.47224
     13       2.00000          -0.625688          -17.02583
     14       2.00000          -0.619788          -16.86529
     15       2.00000          -0.588660          -16.01825
     16       2.00000          -0.562584          -15.30868
     17       2.00000          -0.555039          -15.10338
     18       2.00000          -0.528665          -14.38570
     19       2.00000          -0.515097          -14.01651
     20       2.00000          -0.499822          -13.60085
     21       2.00000          -0.467420          -12.71916
     22       2.00000          -0.432559          -11.77052
     23       2.00000          -0.403334          -10.97528
     24       2.00000          -0.383165          -10.42644
     25       0.00000          -0.156701           -4.26404
     26       0.00000          -0.074810           -2.03567
     27       0.00000          -0.050553           -1.37562
     28       0.00000          -0.040456           -1.10086
     29       0.00000          -0.021470           -0.58423
     30       0.00000           0.014524            0.39521
     31       0.00000           0.018149            0.49385
     32       0.00000           0.064789            1.76300
     33       0.00000           0.089683            2.44039
     34       0.00000           0.091706            2.49545
     35       0.00000           0.102505            2.78931
     36       0.00000           0.133852            3.64229
     37       0.00000           0.177003            4.81649
     38       0.00000           0.189222            5.14899
     39       0.00000           0.217052            5.90629
     40       0.00000           0.230376            6.26885
     41       0.00000           0.248391            6.75906
     42       0.00000           0.271606            7.39079
     43       0.00000           0.292676            7.96412
     44       0.00000           0.302583            8.23370
     45       0.00000           0.324782            8.83777
     46       0.00000           0.359575            9.78454
     47       0.00000           0.373272           10.15725
     48       0.00000           0.385728           10.49620
     49       0.00000           0.430024           11.70156
     50       0.00000           0.470408           12.80046
     51       0.00000           0.498413           13.56251
     52       0.00000           0.514038           13.98770
     53       0.00000           0.534524           14.54512

  Highest occupied state (VBM) at    -10.42644413 eV
  | Occupation number:      2.00000000

  Lowest unoccupied state (CBM) at    -4.26404315 eV
  | Occupation number:      0.00000000

  Overall HOMO-LUMO gap:      6.16240098 eV.
  Calculating total energy contributions from superposition of free atom densities.

  Total energy components:
  | Sum of eigenvalues            :        -188.84792908 Ha       -5138.81361035 eV
  | XC energy correction          :         -41.80097321 Ha       -1137.46235438 eV
  | XC potential correction       :          53.73678199 Ha        1462.25223640 eV
  | Free-atom electrostatic energy:        -146.83621354 Ha       -3995.61666516 eV
  | Hartree energy correction     :           0.00000000 Ha           0.00000000 eV
  | vdW energy correction         :           0.00000000 Ha           0.00000000 eV
  | Entropy correction            :           0.00000000 Ha           0.00000000 eV
  | ---------------------------
  | Total energy                  :        -323.74833384 Ha       -8809.64039349 eV
  | Total energy, T -> 0          :        -323.74833384 Ha       -8809.64039349 eV  <-- do not rely on this value for anything but (periodic) metals
  | Electronic free energy        :        -323.74833384 Ha       -8809.64039349 eV

  Derived energy quantities:
  | Kinetic energy                :         320.53007552 Ha        8722.06712874 eV
  | Electrostatic energy          :        -602.47743616 Ha      -16394.24516784 eV
  | Energy correction for multipole
  | error in Hartree potential    :           0.00000000 Ha           0.00000000 eV
  | Sum of eigenvalues per atom                           :        -395.29335464 eV
  | Total energy (T->0) per atom                          :        -677.66464565 eV  <-- do not rely on this value for anything but (periodic) metals
  | Electronic free energy per atom                       :        -677.66464565 eV
  Initialize hartree_potential_storage
  Max. number of atoms included in rho_multipole:           13

  End scf initialization - timings             :  max(cpu_time)    wall_clock(cpu1)
  | Time for scf. initialization               :        0.132 s           0.145 s
  | Boundary condition initialization          :        0.000 s           0.001 s
  | Integration                                :        0.043 s           0.052 s
  | Solution of K.-S. eqns.                    :        0.018 s           0.019 s
  | Grid partitioning                          :        0.048 s           0.048 s
  | Preloading free-atom quantities on grid    :        0.003 s           0.003 s
  | Free-atom superposition energy             :        0.005 s           0.005 s
  | Total energy evaluation                    :        0.000 s           0.000 s

  Partial memory accounting:
  | Current value for overall tracked memory usage on task 0  :           0.133 MB
  | Peak value for overall tracked memory usage on task 0     :           0.849 MB after allocating wave
  | Largest tracked array allocation on task 0 so far         :           0.181 MB  when allocating H_times_psi
  Note:  These values currently only include a subset of arrays which are explicitly tracked.
  The "true" memory usage will be greater.
------------------------------------------------------------

------------------------------------------------------------
          Begin self-consistency iteration #    1

  Date     :  20200601, Time     :  010447.609
------------------------------------------------------------
  Evaluating new KS density.
  Integration grid: deviation in total charge (<rho> - N_e) =  -2.131628E-14
  Pulay mixing of updated and previous charge densities.

  Evaluating partitioned Hartree potential by multipole expansion.
  | Analytical far-field extrapolation by fixed multipoles:
  | Hartree multipole sum: apparent total charge =  -0.274932E-03
  Summing up the Hartree potential.
  Time summed over all CPUs for potential: real work        0.423 s, elapsed        0.432 s
  | RMS charge density error from multipole expansion :   0.599270E-02

  Integrating Hamiltonian matrix: batch-based integration.
  Time summed over all CPUs for integration: real work        0.515 s, elapsed        0.552 s

  Updating Kohn-Sham eigenvalues and eigenvectors using ELSI and the ELPA eigensolver.
  ELPA settings:
  | ELPA solver          1
  Finished transformation to standard eigenproblem
  | Time :     0.000 s
  Starting ELPA eigensolver
  | Time full => tridiagonal    :     0.002 s
  | Time solve tridiagonal      :     0.000 s
  | Time ev tridiagonal => full :     0.000 s
  Finished solving standard eigenproblem
  | Time :     0.003 s
  Finished back-transformation of eigenvectors
  | Time :     0.000 s

  Obtaining occupation numbers and chemical potential using ELSI.
  | Chemical potential (Fermi level):    -5.19355470eV
  Writing Kohn-Sham eigenvalues.

  State    Occupation    Eigenvalue [Ha]    Eigenvalue [eV]
      1       2.00000         -18.901231         -514.32867
      2       2.00000         -18.829931         -512.38850
      3       2.00000         -14.093308         -383.49842
      4       2.00000         -10.112601         -275.17788
      5       2.00000         -10.065536         -273.89716
      6       2.00000         -10.043527         -273.29826
      7       2.00000          -1.131144          -30.77999
      8       2.00000          -1.031621          -28.07183
      9       2.00000          -0.920857          -25.05780
     10       2.00000          -0.801197          -21.80168
     11       2.00000          -0.708363          -19.27554
     12       2.00000          -0.633606          -17.24129
     13       2.00000          -0.576092          -15.67625
     14       2.00000          -0.560721          -15.25799
     15       2.00000          -0.525483          -14.29911
     16       2.00000          -0.503950          -13.71318
     17       2.00000          -0.492610          -13.40461
     18       2.00000          -0.474726          -12.91796
     19       2.00000          -0.455777          -12.40231
     20       2.00000          -0.446229          -12.14252
     21       2.00000          -0.406444          -11.05991
     22       2.00000          -0.370100          -10.07094
     23       2.00000          -0.324118           -8.81970
     24       2.00000          -0.311017           -8.46320
     25       0.00000          -0.117619           -3.20058
     26       0.00000          -0.054149           -1.47346
     27       0.00000          -0.020882           -0.56823
     28       0.00000          -0.004336           -0.11799
     29       0.00000           0.009675            0.26326
     30       0.00000           0.048075            1.30820
     31       0.00000           0.053169            1.44679
     32       0.00000           0.099605            2.71039
     33       0.00000           0.123802            3.36882
     34       0.00000           0.130591            3.55357
     35       0.00000           0.134552            3.66135
     36       0.00000           0.166554            4.53216
     37       0.00000           0.205849            5.60143
     38       0.00000           0.219859            5.98266
     39       0.00000           0.249571            6.79116
     40       0.00000           0.258109            7.02349
     41       0.00000           0.281549            7.66133
     42       0.00000           0.308030            8.38193
     43       0.00000           0.330210            8.98546
     44       0.00000           0.341590            9.29513
     45       0.00000           0.360542            9.81084
     46       0.00000           0.395679           10.76698
     47       0.00000           0.411164           11.18834
     48       0.00000           0.429394           11.68441
     49       0.00000           0.461465           12.55711
     50       0.00000           0.500958           13.63175
     51       0.00000           0.534074           14.53288
     52       0.00000           0.549461           14.95158
     53       0.00000           0.569725           15.50299

  Highest occupied state (VBM) at     -8.46320103 eV
  | Occupation number:      2.00000000

  Lowest unoccupied state (CBM) at    -3.20057917 eV
  | Occupation number:      0.00000000

  Overall HOMO-LUMO gap:      5.26262186 eV.

  Total energy components:
  | Sum of eigenvalues            :        -185.44037733 Ha       -5046.08940927 eV
  | XC energy correction          :         -42.12712807 Ha       -1146.33747975 eV
  | XC potential correction       :          54.16093345 Ha        1473.79398512 eV
  | Free-atom electrostatic energy:        -146.83621354 Ha       -3995.61666516 eV
  | Hartree energy correction     :          -3.32247521 Ha         -90.40915046 eV
  | vdW energy correction         :           0.00000000 Ha           0.00000000 eV
  | Entropy correction            :           0.00000000 Ha           0.00000000 eV
  | ---------------------------
  | Total energy                  :        -323.56526069 Ha       -8804.65871951 eV
  | Total energy, T -> 0          :        -323.56526069 Ha       -8804.65871951 eV  <-- do not rely on this value for anything but (periodic) metals
  | Electronic free energy        :        -323.56526069 Ha       -8804.65871951 eV

  Derived energy quantities:
  | Kinetic energy                :         322.31869868 Ha        8770.73804127 eV
  | Electrostatic energy          :        -603.75683130 Ha      -16429.05928103 eV
  | Energy correction for multipole
  | error in Hartree potential    :           0.01248957 Ha           0.33985836 eV
  | Sum of eigenvalues per atom                           :        -388.16072379 eV
  | Total energy (T->0) per atom                          :        -677.28143996 eV  <-- do not rely on this value for anything but (periodic) metals
  | Electronic free energy per atom                       :        -677.28143996 eV

  Self-consistency convergence accuracy:
  | Change of charge density      :  0.5855E+00
  | Change of sum of eigenvalues  :  0.9272E+02 eV
  | Change of total energy        :  0.4982E+01 eV

  End self-consistency iteration #     1       :  max(cpu_time)    wall_clock(cpu1)
  | Time for this iteration                    :        0.078 s           0.079 s
  | Charge density update                      :        0.022 s           0.022 s
  | Density mixing                             :        0.000 s           0.000 s
  | Hartree multipole update                   :        0.001 s           0.002 s
  | Hartree multipole summation                :        0.022 s           0.022 s
  | Integration                                :        0.028 s           0.028 s
  | Solution of K.-S. eqns.                    :        0.004 s           0.004 s
  | Total energy evaluation                    :        0.000 s           0.001 s

  Partial memory accounting:
  | Current value for overall tracked memory usage on task 0  :           0.133 MB
  | Peak value for overall tracked memory usage on task 0     :           0.856 MB after allocating gradient_basis_wave
  | Largest tracked array allocation on task 0 so far         :           0.543 MB  when allocating gradient_basis_wave
  Note:  These values currently only include a subset of arrays which are explicitly tracked.
  The "true" memory usage will be greater.
------------------------------------------------------------

------------------------------------------------------------
          Begin self-consistency iteration #    2

  Date     :  20200601, Time     :  010447.697
------------------------------------------------------------
  Evaluating new KS density.
  Integration grid: deviation in total charge (<rho> - N_e) =   1.421085E-14
  Pulay mixing of updated and previous charge densities.

  Evaluating partitioned Hartree potential by multipole expansion.
  | Analytical far-field extrapolation by fixed multipoles:
  | Hartree multipole sum: apparent total charge =  -0.396028E-03
  Summing up the Hartree potential.
  Time summed over all CPUs for potential: real work        0.421 s, elapsed        0.431 s
  | RMS charge density error from multipole expansion :   0.140241E-01

  Integrating Hamiltonian matrix: batch-based integration.
  Time summed over all CPUs for integration: real work        0.517 s, elapsed        0.549 s

  Updating Kohn-Sham eigenvalues and eigenvectors using ELSI and the ELPA eigensolver.
  ELPA settings:
  | ELPA solver          1
  Finished transformation to standard eigenproblem
  | Time :     0.000 s
  Starting ELPA eigensolver
  | Time full => tridiagonal    :     0.002 s
  | Time solve tridiagonal      :     0.000 s
  | Time ev tridiagonal => full :     0.000 s
  Finished solving standard eigenproblem
  | Time :     0.003 s
  Finished back-transformation of eigenvectors
  | Time :     0.000 s

  Obtaining occupation numbers and chemical potential using ELSI.
  | Chemical potential (Fermi level):    -3.97764726eV
  Highest occupied state (VBM) at     -6.51620214 eV
  | Occupation number:      2.00000000

  Lowest unoccupied state (CBM) at    -1.90709892 eV
  | Occupation number:      0.00000000

  Overall HOMO-LUMO gap:      4.60910323 eV.

  Checking to see if s.c.f. parameters should be adjusted.

  Total energy components:
  | Sum of eigenvalues            :        -181.96094818 Ha       -4951.40932481 eV
  | XC energy correction          :         -42.47231054 Ha       -1155.73037270 eV
  | XC potential correction       :          54.60818368 Ha        1485.96428307 eV
  | Free-atom electrostatic energy:        -146.83621354 Ha       -3995.61666516 eV
  | Hartree energy correction     :          -6.82668738 Ha        -185.76361506 eV
  | vdW energy correction         :           0.00000000 Ha           0.00000000 eV
  | Entropy correction            :           0.00000000 Ha           0.00000000 eV
  | ---------------------------
  | Total energy                  :        -323.48797595 Ha       -8802.55569465 eV
  | Total energy, T -> 0          :        -323.48797595 Ha       -8802.55569465 eV  <-- do not rely on this value for anything but (periodic) metals
  | Electronic free energy        :        -323.48797595 Ha       -8802.55569465 eV

  Derived energy quantities:
  | Kinetic energy                :         323.58639754 Ha        8805.23388237 eV
  | Electrostatic energy          :        -604.60206295 Ha      -16452.05920432 eV
  | Energy correction for multipole
  | error in Hartree potential    :           0.02693062 Ha           0.73281947 eV
  | Sum of eigenvalues per atom                           :        -380.87764037 eV
  | Total energy (T->0) per atom                          :        -677.11966882 eV  <-- do not rely on this value for anything but (periodic) metals
  | Electronic free energy per atom                       :        -677.11966882 eV

  Self-consistency convergence accuracy:
  | Change of charge density      :  0.3661E+00
  | Change of sum of eigenvalues  :  0.9468E+02 eV
  | Change of total energy        :  0.2103E+01 eV

  End self-consistency iteration #     2       :  max(cpu_time)    wall_clock(cpu1)
  | Time for this iteration                    :        0.089 s           0.114 s
  | Charge density update                      :        0.032 s           0.026 s
  | Density mixing                             :        0.001 s           0.032 s
  | Hartree multipole update                   :        0.001 s           0.001 s
  | Hartree multipole summation                :        0.022 s           0.022 s
  | Integration                                :        0.028 s           0.028 s
  | Solution of K.-S. eqns.                    :        0.004 s           0.005 s
  | Total energy evaluation                    :        0.000 s           0.000 s

  Partial memory accounting:
  | Current value for overall tracked memory usage on task 0  :           0.134 MB
  | Peak value for overall tracked memory usage on task 0     :           0.856 MB after allocating gradient_basis_wave
  | Largest tracked array allocation on task 0 so far         :           0.543 MB  when allocating gradient_basis_wave
  Note:  These values currently only include a subset of arrays which are explicitly tracked.
  The "true" memory usage will be greater.
------------------------------------------------------------

------------------------------------------------------------
          Begin self-consistency iteration #    3

  Date     :  20200601, Time     :  010447.819
------------------------------------------------------------
  Evaluating new KS density.
  Integration grid: deviation in total charge (<rho> - N_e) =  -1.421085E-14
  Pulay mixing of updated and previous charge densities.

  Evaluating partitioned Hartree potential by multipole expansion.
  | Analytical far-field extrapolation by fixed multipoles:
  | Hartree multipole sum: apparent total charge =  -0.480777E-03
  Summing up the Hartree potential.
  Time summed over all CPUs for potential: real work        0.421 s, elapsed        0.431 s
  | RMS charge density error from multipole expansion :   0.221005E-01

  Integrating Hamiltonian matrix: batch-based integration.
  Time summed over all CPUs for integration: real work        0.516 s, elapsed        0.544 s

  Updating Kohn-Sham eigenvalues and eigenvectors using ELSI and the ELPA eigensolver.
  ELPA settings:
  | ELPA solver          1
  Finished transformation to standard eigenproblem
  | Time :     0.000 s
  Starting ELPA eigensolver
  | Time full => tridiagonal    :     0.002 s
  | Time solve tridiagonal      :     0.000 s
  | Time ev tridiagonal => full :     0.000 s
  Finished solving standard eigenproblem
  | Time :     0.003 s
  Finished back-transformation of eigenvectors
  | Time :     0.000 s

  Obtaining occupation numbers and chemical potential using ELSI.
  | Chemical potential (Fermi level):    -3.32566397eV
  Highest occupied state (VBM) at     -5.79955290 eV
  | Occupation number:      2.00000000

  Lowest unoccupied state (CBM) at    -1.18153380 eV
  | Occupation number:      0.00000000

  Overall HOMO-LUMO gap:      4.61801910 eV.

  Total energy components:
  | Sum of eigenvalues            :        -180.58467015 Ha       -4913.95889431 eV
  | XC energy correction          :         -42.62763653 Ha       -1159.95700793 eV
  | XC potential correction       :          54.80619584 Ha        1491.35246790 eV
  | Free-atom electrostatic energy:        -146.83621354 Ha       -3995.61666516 eV
  | Hartree energy correction     :          -8.23217914 Ha        -224.00899181 eV
  | vdW energy correction         :           0.00000000 Ha           0.00000000 eV
  | Entropy correction            :           0.00000000 Ha           0.00000000 eV
  | ---------------------------
  | Total energy                  :        -323.47450352 Ha       -8802.18909129 eV
  | Total energy, T -> 0          :        -323.47450352 Ha       -8802.18909129 eV  <-- do not rely on this value for anything but (periodic) metals
  | Electronic free energy        :        -323.47450352 Ha       -8802.18909129 eV

  Derived energy quantities:
  | Kinetic energy                :         323.23804253 Ha        8795.75466034 eV
  | Electrostatic energy          :        -604.08490952 Ha      -16437.98674371 eV
  | Energy correction for multipole
  | error in Hartree potential    :           0.03787571 Ha           1.03065049 eV
  | Sum of eigenvalues per atom                           :        -377.99683802 eV
  | Total energy (T->0) per atom                          :        -677.09146856 eV  <-- do not rely on this value for anything but (periodic) metals
  | Electronic free energy per atom                       :        -677.09146856 eV

  Self-consistency convergence accuracy:
  | Change of charge density      :  0.2092E+00
  | Change of sum of eigenvalues  :  0.3745E+02 eV
  | Change of total energy        :  0.3666E+00 eV

  End self-consistency iteration #     3       :  max(cpu_time)    wall_clock(cpu1)
  | Time for this iteration                    :        0.080 s           0.076 s
  | Charge density update                      :        0.025 s           0.019 s
  | Density mixing                             :        0.001 s           0.002 s
  | Hartree multipole update                   :        0.001 s           0.001 s
  | Hartree multipole summation                :        0.022 s           0.022 s
  | Integration                                :        0.028 s           0.028 s
  | Solution of K.-S. eqns.                    :        0.004 s           0.004 s
  | Total energy evaluation                    :        0.000 s           0.000 s

  Partial memory accounting:
  | Current value for overall tracked memory usage on task 0  :           0.134 MB
  | Peak value for overall tracked memory usage on task 0     :           0.857 MB after allocating gradient_basis_wave
  | Largest tracked array allocation on task 0 so far         :           0.543 MB  when allocating gradient_basis_wave
  Note:  These values currently only include a subset of arrays which are explicitly tracked.
  The "true" memory usage will be greater.
------------------------------------------------------------

------------------------------------------------------------
          Begin self-consistency iteration #    4

  Date     :  20200601, Time     :  010447.900
------------------------------------------------------------
  Evaluating new KS density.
  Integration grid: deviation in total charge (<rho> - N_e) =   7.105427E-15
  Pulay mixing of updated and previous charge densities.

  Evaluating partitioned Hartree potential by multipole expansion.
  | Analytical far-field extrapolation by fixed multipoles:
  | Hartree multipole sum: apparent total charge =  -0.509832E-03
  Summing up the Hartree potential.
  Time summed over all CPUs for potential: real work        0.412 s, elapsed        0.426 s
  | RMS charge density error from multipole expansion :   0.257805E-01

  Integrating Hamiltonian matrix: batch-based integration.
  Time summed over all CPUs for integration: real work        0.514 s, elapsed        0.542 s

  Updating Kohn-Sham eigenvalues and eigenvectors using ELSI and the ELPA eigensolver.
  ELPA settings:
  | ELPA solver          1
  Finished transformation to standard eigenproblem
  | Time :     0.000 s
  Starting ELPA eigensolver
  | Time full => tridiagonal    :     0.002 s
  | Time solve tridiagonal      :     0.000 s
  | Time ev tridiagonal => full :     0.000 s
  Finished solving standard eigenproblem
  | Time :     0.003 s
  Finished back-transformation of eigenvectors
  | Time :     0.000 s

  Obtaining occupation numbers and chemical potential using ELSI.
  | Chemical potential (Fermi level):    -3.21985482eV
  Highest occupied state (VBM) at     -5.61251808 eV
  | Occupation number:      2.00000000

  Lowest unoccupied state (CBM) at    -1.05559929 eV
  | Occupation number:      0.00000000

  Overall HOMO-LUMO gap:      4.55691880 eV.

  Total energy components:
  | Sum of eigenvalues            :        -180.43901147 Ha       -4909.99531996 eV
  | XC energy correction          :         -42.66728019 Ha       -1161.03576688 eV
  | XC potential correction       :          54.85587686 Ha        1492.70435739 eV
  | Free-atom electrostatic energy:        -146.83621354 Ha       -3995.61666516 eV
  | Hartree energy correction     :          -8.38674088 Ha        -228.21483080 eV
  | vdW energy correction         :           0.00000000 Ha           0.00000000 eV
  | Entropy correction            :           0.00000000 Ha           0.00000000 eV
  | ---------------------------
  | Total energy                  :        -323.47336922 Ha       -8802.15822542 eV
  | Total energy, T -> 0          :        -323.47336922 Ha       -8802.15822542 eV  <-- do not rely on this value for anything but (periodic) metals
  | Electronic free energy        :        -323.47336922 Ha       -8802.15822542 eV

  Derived energy quantities:
  | Kinetic energy                :         322.83117675 Ha        8784.68327906 eV
  | Electrostatic energy          :        -603.63726578 Ha      -16425.80573759 eV
  | Energy correction for multipole
  | error in Hartree potential    :           0.04229826 Ha           1.15099419 eV
  | Sum of eigenvalues per atom                           :        -377.69194769 eV
  | Total energy (T->0) per atom                          :        -677.08909426 eV  <-- do not rely on this value for anything but (periodic) metals
  | Electronic free energy per atom                       :        -677.08909426 eV

  Self-consistency convergence accuracy:
  | Change of charge density      :  0.7112E-01
  | Change of sum of eigenvalues  :  0.3964E+01 eV
  | Change of total energy        :  0.3087E-01 eV

  End self-consistency iteration #     4       :  max(cpu_time)    wall_clock(cpu1)
  | Time for this iteration                    :        0.077 s           0.076 s
  | Charge density update                      :        0.022 s           0.020 s
  | Density mixing                             :        0.001 s           0.001 s
  | Hartree multipole update                   :        0.001 s           0.002 s
  | Hartree multipole summation                :        0.022 s           0.021 s
  | Integration                                :        0.028 s           0.028 s
  | Solution of K.-S. eqns.                    :        0.004 s           0.004 s
  | Total energy evaluation                    :        0.000 s           0.000 s

  Partial memory accounting:
  | Current value for overall tracked memory usage on task 0  :           0.134 MB
  | Peak value for overall tracked memory usage on task 0     :           0.857 MB after allocating gradient_basis_wave
  | Largest tracked array allocation on task 0 so far         :           0.543 MB  when allocating gradient_basis_wave
  Note:  These values currently only include a subset of arrays which are explicitly tracked.
  The "true" memory usage will be greater.
------------------------------------------------------------

------------------------------------------------------------
          Begin self-consistency iteration #    5

  Date     :  20200601, Time     :  010447.985
------------------------------------------------------------
  Evaluating new KS density.
  Integration grid: deviation in total charge (<rho> - N_e) =   1.421085E-14
  Pulay mixing of updated and previous charge densities.

  Evaluating partitioned Hartree potential by multipole expansion.
  | Analytical far-field extrapolation by fixed multipoles:
  | Hartree multipole sum: apparent total charge =  -0.504402E-03
  Summing up the Hartree potential.
  Time summed over all CPUs for potential: real work        0.413 s, elapsed        0.426 s
  | RMS charge density error from multipole expansion :   0.255378E-01

  Integrating Hamiltonian matrix: batch-based integration.
  Time summed over all CPUs for integration: real work        0.514 s, elapsed        0.543 s

  Updating Kohn-Sham eigenvalues and eigenvectors using ELSI and the ELPA eigensolver.
  ELPA settings:
  | ELPA solver          1
  Finished transformation to standard eigenproblem
  | Time :     0.000 s
  Starting ELPA eigensolver
  | Time full => tridiagonal    :     0.002 s
  | Time solve tridiagonal      :     0.000 s
  | Time ev tridiagonal => full :     0.000 s
  Finished solving standard eigenproblem
  | Time :     0.003 s
  Finished back-transformation of eigenvectors
  | Time :     0.000 s

  Obtaining occupation numbers and chemical potential using ELSI.
  | Chemical potential (Fermi level):    -3.28757817eV
  Highest occupied state (VBM) at     -5.71077334 eV
  | Occupation number:      2.00000000

  Lowest unoccupied state (CBM) at    -1.15078152 eV
  | Occupation number:      0.00000000

  Overall HOMO-LUMO gap:      4.55999182 eV.

  Total energy components:
  | Sum of eigenvalues            :        -180.63529236 Ha       -4915.33639471 eV
  | XC energy correction          :         -42.64320436 Ha       -1160.38063023 eV
  | XC potential correction       :          54.82462917 Ha        1491.85406428 eV
  | Free-atom electrostatic energy:        -146.83621354 Ha       -3995.61666516 eV
  | Hartree energy correction     :          -8.18298303 Ha        -222.67029755 eV
  | vdW energy correction         :           0.00000000 Ha           0.00000000 eV
  | Entropy correction            :           0.00000000 Ha           0.00000000 eV
  | ---------------------------
  | Total energy                  :        -323.47306413 Ha       -8802.14992336 eV
  | Total energy, T -> 0          :        -323.47306413 Ha       -8802.14992336 eV  <-- do not rely on this value for anything but (periodic) metals
  | Electronic free energy        :        -323.47306413 Ha       -8802.14992336 eV

  Derived energy quantities:
  | Kinetic energy                :         322.71628136 Ha        8781.55681643 eV
  | Electrostatic energy          :        -603.54614112 Ha      -16423.32610956 eV
  | Energy correction for multipole
  | error in Hartree potential    :           0.04162130 Ha           1.13257331 eV
  | Sum of eigenvalues per atom                           :        -378.10279959 eV
  | Total energy (T->0) per atom                          :        -677.08845564 eV  <-- do not rely on this value for anything but (periodic) metals
  | Electronic free energy per atom                       :        -677.08845564 eV

  Self-consistency convergence accuracy:
  | Change of charge density      :  0.2207E-01
  | Change of sum of eigenvalues  : -0.5341E+01 eV
  | Change of total energy        :  0.8302E-02 eV

  End self-consistency iteration #     5       :  max(cpu_time)    wall_clock(cpu1)
  | Time for this iteration                    :        0.080 s           0.075 s
  | Charge density update                      :        0.024 s           0.019 s
  | Density mixing                             :        0.001 s           0.001 s
  | Hartree multipole update                   :        0.001 s           0.001 s
  | Hartree multipole summation                :        0.021 s           0.021 s
  | Integration                                :        0.028 s           0.028 s
  | Solution of K.-S. eqns.                    :        0.004 s           0.004 s
  | Total energy evaluation                    :        0.000 s           0.000 s

  Partial memory accounting:
  | Current value for overall tracked memory usage on task 0  :           0.134 MB
  | Peak value for overall tracked memory usage on task 0     :           0.857 MB after allocating gradient_basis_wave
  | Largest tracked array allocation on task 0 so far         :           0.543 MB  when allocating gradient_basis_wave
  Note:  These values currently only include a subset of arrays which are explicitly tracked.
  The "true" memory usage will be greater.
------------------------------------------------------------

------------------------------------------------------------
          Begin self-consistency iteration #    6

  Date     :  20200601, Time     :  010448.066
------------------------------------------------------------
  Evaluating new KS density.
  Integration grid: deviation in total charge (<rho> - N_e) =   0.000000E+00
  Pulay mixing of updated and previous charge densities.

[...]
  |   Hirshfeld dipole moment :      0.05520216
  |   Hirshfeld second moments:      0.02479917      -0.01687511      -0.01375231
  |                                 -0.01687511      -0.02349706       0.01752200
  |                                 -0.01375231       0.01752200      -0.04762002
  ----------------------------------------------------------------------
  | Atom    12: O
  |   Hirshfeld charge        :     -0.16281280
  |   Free atom volume        :     23.61338643
  |   Hirshfeld volume        :     21.14375924
  |   Hirshfeld dipole vector :     -0.01467357       0.02908075      -0.03337192
  |   Hirshfeld dipole moment :      0.04663356
  |   Hirshfeld second moments:      0.04694381      -0.02123943      -0.01951889
  |                                 -0.02123943       0.04329959       0.03067341
  |                                 -0.01951889       0.03067341       0.06202467
  ----------------------------------------------------------------------
  | Atom    13: H
  |   Hirshfeld charge        :      0.15718254
  |   Free atom volume        :      9.95071624
  |   Hirshfeld volume        :      6.58545485
  |   Hirshfeld dipole vector :     -0.05467996       0.06874354       0.05477801
  |   Hirshfeld dipole moment :      0.10351909
  |   Hirshfeld second moments:      0.11464131       0.00879246      -0.00279076
  |                                  0.00879246       0.07511241       0.01392888
  |                                 -0.00279076       0.01392888       0.11439737
  ----------------------------------------------------------------------


  Total energy components:
  | Sum of eigenvalues            :        -180.63463604 Ha       -4915.31853537 eV
  | XC energy correction          :         -42.64002949 Ha       -1160.29423754 eV
  | XC potential correction       :          54.82054862 Ha        1491.74302705 eV
  | Free-atom electrostatic energy:        -146.83621354 Ha       -3995.61666516 eV
  | Hartree energy correction     :          -8.18266363 Ha        -222.66160628 eV
  | vdW energy correction         :          -0.00320520 Ha          -0.08721806 eV
  | Entropy correction            :           0.00000000 Ha           0.00000000 eV
  | ---------------------------
  | Total energy                  :        -323.47619929 Ha       -8802.23523535 eV
  | Total energy, T -> 0          :        -323.47619929 Ha       -8802.23523535 eV  <-- do not rely on this value for anything but (periodic) metals
  | Electronic free energy        :        -323.47619929 Ha       -8802.23523535 eV

  Derived energy quantities:
  | Kinetic energy                :         322.60557544 Ha        8778.54435509 eV
  | Electrostatic energy          :        -603.43854003 Ha      -16420.39813484 eV
  | Energy correction for multipole
  | error in Hartree potential    :           0.04200611 Ha           1.14304430 eV
  | Sum of eigenvalues per atom                           :        -378.10142580 eV
  | Total energy (T->0) per atom                          :        -677.09501810 eV  <-- do not rely on this value for anything but (periodic) metals
  | Electronic free energy per atom                       :        -677.09501810 eV

  atomic forces [eV/Ang]:
  -----------------------
  atom #    1
   Hellmann-Feynman              :  0.735273E+00 -0.481561E+00  0.512509E+00
   Ionic forces                  :  0.000000E+00  0.000000E+00  0.000000E+00
   Multipole                     :  0.127338E+00  0.346251E+00 -0.232112E+00
   Pulay + GGA                   : -0.129704E+01  0.229532E+00 -0.135629E+01
   Van der Waals                 :  0.193271E-02  0.674205E-03 -0.343375E-02
   ----------------------------------------------------------------
   Total forces(   1)            : -0.432494E+00  0.948966E-01 -0.107933E+01
  atom #    2
   Hellmann-Feynman              :  0.375096E+00 -0.564169E-01  0.294409E+00
   Ionic forces                  :  0.000000E+00  0.000000E+00  0.000000E+00
   Multipole                     :  0.161179E+00  0.164327E-01 -0.341585E-01
   Pulay + GGA                   : -0.114753E+00  0.170037E-01  0.273550E-03
   Van der Waals                 :  0.432171E-02  0.140076E-02  0.597972E-03
   ----------------------------------------------------------------
   Total forces(   2)            :  0.425843E+00 -0.215798E-01  0.261122E+00
  atom #    3
   Hellmann-Feynman              : -0.965090E+01 -0.636211E+01  0.478886E-01
   Ionic forces                  :  0.000000E+00  0.000000E+00  0.000000E+00
   Multipole                     : -0.656030E-01  0.384352E-02 -0.809797E+00
   Pulay + GGA                   :  0.973639E+01  0.623376E+01  0.165718E+01
   Van der Waals                 :  0.235878E-02  0.426121E-02  0.305741E-02
   ----------------------------------------------------------------
   Total forces(   3)            :  0.222479E-01 -0.120251E+00  0.898327E+00
  atom #    4
   Hellmann-Feynman              :  0.269265E+00  0.352272E-01 -0.137693E+00
   Ionic forces                  :  0.000000E+00  0.000000E+00  0.000000E+00
   Multipole                     : -0.528668E-02  0.745486E-01 -0.101063E+00
   Pulay + GGA                   : -0.228102E-01 -0.221877E+00  0.233718E-01
   Van der Waals                 : -0.161444E-02 -0.274371E-02  0.314622E-02
   ----------------------------------------------------------------
   Total forces(   4)            :  0.239554E+00 -0.114845E+00 -0.212238E+00
  atom #    5
   Hellmann-Feynman              :  0.555726E-01  0.585381E-01 -0.268807E+00
   Ionic forces                  :  0.000000E+00  0.000000E+00  0.000000E+00
   Multipole                     :  0.431435E-01  0.509799E-02 -0.112135E+00
   Pulay + GGA                   : -0.218908E+00 -0.121964E-01  0.127621E+00
   Van der Waals                 : -0.265079E-02  0.280517E-02  0.154590E-02
   ----------------------------------------------------------------
   Total forces(   5)            : -0.122843E+00  0.542449E-01 -0.251775E+00
  atom #    6
   Hellmann-Feynman              :  0.467982E+00 -0.431284E+00 -0.482721E+00
   Ionic forces                  :  0.000000E+00  0.000000E+00  0.000000E+00
   Multipole                     : -0.529815E-01  0.666486E+00  0.316444E+00
   Pulay + GGA                   : -0.531389E-01 -0.456541E+00  0.157969E+00
   Van der Waals                 : -0.148375E-02  0.668672E-02 -0.485308E-02
   ----------------------------------------------------------------
   Total forces(   6)            :  0.360378E+00 -0.214652E+00 -0.131612E-01
  atom #    7
   Hellmann-Feynman              :  0.206227E-01  0.132288E+00  0.105521E+00
   Ionic forces                  :  0.000000E+00  0.000000E+00  0.000000E+00
   Multipole                     :  0.545443E-01  0.113869E+00  0.536197E-01
   Pulay + GGA                   : -0.750699E-01 -0.770339E-01 -0.318960E-01
   Van der Waals                 : -0.453932E-02 -0.946453E-02 -0.242750E-02
   ----------------------------------------------------------------
   Total forces(   7)            : -0.444228E-02  0.159658E+00  0.124817E+00
  atom #    8
   Hellmann-Feynman              : -0.177052E+00 -0.385049E-01 -0.563816E-01
   Ionic forces                  :  0.000000E+00  0.000000E+00  0.000000E+00
   Multipole                     : -0.100537E+00  0.133920E+00 -0.367439E-03
   Pulay + GGA                   :  0.443820E-01 -0.652226E-01  0.109614E+00
   Van der Waals                 :  0.263367E-02 -0.614264E-02  0.426521E-02
   ----------------------------------------------------------------
   Total forces(   8)            : -0.230573E+00  0.240496E-01  0.571298E-01
  atom #    9
   Hellmann-Feynman              : -0.173506E+00  0.117611E+00  0.275641E+00
   Ionic forces                  :  0.000000E+00  0.000000E+00  0.000000E+00
   Multipole                     : -0.103836E+00  0.834683E-01  0.106049E+00
   Pulay + GGA                   :  0.227095E-02  0.173207E+00 -0.141456E+00
   Van der Waals                 : -0.857182E-03  0.271814E-02 -0.684726E-02
   ----------------------------------------------------------------
   Total forces(   9)            : -0.275929E+00  0.377004E+00  0.233387E+00
  atom #   10
   Hellmann-Feynman              : -0.197160E+01  0.126480E+01 -0.616560E+01
   Ionic forces                  :  0.000000E+00  0.000000E+00  0.000000E+00
   Multipole                     : -0.129132E+00 -0.250247E+00 -0.169700E+00
   Pulay + GGA                   :  0.861418E+00 -0.192384E+01  0.273454E+01
   Van der Waals                 : -0.999235E-03  0.809709E-03  0.280526E-02
   ----------------------------------------------------------------
   Total forces(  10)            : -0.124031E+01 -0.908476E+00 -0.359796E+01
  atom #   11
   Hellmann-Feynman              : -0.684441E+01 -0.111582E+02 -0.663917E+01
   Ionic forces                  :  0.000000E+00  0.000000E+00  0.000000E+00
   Multipole                     : -0.459701E+00 -0.823843E+00  0.104243E-01
   Pulay + GGA                   :  0.737746E+01  0.115789E+02  0.546653E+01
   Van der Waals                 : -0.690025E-03  0.245570E-02 -0.195910E-02
   ----------------------------------------------------------------
   Total forces(  11)            :  0.726558E-01 -0.400735E+00 -0.116417E+01
  atom #   12
   Hellmann-Feynman              :  0.715810E+01 -0.867357E+01  0.103247E+02
   Ionic forces                  :  0.000000E+00  0.000000E+00  0.000000E+00
   Multipole                     :  0.238131E+00 -0.880035E+00  0.160359E+01
   Pulay + GGA                   : -0.676936E+01  0.102084E+02 -0.842935E+01
   Van der Waals                 : -0.198346E-03 -0.972343E-02  0.336299E-02
   ----------------------------------------------------------------
   Total forces(  12)            :  0.626676E+00  0.645067E+00  0.350232E+01
  atom #   13
   Hellmann-Feynman              :  0.372769E+00  0.805370E+00  0.132262E+01
   Ionic forces                  :  0.000000E+00  0.000000E+00  0.000000E+00
   Multipole                     : -0.204625E-01  0.339365E-01  0.456229E-01
   Pulay + GGA                   :  0.202056E+00 -0.416076E+00 -0.130082E+00
   Van der Waals                 :  0.178621E-02  0.626272E-02  0.739726E-03
   ----------------------------------------------------------------
   Total forces(  13)            :  0.556149E+00  0.429493E+00  0.123891E+01

  Timings for VdW correction (Tkatchenko-Scheffler 2009 or later):
  | CPU time:        0.011 s, Wall clock time:        0.010 s.
  Removing unitary transformations (pure translations, rotations) from forces on atoms.
  Atomic forces before filtering:
  | Net force on center of mass :  -0.308981E-02  0.387319E-02 -0.262231E-02 eV/A
  | Net torque on center of mass:  -0.754144E-02 -0.635474E-02  0.132843E-02 eV
  Atomic forces after filtering:
  | Net force on center of mass :   0.356812E-15  0.000000E+00  0.178406E-15 eV/A
  | Net torque on center of mass:  -0.113290E-14  0.613655E-15 -0.141613E-15 eV

  Energy and forces in a compact form:
  | Total energy uncorrected      :         -0.880223523535430E+04 eV
  | Total energy corrected        :         -0.880223523535430E+04 eV  <-- do not rely on this value for anything but (periodic) metals
  | Electronic free energy        :         -0.880223523535430E+04 eV
  Total atomic forces (unitary forces cleaned) [eV/Ang]:
  |   1         -0.432331368762166E+00          0.946226570973489E-01         -0.107922080140526E+01
  |   2          0.426005470982804E+00         -0.219469554857316E-01          0.260966556151780E+00
  |   3          0.220701955486974E-01         -0.120225002733814E+00          0.898549917503821E+00
  |   4          0.239394791357708E+00         -0.114750726258430E+00         -0.211781072552261E+00
  |   5         -0.123194176411757E+00          0.543166323518981E-01         -0.251795691667033E+00
  |   6          0.360823457066025E+00         -0.215017247155704E+00         -0.127033911371958E-01
  |   7         -0.388148737670365E-02          0.159175915565011E+00          0.125191874815142E+00
  |   8         -0.230232185523428E+00          0.238595784518971E-01          0.578570247701855E-01
  |   9         -0.275283857450927E+00          0.376513450839621E+00          0.233918582414030E+00
  |  10         -0.124008329586494E+01         -0.908853064980004E+00         -0.359799209027027E+01
  |  11          0.726889332560064E-01         -0.400975050522806E+00         -0.116424484847038E+01
  |  12          0.627206542396663E+00          0.644433408614521E+00          0.350220511198719E+01
  |  13          0.556816980782016E+00          0.428846404216192E+00          0.123904882786026E+01

  ------------------------------------ 
  Start decomposition of the XC Energy 
  ------------------------------------ 
  X and C from original XC functional choice 
  Hartree-Fock Energy :          0.000000000 Ha              0.000000000 eV
  X Energy            :        -41.038574274 Ha          -1116.716423893 eV
  C Energy            :         -1.601455216 Ha            -43.577813651 eV
  Total XC Energy     :        -42.640029490 Ha          -1160.294237544 eV
  ------------------------------------ 
  LDA X and C from self-consistent density 
  X Energy LDA        :        -37.258203647 Ha          -1013.847305206 eV
  C Energy LDA        :         -3.138904677 Ha            -85.413942070 eV
  ------------------------------------ 
  End decomposition of the XC Energy 
  ------------------------------------ 

------------------------------------------------------------

------------------------------------------------------------------------------
  Final output of selected total energy values:

  The following output summarizes some interesting total energy values
  at the end of a run (AFTER all relaxation, molecular dynamics, etc.).

  | Total energy of the DFT / Hartree-Fock s.c.f. calculation      :          -8802.235235354 eV
  | Final zero-broadening corrected energy (caution - metals only) :          -8802.235235354 eV
  | For reference only, the value of 1 Hartree used in FHI-aims is :             27.211384500 eV

  Before relying on these values, please be sure to understand exactly which
  total energy value is referred to by a given number. Different objects may
  all carry the same name 'total energy'. Definitions:

  Total energy of the DFT / Hartree-Fock s.c.f. calculation:
  | Note that this energy does not include ANY quantities calculated after the
  | s.c.f. cycle, in particular not ANY RPA, MP2, etc. many-body perturbation terms.

  Final zero-broadening corrected energy:
  | For metallic systems only, a broadening of the occupation numbers at the Fermi
  | level can be extrapolated back to zero broadening by an electron-gas inspired
  | formula. For all systems that are not real metals, this value can be
  | meaningless and should be avoided.

------------------------------------------------------------------------------
  Methods described in the following list of references were used in this FHI-aims run.
  If you publish the results, please make sure to cite these reference if they apply.
  FHI-aims is an academic code, and for our developers (often, Ph.D. students
  and postdocs), scientific credit in the community is essential.
  Thank you for helping us!

  For any use of FHI-aims, please cite:

    Volker Blum, Ralf Gehrke, Felix Hanke, Paula Havu, Ville Havu,
    Xinguo Ren, Karsten Reuter, and Matthias Scheffler
    'Ab initio molecular simulations with numeric atom-centered orbitals'
    Computer Physics Communications 180, 2175-2196 (2009)
    http://dx.doi.org/10.1016/j.cpc.2009.06.022


  The scalable eigensolver library ELPA was used in your run.
  ELPA is essential especially for large systems on hundreds or thousands of CPUs.
  For ELPA, please cite:

    Andreas Marek, Volker Blum, Rainer Johanni, Ville Havu, Bruno Lang,
    Thomas Auckenthaler, Alexander Heinecke, Hans-Joachim Bungartz, and Hermann Lederer,
    'The ELPA Library - Scalable Parallel Eigenvalue Solutions
    for Electronic Structure Theory and Computational Science'
    The Journal of Physics: Condensed Matter 26, 213201 (2014).
    http://dx.doi.org/10.1088/0953-8984/26/21/213201


  The ELSI infrastructure was used in your run to solve the Kohn-Sham electronic structure.
  Please check out http://elsi-interchange.org to learn more.
  If scalability is important for your project, please acknowledge ELSI by citing:

    V. W-z. Yu, F. Corsetti, A. Garcia, W. P. Huhn, M. Jacquelin, W. Jia,
    B. Lange, L. Lin, J. Lu, W. Mi, A. Seifitokaldani, A. Vazquez-Mayagoitia,
    C. Yang, H. Yang, and V. Blum
    'ELSI: A unified software interface for Kohn-Sham electronic structure solvers'
    Computer Physics Communications 222, 267-285 (2018).
    http://dx.doi.org/10.1016/j.cpc.2017.09.007


  For the real-space grid partitioning and parallelization used in this calculation, please cite:

    Ville Havu, Volker Blum, Paula Havu, and Matthias Scheffler,
    'Efficient O(N) integration for all-electron electronic structure calculation'
    'using numerically tabulated basis functions'
    Journal of Computational Physics 228, 8367-8379 (2009).
    http://dx.doi.org/10.1016/j.jcp.2009.08.008

  Of course, there are many other important community references, e.g., those cited in the
  above references. Our list is limited to references that describe implementations in the
  FHI-aims code. The reason is purely practical (length of this list) - please credit others as well.

------------------------------------------------------------
          Leaving FHI-aims.
          Date     :  20200601, Time     :  010449.142

          Computational steps:
          | Number of self-consistency cycles          :           16
          | Number of SCF (re)initializations          :            1

          Detailed time accounting                     :  max(cpu_time)    wall_clock(cpu1)
          | Total time                                 :        3.080 s           3.748 s
          | Preparation time                           :        0.174 s           0.193 s
          | Boundary condition initalization           :        0.000 s           0.001 s
          | Grid partitioning                          :        0.048 s           0.048 s
          | Preloading free-atom quantities on grid    :        0.003 s           0.003 s
          | Free-atom superposition energy             :        0.005 s           0.005 s
          | Total time for integrations                :        0.486 s           0.494 s
          | Total time for solution of K.-S. equations :        0.084 s           0.085 s
          | Total time for density & force components  :        0.444 s           0.385 s
          | Total time for mixing                      :        0.017 s           0.047 s
          | Total time for Hartree multipole update    :        0.021 s           0.023 s
          | Total time for Hartree multipole sum       :        0.425 s           0.425 s
          | Total time for total energy evaluation     :        0.003 s           0.004 s
          | Total time for vdW correction              :        0.011 s           0.010 s

          Partial memory accounting:
          | Residual value for overall tracked memory usage across tasks :           0.000 MB (should be 0.000 MB)
          | Peak values for overall tracked memory usage (after allocating hessian_basis_wave):
          |   Minimum:        2.077 MB (on task 20)
          |   Maximum:        2.124 MB (on task  1)
          |   Average:        2.102 MB
          | Largest tracked array allocation (hessian_basis_wave):
          |   Minimum:        1.067 MB (on task 10)
          |   Maximum:        1.085 MB (on task  1)
          |   Average:        1.077 MB
          Note:  These values currently only include a subset of arrays which are explicitly tracked.
          The "true" memory usage will be greater.

          Have a nice day.
------------------------------------------------------------
