  MPI-parallelism will be employed.
------------------------------------------------------------
          Invoking FHI-aims ...
          Version 171221_1
          Compiled on 2019/09/09 at 14:39:39 on host puhti-login2.bullx.

          When using FHI-aims, please cite the following reference:

          Volker Blum, Ralf Gehrke, Felix Hanke, Paula Havu,
          Ville Havu, Xinguo Ren, Karsten Reuter, and Matthias Scheffler,
          'Ab Initio Molecular Simulations with Numeric Atom-Centered Orbitals',
          Computer Physics Communications 180, 2175-2196 (2009)

          For any questions about FHI-aims, please visit the aimsclub website
          with its forums and wiki. Contributions to both the forums and the
          wiki are warmly encouraged - they are for you, and everyone is welcome there.

------------------------------------------------------------



  Date     :  20200805, Time     :  182004.413
  Time zero on CPU 1             :   0.118160000000000E-01  s.
  Internal wall clock time zero  :           365883604.413  s.

  FHI-aims created a unique identifier for this run for later identification
  aims_uuid : 12DFFA37-F6DA-4AA6-A0AE-7823CFDC053E

  Using        1 parallel tasks.
  Task        0 on host r15c04.bullx reporting.

  Performing system and environment tests:
  | Environment variable OMP_NUM_THREADS correctly set to 1.
  | Stacksize not measured: no C compiler
  | Checking for scalapack...
  | Testing pdtran()...
  | All pdtran() tests passed.

  Obtaining array dimensions for all initial allocations:
  
  -----------------------------------------------------------------------
  Parsing control.in (first pass over file, find array dimensions only).
  The contents of control.in will be repeated verbatim below
  unless switched off by setting 'verbatim_writeout .false.' .
  in the first line of control.in .
  -----------------------------------------------------------------------
  
  #########################################################################################
  #
  #  Volker Blum, FHI 2009 : Test run input file control.in for simple H2O
  #
  #########################################################################################
  #
  #  Physical model
  #
    xc                 pbe
    vdw_correction_hirshfeld
    spin               none
    relativistic       none
    charge             0.
  #
  #  SCF convergence
  #
    occupation_type    gaussian 0.01
    mixer              pulay
      n_max_pulay        10
      charge_mix_param   0.2
    sc_accuracy_rho    1E-5
    sc_accuracy_eev    1E-3
    sc_accuracy_etot   1E-6
    sc_accuracy_forces 1E-4
    sc_iter_limit      100
  #
  #  Relaxation
  #
  #  relax_geometry   bfgs 1.e-3
  #
  ################################################################################
  #
  #  FHI-aims code project
  #  VB, Fritz-Haber Institut, 2009
  #
  #  Suggested "light" defaults for H atom (to be pasted into control.in file)
  #  Be sure to double-check any results obtained with these settings for post-processing,
  #  e.g., with the "tight" defaults and larger basis sets.
  #
  ################################################################################
    species        H
  #     global species definitions
      nucleus             1
      mass                1.00794
  #
      l_hartree           4
  #
      cut_pot             3.5  1.5  1.0
      basis_dep_cutoff    1e-4
  #
      radial_base         24 5.0
      radial_multiplier   1
      angular_grids       specified
        division   0.2421   50
        division   0.3822  110
        division   0.4799  194
        division   0.5341  302
  #      division   0.5626  434
  #      division   0.5922  590
  #      division   0.6542  770
  #      division   0.6868 1202
  #      outer_grid  770
        outer_grid  302
  ################################################################################
  #
  #  Definition of "minimal" basis
  #
  ################################################################################
  #     valence basis states
      valence      1  s   1.
  #     ion occupancy
      ion_occ      1  s   0.5
  ################################################################################
  #
  #  Suggested additional basis functions. For production calculations,
  #  uncomment them one after another (the most important basis functions are
  #  listed first).
  #
  #  Basis constructed for dimers: 0.5 A, 0.7 A, 1.0 A, 1.5 A, 2.5 A
  #
  ################################################################################
  #  "First tier" - improvements: -1014.90 meV to -62.69 meV
       hydro 2 s 2.1
       hydro 2 p 3.5
  #  "Second tier" - improvements: -12.89 meV to -1.83 meV
  #     hydro 1 s 0.85
  #     hydro 2 p 3.7
  #     hydro 2 s 1.2
  #     hydro 3 d 7
  #  "Third tier" - improvements: -0.25 meV to -0.12 meV
  #     hydro 4 f 11.2
  #     hydro 3 p 4.8
  #     hydro 4 d 9
  #     hydro 3 s 3.2
  ################################################################################
  #
  #  FHI-aims code project
  #  VB, Fritz-Haber Institut, 2009
  #
  #  Suggested "light" defaults for C atom (to be pasted into control.in file)
  #  Be sure to double-check any results obtained with these settings for post-processing,
  #  e.g., with the "tight" defaults and larger basis sets.
  #
  ################################################################################
    species        C
  #     global species definitions
      nucleus             6
      mass                12.0107
  #
      l_hartree           4
  #
      cut_pot             3.5  1.5  1.0
      basis_dep_cutoff    1e-4
  #
      radial_base         34 5.0
      radial_multiplier   1
      angular_grids specified
        division   0.3326   50
        division   0.5710  110
        division   0.7727  194
        division   0.8772  302
  #      division   0.9334  434
  #      division   0.9625  590
  #      division   0.9924  770
  #      division   1.0230  974
  #      division   1.4589 1202
  #     outer_grid  974
       outer_grid 302
  ################################################################################
  #
  #  Definition of "minimal" basis
  #
  ################################################################################
  #     valence basis states
      valence      2  s   2.
      valence      2  p   2.
  #     ion occupancy
      ion_occ      2  s   1.
      ion_occ      2  p   1.
  ################################################################################
  #
  #  Suggested additional basis functions. For production calculations,
  #  uncomment them one after another (the most important basis functions are
  #  listed first).
  #
  #  Constructed for dimers: 1.0 A, 1.25 A, 1.5 A, 2.0 A, 3.0 A
  #
  ################################################################################
  #  "First tier" - improvements: -1214.57 meV to -155.61 meV
       hydro 2 p 1.7
       hydro 3 d 6
       hydro 2 s 4.9
  #  "Second tier" - improvements: -67.75 meV to -5.23 meV
  #     hydro 4 f 9.8
  #     hydro 3 p 5.2
  #     hydro 3 s 4.3
  #     hydro 5 g 14.4
  #     hydro 3 d 6.2
  #  "Third tier" - improvements: -2.43 meV to -0.60 meV
  #     hydro 2 p 5.6
  #     hydro 2 s 1.4
  #     hydro 3 d 4.9
  #     hydro 4 f 11.2
  #  "Fourth tier" - improvements: -0.39 meV to -0.18 meV
  #     hydro 2 p 2.1
  #     hydro 5 g 16.4
  #     hydro 4 d 13.2
  #     hydro 3 s 13.6
  #     hydro 4 f 17.6
  #  Further basis functions - improvements: -0.08 meV and below
  #     hydro 3 s 2
  #     hydro 3 p 6
  #     hydro 4 d 20
  ################################################################################
  #
  #  FHI-aims code project
  #  VB, Fritz-Haber Institut, 2009
  #
  #  Suggested "light" defaults for N atom (to be pasted into control.in file)
  #  Be sure to double-check any results obtained with these settings for post-processing,
  #  e.g., with the "tight" defaults and larger basis sets.
  #
  ################################################################################
    species        N
  #     global species definitions
      nucleus             7
      mass                14.0067
  #
      l_hartree           4
  #
      cut_pot             3.5  1.5  1.0
      basis_dep_cutoff    1e-4
  #
      radial_base         35 5.0
      radial_multiplier   1
      angular_grids       specified
        division   0.2599   50
        division   0.4601  110
        division   0.5885  194
        division   0.6503  302
  #      division   0.6939  434
  #      division   0.7396  590
  #      division   0.7632  770
  #      division   0.8122  974
  #      division   1.1604 1202
  #      outer_grid  974
        outer_grid  302
  ################################################################################
  #
  #  Definition of "minimal" basis
  #
  ################################################################################
  #     valence basis states
      valence      2  s   2.
      valence      2  p   3.
  #     ion occupancy
      ion_occ      2  s   1.
      ion_occ      2  p   2.
  ################################################################################
  #
  #  Suggested additional basis functions. For production calculations,
  #  uncomment them one after another (the most important basis functions are
  #  listed first).
  #
  #  Constructed for dimers: 1.0 A, 1.1 A, 1.5 A, 2.0 A, 3.0 A
  #
  ################################################################################
  #  "First tier" - improvements: -1193.42 meV to -220.60 meV
       hydro 2 p 1.8
       hydro 3 d 6.8
       hydro 3 s 5.8
  #  "Second tier" - improvements: -80.21 meV to -6.86 meV
  #     hydro 4 f 10.8
  #     hydro 3 p 5.8
  #     hydro 1 s 0.8
  #     hydro 5 g 16
  #     hydro 3 d 4.9
  #  "Third tier" - improvements: -4.29 meV to -0.53 meV
  #     hydro 3 s 16
  #     ionic 2 p auto
  #     hydro 3 d 6.6
  #     hydro 4 f 11.6
  #  "Fourth tier" - improvements: -0.75 meV to -0.25 meV
  #     hydro 2 p 4.5
  #     hydro 2 s 2.4
  #     hydro 5 g 14.4
  #     hydro 4 d 14.4
  #     hydro 4 f 16.8
  # Further basis functions - -0.21 meV and below
  #     hydro 3 p 14.8
  #     hydro 3 s 4.4
  #     hydro 3 d 19.6
  #     hydro 5 g 12.8
  ################################################################################
  #
  #  FHI-aims code project
  #  VB, Fritz-Haber Institut, 2009
  #
  #  Suggested "light" defaults for O atom (to be pasted into control.in file)
  #  Be sure to double-check any results obtained with these settings for post-processing,
  #  e.g., with the "tight" defaults and larger basis sets.
  #
  ################################################################################
    species        O
  #     global species definitions
      nucleus             8
      mass                15.9994
  #
      l_hartree           4
  #
      cut_pot             3.5  1.5  1.0
      basis_dep_cutoff    1e-4
  #
      radial_base         36 5.0
      radial_multiplier   1
       angular_grids specified
        division   0.2659   50
        division   0.4451  110
        division   0.6052  194
        division   0.7543  302
  #      division   0.8014  434
  #      division   0.8507  590
  #      division   0.8762  770
  #      division   0.9023  974
  #      division   1.2339 1202
  #      outer_grid 974
        outer_grid 302
  ################################################################################
  #
  #  Definition of "minimal" basis
  #
  ################################################################################
  #     valence basis states
      valence      2  s   2.
      valence      2  p   4.
  #     ion occupancy
      ion_occ      2  s   1.
      ion_occ      2  p   3.
  ################################################################################
  #
  #  Suggested additional basis functions. For production calculations,
  #  uncomment them one after another (the most important basis functions are
  #  listed first).
  #
  #  Constructed for dimers: 1.0 A, 1.208 A, 1.5 A, 2.0 A, 3.0 A
  #
  ################################################################################
  #  "First tier" - improvements: -699.05 meV to -159.38 meV
       hydro 2 p 1.8
       hydro 3 d 7.6
       hydro 3 s 6.4
  #  "Second tier" - improvements: -49.91 meV to -5.39 meV
  #     hydro 4 f 11.6
  #     hydro 3 p 6.2
  #     hydro 3 d 5.6
  #     hydro 5 g 17.6
  #     hydro 1 s 0.75
  #  "Third tier" - improvements: -2.83 meV to -0.50 meV
  #     ionic 2 p auto
  #     hydro 4 f 10.8
  #     hydro 4 d 4.7
  #     hydro 2 s 6.8
  #  "Fourth tier" - improvements: -0.40 meV to -0.12 meV
  #     hydro 3 p 5
  #     hydro 3 s 3.3
  #     hydro 5 g 15.6
  #     hydro 4 f 17.6
  #     hydro 4 d 14
  # Further basis functions - -0.08 meV and below
  #     hydro 3 s 2.1
  #     hydro 4 d 11.6
  #     hydro 3 p 16
  #     hydro 2 s 17.2
  
  -----------------------------------------------------------------------
  Completed first pass over input file control.in .
  -----------------------------------------------------------------------
  
  
  -----------------------------------------------------------------------
  Parsing geometry.in (first pass over file, find array dimensions only).
  The contents of geometry.in will be repeated verbatim below
  unless switched off by setting 'verbatim_writeout .false.' .
  in the first line of geometry.in .
  -----------------------------------------------------------------------
  
  atom  0.00000 0.00000 0.00000 C
  atom  1.09300 0.00000 0.00000 H
  atom  -0.47961 0.00000 -1.41207 N
  atom  0.19920 0.49929 -1.98806 H
  atom  -0.56735 -0.96382 -1.72747 H
  atom  -0.49584 1.26211 0.72868 C
  atom  -1.58789 1.28919 0.74431 H
  atom  -0.13407 1.27425 1.75947 H
  atom  -0.13407 2.16087 0.22380 H
  atom  -0.39425 -1.28861 0.74398 C
  atom  -0.10189 -1.56493 1.88303 O
  atom  -1.10210 -2.13717 0.06896 O
  atom  -0.38618 -2.53324 -0.45599 H
  
  -----------------------------------------------------------------------
  Completed first pass over input file geometry.in .
  -----------------------------------------------------------------------
  

  Basic array size parameters:
  | Number of species                 :        4
  | Number of atoms                   :       13
  | Max. basis fn. angular momentum   :        2
  | Max. atomic/ionic basis occupied n:        2
  | Max. number of basis fn. types    :        2
  | Max. radial fns per species/type  :        3
  | Max. logarithmic grid size        :     1301
  | Max. radial integration grid size :       36
  | Max. angular integration grid size:      302
  | Max. angular grid division number :        8
  | Radial grid for Hartree potential :     1301
  | Number of spin channels           :        1

------------------------------------------------------------
          Reading file control.in.
------------------------------------------------------------
  XC: Using PBE gradient-corrected functionals.
  Spin treatment: No spin polarisation.
  Non-relativistic treatment of kinetic energy.
  Charge =   0.000000E+00: Neutral system requested explicitly.
  Occupation type: Gaussian broadening, width =   0.100000E-01 eV.
  Using pulay charge density mixing.
  Pulay mixing - number of memorized iterations:   10
  Charge density mixing - mixing parameter:     0.2000
  Convergence accuracy of self-consistent charge density:  0.1000E-04
  Convergence accuracy of sum of eigenvalues:  0.1000E-02
  Convergence accuracy of total energy:  0.1000E-05
  Convergence accuracy of forces:  0.1000E-03
  Maximum number of s.-c. iterations  :   100
 
  Reading configuration options for species H                   .
  | Found nuclear charge :   1.0000
  | Found atomic mass :    1.00794000000000      amu
  | Found l_max for Hartree potential  :   4
  | Found cutoff potl. onset [A], width [A], scale factor :    3.50000    1.50000    1.00000
  | Threshold for basis-dependent cutoff potential is   0.100000E-03
  | Found data for basic radial integration grid :    24 points, outermost radius =    5.000 A
  | Found multiplier for basic radial grid :   1
  | Found angular grid specification: user-specified.
  | Specified grid contains     5 separate shells.
  | Check grid settings after all constraints further below.
  | Found free-atom valence shell :  1 s   1.000
  | No ionic wave fns used. Skipping ion_occ.
  | Found hydrogenic basis function :  2 s   2.100
  | Found hydrogenic basis function :  2 p   3.500
  Species H                   : Missing cutoff potential type.
  Defaulting to exp(1/x)/(1-x)^2 type cutoff potential.
  Species H : No 'logarithmic' tag. Using default grid for free atom:
  | Default logarithmic grid data [bohr] : 0.1000E-03 0.1000E+03 0.1012E+01
  Species H : On-site basis accuracy parameter (for Gram-Schmidt orthonormalisation) not specified.
  Using default value basis_acc =  0.1000000E-03.
  Species H                   : Using default innermost maximum threshold i_radial=  2 for radial functions.
  Species H                   : Default cutoff onset for free atom density etc. : 0.35000000E+01 AA.
  Species H                   : Basic radial grid will be enhanced according to radial_multiplier =   1, to contain    24 grid points.
 
  Reading configuration options for species C                   .
  | Found nuclear charge :   6.0000
  | Found atomic mass :    12.0107000000000      amu
  | Found l_max for Hartree potential  :   4
  | Found cutoff potl. onset [A], width [A], scale factor :    3.50000    1.50000    1.00000
  | Threshold for basis-dependent cutoff potential is   0.100000E-03
  | Found data for basic radial integration grid :    34 points, outermost radius =    5.000 A
  | Found multiplier for basic radial grid :   1
  | Found angular grid specification: user-specified.
  | Specified grid contains     5 separate shells.
  | Check grid settings after all constraints further below.
  | Found free-atom valence shell :  2 s   2.000
  | Found free-atom valence shell :  2 p   2.000
  | No ionic wave fns used. Skipping ion_occ.
  | No ionic wave fns used. Skipping ion_occ.
  | Found hydrogenic basis function :  2 p   1.700
  | Found hydrogenic basis function :  3 d   6.000
  | Found hydrogenic basis function :  2 s   4.900
  Species C                   : Missing cutoff potential type.
  Defaulting to exp(1/x)/(1-x)^2 type cutoff potential.
  Species C : No 'logarithmic' tag. Using default grid for free atom:
  | Default logarithmic grid data [bohr] : 0.1000E-03 0.1000E+03 0.1012E+01
  Species C : On-site basis accuracy parameter (for Gram-Schmidt orthonormalisation) not specified.
  Using default value basis_acc =  0.1000000E-03.
  Species C                   : Using default innermost maximum threshold i_radial=  2 for radial functions.
  Species C                   : Default cutoff onset for free atom density etc. : 0.35000000E+01 AA.
  Species C                   : Basic radial grid will be enhanced according to radial_multiplier =   1, to contain    34 grid points.
 
  Reading configuration options for species N                   .
  | Found nuclear charge :   7.0000
  | Found atomic mass :    14.0067000000000      amu
  | Found l_max for Hartree potential  :   4
  | Found cutoff potl. onset [A], width [A], scale factor :    3.50000    1.50000    1.00000
  | Threshold for basis-dependent cutoff potential is   0.100000E-03
  | Found data for basic radial integration grid :    35 points, outermost radius =    5.000 A
  | Found multiplier for basic radial grid :   1
  | Found angular grid specification: user-specified.
  | Specified grid contains     5 separate shells.
  | Check grid settings after all constraints further below.
  | Found free-atom valence shell :  2 s   2.000
  | Found free-atom valence shell :  2 p   3.000
  | No ionic wave fns used. Skipping ion_occ.
  | No ionic wave fns used. Skipping ion_occ.
  | Found hydrogenic basis function :  2 p   1.800
  | Found hydrogenic basis function :  3 d   6.800
  | Found hydrogenic basis function :  3 s   5.800
  Species N                   : Missing cutoff potential type.
  Defaulting to exp(1/x)/(1-x)^2 type cutoff potential.
  Species N : No 'logarithmic' tag. Using default grid for free atom:
  | Default logarithmic grid data [bohr] : 0.1000E-03 0.1000E+03 0.1012E+01
  Species N : On-site basis accuracy parameter (for Gram-Schmidt orthonormalisation) not specified.
  Using default value basis_acc =  0.1000000E-03.
  Species N                   : Using default innermost maximum threshold i_radial=  2 for radial functions.
  Species N                   : Default cutoff onset for free atom density etc. : 0.35000000E+01 AA.
  Species N                   : Basic radial grid will be enhanced according to radial_multiplier =   1, to contain    35 grid points.
 
  Reading configuration options for species O                   .
  | Found nuclear charge :   8.0000
  | Found atomic mass :    15.9994000000000      amu
  | Found l_max for Hartree potential  :   4
  | Found cutoff potl. onset [A], width [A], scale factor :    3.50000    1.50000    1.00000
  | Threshold for basis-dependent cutoff potential is   0.100000E-03
  | Found data for basic radial integration grid :    36 points, outermost radius =    5.000 A
  | Found multiplier for basic radial grid :   1
  | Found angular grid specification: user-specified.
  | Specified grid contains     5 separate shells.
  | Check grid settings after all constraints further below.
  | Found free-atom valence shell :  2 s   2.000
  | Found free-atom valence shell :  2 p   4.000
  | No ionic wave fns used. Skipping ion_occ.
  | No ionic wave fns used. Skipping ion_occ.
  | Found hydrogenic basis function :  2 p   1.800
  | Found hydrogenic basis function :  3 d   7.600
  | Found hydrogenic basis function :  3 s   6.400
  Species O                   : Missing cutoff potential type.
  Defaulting to exp(1/x)/(1-x)^2 type cutoff potential.
  Species O : No 'logarithmic' tag. Using default grid for free atom:
  | Default logarithmic grid data [bohr] : 0.1000E-03 0.1000E+03 0.1012E+01
  Species O : On-site basis accuracy parameter (for Gram-Schmidt orthonormalisation) not specified.
  Using default value basis_acc =  0.1000000E-03.
  Species O                   : Using default innermost maximum threshold i_radial=  2 for radial functions.
  Species O                   : Default cutoff onset for free atom density etc. : 0.35000000E+01 AA.
  Species O                   : Basic radial grid will be enhanced according to radial_multiplier =   1, to contain    36 grid points.
 
  Finished reading input file 'control.in'. Consistency checks are next.
 
  MPI_IN_PLACE appears to work with this MPI implementation.
  | Keeping use_mpi_in_place .true. (see manual).
  Target number of points in a grid batch is not set. Defaulting to  100
  Method for grid partitioning is not set. Defaulting to parallel hash+maxmin partitioning.
  Batch size limit is not set. Defaulting to    200
  By default, will store active basis functions for each batch.
  If in need of memory, prune_basis_once .false. can be used to disable this option.
  communication_type for Hartree potential was not specified.
  Defaulting to calc_hartree .
  Pulay mixer: Number of initial linear mixing iterations not set.
  Defaulting to    0 iterations.
  Work space size for distributed Hartree potential not set.
  Defaulting to   0.200000E+03 MB.
  Algorithm-dependent basis array size parameters:
  | n_max_pulay                         :       10
  Presetting      1001 iterations before the initial mixing cycle
  is restarted anyway using the sc_init_iter criterion / keyword.
  Presetting a factor      1.000 between actual scf density residual
  and density convergence criterion sc_accuracy_rho below which sc_init_iter
  takes no effect.
  Geometry relaxation not requested: no relaxation will be performed.
  Handling of forces: Unphysical translation and rotation will be removed from forces.
  No accuracy limit for integral partition fn. given. Defaulting to  0.1000E-14.
  No threshold value for u(r) in integrations given. Defaulting to  0.1000E-05.
  No accuracy for occupation numbers given. Defaulting to  0.1000E-12.
  No threshold value for occupation numbers given. Defaulting to  0.0000E+00.
  No accuracy for fermi level given. Defaulting to  0.1000E-19.
  Maximum # of iterations to find E_F not set. Defaulting to  200.
  Preferred method for the eigenvalue solver ('KS_method') not specified in 'control.in'.
  Defaulting to serial version, 'lapack_fast'.
  Will not use alltoall communication since running on < 1024 CPUs.
  Threshold for basis singularities not set.
  Default threshold for basis singularities:  0.1000E-04
  partition_type (choice of integration weights) for integrals was not specified.
  | Using a version of the partition function of Stratmann and coworkers ('stratmann_smoother').
  | At each grid point, the set of atoms used to build the partition table is smoothly restricted to
  | only those atoms whose free-atom density would be non-zero at that grid point.
  Partitioning for Hartree potential was not defined. Using partition_type for integrals.
  | Adjusted default value of keyword multip_moments_threshold to:       0.10000000E-11
  | This value may affect high angular momentum components of the Hartree potential in periodic systems.
  No q(lm)/r^(l+1) cutoff set for long-range Hartree potential.
  | Using default value of  0.100000E-09 .
  | Verify using the multipole_threshold keyword.
  Defaulting to new monopole extrapolation.
  Density update method: automatic selection selected.
------------------------------------------------------------


------------------------------------------------------------
          Reading geometry description geometry.in.
------------------------------------------------------------
  Input structure read successfully.
  The structure contains       13 atoms,  and a total of         48.000 electrons.

  Input geometry:
  | No unit cell requested.
  | Atomic structure:
  |       Atom                x [A]            y [A]            z [A]
  |    1: Species C             0.00000000        0.00000000        0.00000000
  |    2: Species H             1.09300000        0.00000000        0.00000000
  |    3: Species N            -0.47961000        0.00000000       -1.41207000
  |    4: Species H             0.19920000        0.49929000       -1.98806000
  |    5: Species H            -0.56735000       -0.96382000       -1.72747000
  |    6: Species C            -0.49584000        1.26211000        0.72868000
  |    7: Species H            -1.58789000        1.28919000        0.74431000
  |    8: Species H            -0.13407000        1.27425000        1.75947000
  |    9: Species H            -0.13407000        2.16087000        0.22380000
  |   10: Species C            -0.39425000       -1.28861000        0.74398000
  |   11: Species O            -0.10189000       -1.56493000        1.88303000
  |   12: Species O            -1.10210000       -2.13717000        0.06896000
  |   13: Species H            -0.38618000       -2.53324000       -0.45599000
  |

  | The smallest distance between any two atoms is         0.97210359 AA.
  |
  | The first atom of this pair is atom number                     12 .
  | The second atom of this pair is atom number                    13 .

  Number of empty states per atom not set in control.in - providing a guess from actual geometry.
  | Total number of empty states used during s.c.f. cycle:       29
  If you use a very high smearing, use empty_states (per atom!) in control.in to increase this value.

  Structure-dependent array size parameters: 
  | Maximum number of distinct radial functions  :       21
  | Maximum number of basis functions            :      119
  | Number of Kohn-Sham states (occupied + empty):       53
------------------------------------------------------------

------------------------------------------------------------
          Preparing all fixed parts of the calculation.
------------------------------------------------------------
  Determining machine precision:
    2.225073858507201E-308
  Setting up grids for atomic and cluster calculations.

  Creating wave function, potential, and density for free atoms.

  Species: H

  List of occupied orbitals and eigenvalues:
    n    l              occ      energy [Ha]    energy [eV]
    1    0           1.0000        -0.237589        -6.4651


  Species: C

  List of occupied orbitals and eigenvalues:
    n    l              occ      energy [Ha]    energy [eV]
    1    0           2.0000       -10.038835      -273.1706
    2    0           2.0000        -0.502696       -13.6791
    2    1           2.0000        -0.191971        -5.2238


  Species: N

  List of occupied orbitals and eigenvalues:
    n    l              occ      energy [Ha]    energy [eV]
    1    0           2.0000       -14.128000      -384.4424
    2    0           2.0000        -0.681077       -18.5330
    2    1           3.0000        -0.259788        -7.0692


  Species: O

  List of occupied orbitals and eigenvalues:
    n    l              occ      energy [Ha]    energy [eV]
    1    0           2.0000       -18.898188      -514.2459
    2    0           2.0000        -0.878505       -23.9053
    2    1           4.0000        -0.331779        -9.0282

  Creating fixed part of basis set: Ionic, confined, hydrogenic.
 
  H                    hydrogenic:
 
  List of hydrogenic basis orbitals: 
    n    l      effective z      eigenvalue [eV]  inner max. [A]     outer max. [A]     outer radius [A]   
    2    0         2.100000       -14.9728           0.193243           1.317208           4.583499
    2    1         3.500000       -41.6669           0.602369           0.602369           3.723403
 
 
  C                    hydrogenic:
 
  List of hydrogenic basis orbitals: 
    n    l      effective z      eigenvalue [eV]  inner max. [A]     outer max. [A]     outer radius [A]   
    2    1         1.700000        -9.7616           1.230570           1.230570           4.607917
    3    2         6.000000       -54.4224           0.792453           0.792453           3.883070
    2    0         4.900000       -81.6679           0.082559           0.562749           3.078220
 
 
  N                    hydrogenic:
 
  List of hydrogenic basis orbitals: 
    n    l      effective z      eigenvalue [eV]  inner max. [A]     outer max. [A]     outer radius [A]   
    2    1         1.800000       -10.9749           1.177451           1.177451           4.573712
    3    2         6.800000       -69.9026           0.704619           0.704619           3.538137
    3    0         5.800000       -50.8545           0.067388           1.191934           4.250239
 
 
  O                    hydrogenic:
 
  List of hydrogenic basis orbitals: 
    n    l      effective z      eigenvalue [eV]  inner max. [A]     outer max. [A]     outer radius [A]   
    2    1         1.800000       -10.9749           1.164242           1.164242           4.578029
    3    2         7.600000       -87.3180           0.624125           0.624125           3.251020
    3    0         6.400000       -61.9207           0.061167           1.081902           4.001998
 

  Adding cutoff potential to free-atom effective potential.
  Creating atomic-like basis functions for current effective potential.

  Species H                   :

  List of atomic basis orbitals and eigenvalues:
    n    l      energy [Ha]    energy [eV]    outer radius [A]
    1    0        -0.237589        -6.4651       4.527807


  Species C                   :

  List of atomic basis orbitals and eigenvalues:
    n    l      energy [Ha]    energy [eV]    outer radius [A]
    1    0       -10.038835      -273.1706       1.934409
    2    0        -0.502696       -13.6791       4.496620
    2    1        -0.191971        -5.2238       4.551928


  Species N                   :

  List of atomic basis orbitals and eigenvalues:
    n    l      energy [Ha]    energy [eV]    outer radius [A]
    1    0       -14.128000      -384.4424       1.637919
    2    0        -0.681077       -18.5330       4.463241
    2    1        -0.259788        -7.0692       4.518138


  Species O                   :

  List of atomic basis orbitals and eigenvalues:
    n    l      energy [Ha]    energy [eV]    outer radius [A]
    1    0       -18.898188      -514.2459       1.415765
    2    0        -0.878505       -23.9053       4.413171
    2    1        -0.331779        -9.0282       4.522403

  Assembling full basis from fixed parts.
  | Species H :   atomic orbital   1 s accepted.
  | Species H :    hydro orbital   2 s accepted.
  | Species H :    hydro orbital   2 p accepted.
  | Species C :   atomic orbital   1 s accepted.
  | Species C :    hydro orbital   2 s accepted.
  | Species C :   atomic orbital   2 s accepted.
  | Species C :   atomic orbital   2 p accepted.
  | Species C :    hydro orbital   2 p accepted.
  | Species C :    hydro orbital   3 d accepted.
  | Species N :   atomic orbital   1 s accepted.
  | Species N :    hydro orbital   3 s accepted.
  | Species N :   atomic orbital   2 s accepted.
  | Species N :   atomic orbital   2 p accepted.
  | Species N :    hydro orbital   2 p accepted.
  | Species N :    hydro orbital   3 d accepted.
  | Species O :   atomic orbital   1 s accepted.
  | Species O :    hydro orbital   3 s accepted.
  | Species O :   atomic orbital   2 s accepted.
  | Species O :   atomic orbital   2 p accepted.
  | Species O :    hydro orbital   2 p accepted.
  | Species O :    hydro orbital   3 d accepted.
 
  Basis size parameters after reduction:
  | Total number of radial functions:       21
  | Total number of basis functions :      119
 
  Per-task memory consumption for arrays in subroutine allocate_ext:
  |           5.250512MB.
  Testing on-site integration grid accuracy.
  |  Species  Function  <phi|h_atom|phi> (log., in eV)  <phi|h_atom|phi> (rad., in eV)
           1        1                 -6.4663192853                 -6.4651273558
           1        2                 13.7111246313                 13.7170609718
           1        3                 25.2673269279                 25.2674696378
           2        4               -273.1705927641               -273.1705631568
           2        5                -10.7109323383                -10.7107120029
           2        6                 17.4381822266                 17.4352413244
           2        7                 -5.2255326521                 -5.2270484734
           2        8                  8.6835629259                  8.6603288385
           2        9                 27.4952418996                 27.4953360207
           3       10               -384.4424306495               -384.4423701208
           3       11                 12.5842251816                 12.5842222903
           3       12                -15.7264628251                -15.7264433455
           3       13                 -7.0696854293                 -7.0701769954
           3       14                  8.8090390882                  8.7901077751
           3       15                 35.9586762123                 35.9588528632
           4       16               -514.2458688638               -514.2457643834
           4       17                 15.1795651126                 15.1795290741
           4       18                -21.5359799773                -21.5360846186
           4       19                 -9.0283069236                 -9.0284644067
           4       20                  8.3027758564                  8.2834874195
           4       21                 45.8339351984                 45.8338762259

  Preparing densities etc. for the partition functions (integrals / Hartree potential).

  Preparations completed.
  max(cpu_time)          :      0.146 s.
  Wall clock time (cpu1) :      0.147 s.
------------------------------------------------------------

------------------------------------------------------------
          Begin self-consistency loop: Initialization.

          Date     :  20200805, Time     :  182004.574
------------------------------------------------------------

  Initializing index lists of integration centers etc. from given atomic structure:
  | Number of centers in hartree potential         :        13
  | Number of centers in hartree multipole         :        13
  | Number of centers in electron density summation:        13
  | Number of centers in basis integrals           :        13
  | Number of centers in integrals                 :        13
  | Number of centers in hamiltonian               :        13
  Partitioning the integration grid into batches with parallel hashing+maxmin method.
  | Number of batches:      950
  | Maximal batch size:     138
  | Minimal batch size:      66
  | Average batch size:      73.312
  | Standard deviation of batch sizes:      18.229

  Integration load balanced across     1 MPI tasks.
  Work distribution over tasks is as follows:
  Task     0 has      69646 integration points.
  Initializing partition tables, free-atom densities, potentials, etc. across the integration grid (initialize_grid_storage).
  | initialize_grid_storage: Actual outermost partition radius vs. multipole_radius_free
  | (-- VB: in principle, multipole_radius_free should be larger, hence this output)
  | Species        1: Confinement radius =              4.999999999999999 AA, multipole_radius_free =              5.054417573612229 AA.
  | Species        1: outer_partition_radius set to              5.054417573612229 AA .
  | Species        2: Confinement radius =              4.999999999999999 AA, multipole_radius_free =              5.019602836301480 AA.
  | Species        2: outer_partition_radius set to              5.019602836301480 AA .
  | Species        3: Confinement radius =              4.999999999999999 AA, multipole_radius_free =              5.043624274424571 AA.
  | Species        3: outer_partition_radius set to              5.043624274424571 AA .
  | Species        4: Confinement radius =              4.999999999999999 AA, multipole_radius_free =              5.048384829883283 AA.
  | Species        4: outer_partition_radius set to              5.048384829883283 AA .
  | Original list of interatomic distances with          13 x         13 entries is created.
  | Net number of integration points:    69646
  | of which are non-zero points    :    59527
  Renormalizing the initial density to the exact electron count on the 3D integration grid.
  | Initial density: Formal number of electrons (from input files) :      48.0000000000
  | Integrated number of electrons on 3D grid     :      48.0000405769
  | Charge integration error                      :       0.0000405769
  | Normalization factor for density and gradient :       0.9999991546
  Obtaining max. number of non-zero basis functions in each batch (get_n_compute_maxes).
  | Maximal number of non-zero basis functions:      119 in task     0
  Selecting the method for density update.
  Loop over occupied states selected for charge density update.
  Allocating        0.050 MB for KS_eigenvector
  Integrating Hamiltonian matrix: batch-based integration.
  Time summed over all CPUs for integration: real work        0.495 s, elapsed        0.495 s
  Integrating overlap matrix.
  Time summed over all CPUs for integration: real work        0.210 s, elapsed        0.210 s

  Updating Kohn-Sham eigenvalues and eigenvectors using ELSI and the ELPA eigensolver.
  Overlap matrix is nonsingular
  | Lowest eigenvalue of overlap  :  0.48E-02
  | Highest eigenvalue of overlap :  0.61E+01
  Finished singularity check of overlap matrix
  | Time :     0.001 s
  Finished Cholesky decomposition
  | Time :     0.000 s
  Finished transformation to standard eigenproblem
  | Time :     0.000 s
  Starting LAPACK eigensolver
  Finished solving standard eigenproblem
  | Time :     0.002 s
  Finished back-transformation of eigenvectors
  | Time :     0.000 s

  Obtaining occupation numbers and chemical potential using ELSI.
  | Chemical potential (Fermi level):    -9.27652421eV
  Writing Kohn-Sham eigenvalues.

  State    Occupation    Eigenvalue [Ha]    Eigenvalue [eV]
      1       2.00000         -19.008118         -517.23720
      2       2.00000         -18.977246         -516.39714
      3       2.00000         -14.245884         -387.65022
      4       2.00000         -10.166603         -276.64734
      5       2.00000         -10.141375         -275.96084
      6       2.00000         -10.132091         -275.70824
      7       2.00000          -1.183602          -32.20744
      8       2.00000          -1.098537          -29.89272
      9       2.00000          -0.990758          -26.95988
     10       2.00000          -0.861578          -23.44474
     11       2.00000          -0.752592          -20.47908
     12       2.00000          -0.681632          -18.54814
     13       2.00000          -0.636670          -17.32467
     14       2.00000          -0.606112          -16.49316
     15       2.00000          -0.577761          -15.72168
     16       2.00000          -0.572239          -15.57141
     17       2.00000          -0.555442          -15.11434
     18       2.00000          -0.528043          -14.36877
     19       2.00000          -0.518193          -14.10076
     20       2.00000          -0.504624          -13.73153
     21       2.00000          -0.460836          -12.54000
     22       2.00000          -0.426895          -11.61641
     23       2.00000          -0.399160          -10.86169
     24       2.00000          -0.390263          -10.61961
     25       0.00000          -0.162393           -4.41894
     26       0.00000          -0.070393           -1.91549
     27       0.00000          -0.029857           -0.81245
     28       0.00000          -0.025936           -0.70576
     29       0.00000           0.003504            0.09534
     30       0.00000           0.010578            0.28783
     31       0.00000           0.019913            0.54187
     32       0.00000           0.036032            0.98049
     33       0.00000           0.050717            1.38009
     34       0.00000           0.072027            1.95995
     35       0.00000           0.082050            2.23270
     36       0.00000           0.131367            3.57467
     37       0.00000           0.155022            4.21837
     38       0.00000           0.198224            5.39395
     39       0.00000           0.216575            5.89331
     40       0.00000           0.224431            6.10707
     41       0.00000           0.252417            6.86862
     42       0.00000           0.273010            7.42898
     43       0.00000           0.289802            7.88590
     44       0.00000           0.308789            8.40257
     45       0.00000           0.333253            9.06826
     46       0.00000           0.352329            9.58737
     47       0.00000           0.368618           10.03062
     48       0.00000           0.414547           11.28040
     49       0.00000           0.427262           11.62638
     50       0.00000           0.487549           13.26688
     51       0.00000           0.497295           13.53207
     52       0.00000           0.525060           14.28761
     53       0.00000           0.577154           15.70515

  Highest occupied state (VBM) at    -10.61960724 eV
  | Occupation number:      2.00000000

  Lowest unoccupied state (CBM) at    -4.41893852 eV
  | Occupation number:      0.00000000

  Overall HOMO-LUMO gap:      6.20066872 eV.
  Calculating total energy contributions from superposition of free atom densities.

  Total energy components:
  | Sum of eigenvalues            :        -188.83250920 Ha       -5138.39401398 eV
  | XC energy correction          :         -41.78985080 Ha       -1137.15969830 eV
  | XC potential correction       :          53.72167393 Ha        1461.84112539 eV
  | Free-atom electrostatic energy:        -146.85376783 Ha       -3996.09434179 eV
  | Hartree energy correction     :           0.00000000 Ha           0.00000000 eV
  | vdW energy correction         :           0.00000000 Ha           0.00000000 eV
  | Entropy correction            :           0.00000000 Ha           0.00000000 eV
  | ---------------------------
  | Total energy                  :        -323.75445390 Ha       -8809.80692867 eV
  | Total energy, T -> 0          :        -323.75445390 Ha       -8809.80692867 eV  <-- do not rely on this value for anything but (periodic) metals
  | Electronic free energy        :        -323.75445390 Ha       -8809.80692867 eV

  Derived energy quantities:
  | Kinetic energy                :         320.50353637 Ha        8721.34496184 eV
  | Electrostatic energy          :        -602.46813947 Ha      -16393.99219222 eV
  | Energy correction for multipole
  | error in Hartree potential    :           0.00000000 Ha           0.00000000 eV
  | Sum of eigenvalues per atom                           :        -395.26107800 eV
  | Total energy (T->0) per atom                          :        -677.67745605 eV  <-- do not rely on this value for anything but (periodic) metals
  | Electronic free energy per atom                       :        -677.67745605 eV
  Initialize hartree_potential_storage
  Max. number of atoms included in rho_multipole:           13

  End scf initialization - timings             :  max(cpu_time)    wall_clock(cpu1)
  | Time for scf. initialization               :        1.149 s           1.150 s
  | Boundary condition initialization          :        0.000 s           0.000 s
  | Integration                                :        0.705 s           0.705 s
  | Solution of K.-S. eqns.                    :        0.004 s           0.005 s
  | Grid partitioning                          :        0.111 s           0.112 s
  | Preloading free-atom quantities on grid    :        0.002 s           0.002 s
  | Free-atom superposition energy             :        0.084 s           0.085 s
  | Total energy evaluation                    :        0.000 s           0.000 s

  Partial memory accounting:
  | Current value for overall tracked memory usage on task 0  :           0.165 MB
  | Peak value for overall tracked memory usage on task 0     :           0.676 MB after allocating wave
  | Largest tracked array allocation on task 0 so far         :           0.131 MB  when allocating H_times_psi
  Note:  These values currently only include a subset of arrays which are explicitly tracked.
  The "true" memory usage will be greater.
------------------------------------------------------------

------------------------------------------------------------
          Begin self-consistency iteration #    1

  Date     :  20200805, Time     :  182005.724
------------------------------------------------------------
  Evaluating new KS density.
  Integration grid: deviation in total charge (<rho> - N_e) =  -3.552714E-14
  Pulay mixing of updated and previous charge densities.

  Evaluating partitioned Hartree potential by multipole expansion.
  | Analytical far-field extrapolation by fixed multipoles:
  | Hartree multipole sum: apparent total charge =  -0.672406E-04
  Summing up the Hartree potential.
  Time summed over all CPUs for potential: real work        0.280 s, elapsed        0.280 s
  | RMS charge density error from multipole expansion :   0.593608E-02

  Integrating Hamiltonian matrix: batch-based integration.
  Time summed over all CPUs for integration: real work        0.488 s, elapsed        0.488 s

  Updating Kohn-Sham eigenvalues and eigenvectors using ELSI and the ELPA eigensolver.
  Finished Cholesky decomposition
  | Time :     0.000 s
  Finished transformation to standard eigenproblem
  | Time :     0.000 s
  Starting LAPACK eigensolver
  Finished solving standard eigenproblem
  | Time :     0.001 s
  Finished back-transformation of eigenvectors
  | Time :     0.000 s

  Obtaining occupation numbers and chemical potential using ELSI.
  | Chemical potential (Fermi level):    -8.29350090eV
  Writing Kohn-Sham eigenvalues.

  State    Occupation    Eigenvalue [Ha]    Eigenvalue [eV]
      1       2.00000         -18.899751         -514.28840
      2       2.00000         -18.839877         -512.65914
      3       2.00000         -14.097849         -383.62199
      4       2.00000         -10.119353         -275.36161
      5       2.00000         -10.063743         -273.84838
      6       2.00000         -10.028316         -272.88437
      7       2.00000          -1.135089          -30.88735
      8       2.00000          -1.036730          -28.21085
      9       2.00000          -0.922815          -25.11106
     10       2.00000          -0.795017          -21.63352
     11       2.00000          -0.700500          -19.06158
     12       2.00000          -0.638913          -17.38571
     13       2.00000          -0.582199          -15.84244
     14       2.00000          -0.545816          -14.85240
     15       2.00000          -0.525925          -14.31116
     16       2.00000          -0.512240          -13.93875
     17       2.00000          -0.492734          -13.40796
     18       2.00000          -0.465848          -12.67637
     19       2.00000          -0.454425          -12.36554
     20       2.00000          -0.442585          -12.04336
     21       2.00000          -0.400839          -10.90739
     22       2.00000          -0.372141          -10.12647
     23       2.00000          -0.329155           -8.95677
     24       2.00000          -0.316864           -8.62231
     25       0.00000          -0.128072           -3.48501
     26       0.00000          -0.053322           -1.45095
     27       0.00000          -0.005758           -0.15668
     28       0.00000           0.015510            0.42204
     29       0.00000           0.034659            0.94312
     30       0.00000           0.050291            1.36848
     31       0.00000           0.060098            1.63535
     32       0.00000           0.077614            2.11198
     33       0.00000           0.093278            2.53822
     34       0.00000           0.104463            2.84260
     35       0.00000           0.118416            3.22226
     36       0.00000           0.159141            4.33046
     37       0.00000           0.177909            4.84114
     38       0.00000           0.226764            6.17056
     39       0.00000           0.255759            6.95955
     40       0.00000           0.258204            7.02609
     41       0.00000           0.290242            7.89788
     42       0.00000           0.307834            8.37659
     43       0.00000           0.320457            8.72008
     44       0.00000           0.346364            9.42505
     45       0.00000           0.370526           10.08254
     46       0.00000           0.388198           10.56341
     47       0.00000           0.412378           11.22137
     48       0.00000           0.450529           12.25951
     49       0.00000           0.465876           12.67713
     50       0.00000           0.520198           14.15530
     51       0.00000           0.536779           14.60651
     52       0.00000           0.560907           15.26306
     53       0.00000           0.609726           16.59149

  Highest occupied state (VBM) at     -8.62230558 eV
  | Occupation number:      2.00000000

  Lowest unoccupied state (CBM) at    -3.48500898 eV
  | Occupation number:      0.00000000

  Overall HOMO-LUMO gap:      5.13729660 eV.

  Total energy components:
  | Sum of eigenvalues            :        -185.43745009 Ha       -5046.00975498 eV
  | XC energy correction          :         -42.11872102 Ha       -1146.10871222 eV
  | XC potential correction       :          54.14938466 Ha        1473.47972636 eV
  | Free-atom electrostatic energy:        -146.85376783 Ha       -3996.09434179 eV
  | Hartree energy correction     :          -3.30731727 Ha         -89.99668185 eV
  | vdW energy correction         :           0.00000000 Ha           0.00000000 eV
  | Entropy correction            :           0.00000000 Ha           0.00000000 eV
  | ---------------------------
  | Total energy                  :        -323.56787155 Ha       -8804.72976448 eV
  | Total energy, T -> 0          :        -323.56787155 Ha       -8804.72976448 eV  <-- do not rely on this value for anything but (periodic) metals
  | Electronic free energy        :        -323.56787155 Ha       -8804.72976448 eV

  Derived energy quantities:
  | Kinetic energy                :         322.30093862 Ha        8770.25476547 eV
  | Electrostatic energy          :        -603.75008915 Ha      -16428.87581773 eV
  | Energy correction for multipole
  | error in Hartree potential    :           0.01205809 Ha           0.32811743 eV
  | Sum of eigenvalues per atom                           :        -388.15459654 eV
  | Total energy (T->0) per atom                          :        -677.28690496 eV  <-- do not rely on this value for anything but (periodic) metals
  | Electronic free energy per atom                       :        -677.28690496 eV

  Self-consistency convergence accuracy:
  | Change of charge density      :  0.5890E+00
  | Change of sum of eigenvalues  :  0.9238E+02 eV
  | Change of total energy        :  0.5077E+01 eV

  End self-consistency iteration #     1       :  max(cpu_time)    wall_clock(cpu1)
  | Time for this iteration                    :        1.177 s           1.178 s
  | Charge density update                      :        0.391 s           0.392 s
  | Density mixing                             :        0.005 s           0.006 s
  | Hartree multipole update                   :        0.009 s           0.008 s
  | Hartree multipole summation                :        0.281 s           0.282 s
  | Integration                                :        0.488 s           0.488 s
  | Solution of K.-S. eqns.                    :        0.002 s           0.002 s
  | Total energy evaluation                    :        0.000 s           0.000 s

  Partial memory accounting:
  | Current value for overall tracked memory usage on task 0  :           0.165 MB
  | Peak value for overall tracked memory usage on task 0     :           0.691 MB after allocating gradient_basis_wave
  | Largest tracked array allocation on task 0 so far         :           0.394 MB  when allocating gradient_basis_wave
  Note:  These values currently only include a subset of arrays which are explicitly tracked.
  The "true" memory usage will be greater.
------------------------------------------------------------

------------------------------------------------------------
          Begin self-consistency iteration #    2

  Date     :  20200805, Time     :  182006.903
------------------------------------------------------------
  Evaluating new KS density.
  Integration grid: deviation in total charge (<rho> - N_e) =  -7.105427E-15
  Pulay mixing of updated and previous charge densities.

  Evaluating partitioned Hartree potential by multipole expansion.
  | Analytical far-field extrapolation by fixed multipoles:
  | Hartree multipole sum: apparent total charge =  -0.202110E-03
  Summing up the Hartree potential.
  Time summed over all CPUs for potential: real work        0.280 s, elapsed        0.280 s
  | RMS charge density error from multipole expansion :   0.139650E-01

  Integrating Hamiltonian matrix: batch-based integration.
  Time summed over all CPUs for integration: real work        0.489 s, elapsed        0.489 s

  Updating Kohn-Sham eigenvalues and eigenvectors using ELSI and the ELPA eigensolver.
  Finished Cholesky decomposition
  | Time :     0.000 s
  Finished transformation to standard eigenproblem
  | Time :     0.000 s
  Starting LAPACK eigensolver
  Finished solving standard eigenproblem
  | Time :     0.001 s
  Finished back-transformation of eigenvectors
  | Time :     0.000 s

  Obtaining occupation numbers and chemical potential using ELSI.
  | Chemical potential (Fermi level):    -3.02549611eV
  Highest occupied state (VBM) at     -6.63759688 eV
  | Occupation number:      2.00000000

  Lowest unoccupied state (CBM) at    -2.31282291 eV
  | Occupation number:      0.00000000

  Overall HOMO-LUMO gap:      4.32477398 eV.

  Checking to see if s.c.f. parameters should be adjusted.

  Total energy components:
  | Sum of eigenvalues            :        -181.93311174 Ha       -4950.65185693 eV
  | XC energy correction          :         -42.47185503 Ha       -1155.71797753 eV
  | XC potential correction       :          54.60706084 Ha        1485.93372903 eV
  | Free-atom electrostatic energy:        -146.85376783 Ha       -3996.09434179 eV
  | Hartree energy correction     :          -6.83694134 Ha        -186.04263953 eV
  | vdW energy correction         :           0.00000000 Ha           0.00000000 eV
  | Entropy correction            :           0.00000000 Ha           0.00000000 eV
  | ---------------------------
  | Total energy                  :        -323.48861510 Ha       -8802.57308675 eV
  | Total energy, T -> 0          :        -323.48861510 Ha       -8802.57308675 eV  <-- do not rely on this value for anything but (periodic) metals
  | Electronic free energy        :        -323.48861510 Ha       -8802.57308675 eV

  Derived energy quantities:
  | Kinetic energy                :         323.59339539 Ha        8805.42430348 eV
  | Electrostatic energy          :        -604.61015546 Ha      -16452.27941270 eV
  | Energy correction for multipole
  | error in Hartree potential    :           0.02633063 Ha           0.71649300 eV
  | Sum of eigenvalues per atom                           :        -380.81937361 eV
  | Total energy (T->0) per atom                          :        -677.12100667 eV  <-- do not rely on this value for anything but (periodic) metals
  | Electronic free energy per atom                       :        -677.12100667 eV

  Self-consistency convergence accuracy:
  | Change of charge density      :  0.3682E+00
  | Change of sum of eigenvalues  :  0.9536E+02 eV
  | Change of total energy        :  0.2157E+01 eV

  End self-consistency iteration #     2       :  max(cpu_time)    wall_clock(cpu1)
  | Time for this iteration                    :        1.171 s           1.172 s
  | Charge density update                      :        0.383 s           0.384 s
  | Density mixing                             :        0.007 s           0.006 s
  | Hartree multipole update                   :        0.009 s           0.009 s
  | Hartree multipole summation                :        0.281 s           0.281 s
  | Integration                                :        0.489 s           0.489 s
  | Solution of K.-S. eqns.                    :        0.002 s           0.002 s
  | Total energy evaluation                    :        0.000 s           0.001 s

  Partial memory accounting:
  | Current value for overall tracked memory usage on task 0  :           0.166 MB
  | Peak value for overall tracked memory usage on task 0     :           0.691 MB after allocating gradient_basis_wave
  | Largest tracked array allocation on task 0 so far         :           0.394 MB  when allocating gradient_basis_wave
  Note:  These values currently only include a subset of arrays which are explicitly tracked.
  The "true" memory usage will be greater.
------------------------------------------------------------

------------------------------------------------------------
          Begin self-consistency iteration #    3

  Date     :  20200805, Time     :  182008.075
------------------------------------------------------------
  Evaluating new KS density.
  Integration grid: deviation in total charge (<rho> - N_e) =   4.263256E-14
  Pulay mixing of updated and previous charge densities.

  Evaluating partitioned Hartree potential by multipole expansion.
  | Analytical far-field extrapolation by fixed multipoles:
  | Hartree multipole sum: apparent total charge =  -0.297455E-03
  Summing up the Hartree potential.
  Time summed over all CPUs for potential: real work        0.280 s, elapsed        0.280 s
  | RMS charge density error from multipole expansion :   0.219984E-01

  Integrating Hamiltonian matrix: batch-based integration.
  Time summed over all CPUs for integration: real work        0.490 s, elapsed        0.490 s

  Updating Kohn-Sham eigenvalues and eigenvectors using ELSI and the ELPA eigensolver.
  Finished Cholesky decomposition
  | Time :     0.000 s
  Finished transformation to standard eigenproblem
  | Time :     0.000 s
  Starting LAPACK eigensolver
  Finished solving standard eigenproblem
  | Time :     0.002 s
  Finished back-transformation of eigenvectors
  | Time :     0.000 s

  Obtaining occupation numbers and chemical potential using ELSI.
  | Chemical potential (Fermi level):    -2.48207446eV
  Highest occupied state (VBM) at     -5.95804310 eV
  | Occupation number:      2.00000000

  Lowest unoccupied state (CBM) at    -1.65234289 eV
  | Occupation number:      0.00000000

  Overall HOMO-LUMO gap:      4.30570021 eV.

  Total energy components:
  | Sum of eigenvalues            :        -180.62068852 Ha       -4914.93900390 eV
  | XC energy correction          :         -42.62560731 Ha       -1159.90178993 eV
  | XC potential correction       :          54.80312056 Ha        1491.26878528 eV
  | Free-atom electrostatic energy:        -146.85376783 Ha       -3996.09434179 eV
  | Hartree energy correction     :          -8.17800379 Ha        -222.53480544 eV
  | vdW energy correction         :           0.00000000 Ha           0.00000000 eV
  | Entropy correction            :           0.00000000 Ha           0.00000000 eV
  | ---------------------------
  | Total energy                  :        -323.47494688 Ha       -8802.20115576 eV
  | Total energy, T -> 0          :        -323.47494688 Ha       -8802.20115576 eV  <-- do not rely on this value for anything but (periodic) metals
  | Electronic free energy        :        -323.47494688 Ha       -8802.20115576 eV

  Derived energy quantities:
  | Kinetic energy                :         323.21052625 Ha        8795.00590418 eV
  | Electrostatic energy          :        -604.05986583 Ha      -16437.30527002 eV
  | Energy correction for multipole
  | error in Hartree potential    :           0.03736481 Ha           1.01674818 eV
  | Sum of eigenvalues per atom                           :        -378.07223107 eV
  | Total energy (T->0) per atom                          :        -677.09239660 eV  <-- do not rely on this value for anything but (periodic) metals
  | Electronic free energy per atom                       :        -677.09239660 eV

  Self-consistency convergence accuracy:
  | Change of charge density      :  0.2085E+00
  | Change of sum of eigenvalues  :  0.3571E+02 eV
  | Change of total energy        :  0.3719E+00 eV

  End self-consistency iteration #     3       :  max(cpu_time)    wall_clock(cpu1)
  | Time for this iteration                    :        1.174 s           1.174 s
  | Charge density update                      :        0.384 s           0.384 s
  | Density mixing                             :        0.008 s           0.008 s
  | Hartree multipole update                   :        0.009 s           0.009 s
  | Hartree multipole summation                :        0.280 s           0.281 s
  | Integration                                :        0.490 s           0.490 s
  | Solution of K.-S. eqns.                    :        0.002 s           0.002 s
  | Total energy evaluation                    :        0.000 s           0.000 s

  Partial memory accounting:
  | Current value for overall tracked memory usage on task 0  :           0.166 MB
  | Peak value for overall tracked memory usage on task 0     :           0.692 MB after allocating gradient_basis_wave
  | Largest tracked array allocation on task 0 so far         :           0.394 MB  when allocating gradient_basis_wave
  Note:  These values currently only include a subset of arrays which are explicitly tracked.
  The "true" memory usage will be greater.
------------------------------------------------------------

------------------------------------------------------------
          Begin self-consistency iteration #    4

  Date     :  20200805, Time     :  182009.250
------------------------------------------------------------
  Evaluating new KS density.
  Integration grid: deviation in total charge (<rho> - N_e) =   7.815970E-14
  Pulay mixing of updated and previous charge densities.

  Evaluating partitioned Hartree potential by multipole expansion.
  | Analytical far-field extrapolation by fixed multipoles:
  | Hartree multipole sum: apparent total charge =  -0.329536E-03
  Summing up the Hartree potential.
  Time summed over all CPUs for potential: real work        0.282 s, elapsed        0.282 s
  | RMS charge density error from multipole expansion :   0.254577E-01

  Integrating Hamiltonian matrix: batch-based integration.
  Time summed over all CPUs for integration: real work        0.500 s, elapsed        0.500 s

  Updating Kohn-Sham eigenvalues and eigenvectors using ELSI and the ELPA eigensolver.
  Finished Cholesky decomposition
  | Time :     0.000 s
  Finished transformation to standard eigenproblem
  | Time :     0.000 s
  Starting LAPACK eigensolver
  Finished solving standard eigenproblem
  | Time :     0.002 s
  Finished back-transformation of eigenvectors
  | Time :     0.000 s

  Obtaining occupation numbers and chemical potential using ELSI.
  | Chemical potential (Fermi level):    -2.38295644eV
  Highest occupied state (VBM) at     -5.80270117 eV
  | Occupation number:      2.00000000

  Lowest unoccupied state (CBM) at    -1.55104440 eV
  | Occupation number:      0.00000000

  Overall HOMO-LUMO gap:      4.25165677 eV.

  Total energy components:
  | Sum of eigenvalues            :        -180.46352773 Ha       -4910.66244127 eV
  | XC energy correction          :         -42.66517616 Ha       -1160.97851336 eV
  | XC potential correction       :          54.85293170 Ha        1492.62421549 eV
  | Free-atom electrostatic energy:        -146.85376783 Ha       -3996.09434179 eV
  | Hartree energy correction     :          -8.34439143 Ha        -227.06244363 eV
  | vdW energy correction         :           0.00000000 Ha           0.00000000 eV
  | Entropy correction            :           0.00000000 Ha           0.00000000 eV
  | ---------------------------
  | Total energy                  :        -323.47393146 Ha       -8802.17352456 eV
  | Total energy, T -> 0          :        -323.47393146 Ha       -8802.17352456 eV  <-- do not rely on this value for anything but (periodic) metals
  | Electronic free energy        :        -323.47393146 Ha       -8802.17352456 eV

  Derived energy quantities:
  | Kinetic energy                :         322.83506583 Ha        8784.78910650 eV
  | Electrostatic energy          :        -603.64382113 Ha      -16425.98411769 eV
  | Energy correction for multipole
  | error in Hartree potential    :           0.04165740 Ha           1.13355556 eV
  | Sum of eigenvalues per atom                           :        -377.74326471 eV
  | Total energy (T->0) per atom                          :        -677.09027112 eV  <-- do not rely on this value for anything but (periodic) metals
  | Electronic free energy per atom                       :        -677.09027112 eV

  Self-consistency convergence accuracy:
  | Change of charge density      :  0.6766E-01
  | Change of sum of eigenvalues  :  0.4277E+01 eV
  | Change of total energy        :  0.2763E-01 eV

  End self-consistency iteration #     4       :  max(cpu_time)    wall_clock(cpu1)
  | Time for this iteration                    :        1.182 s           1.189 s
  | Charge density update                      :        0.385 s           0.385 s
  | Density mixing                             :        0.010 s           0.010 s
  | Hartree multipole update                   :        0.009 s           0.009 s
  | Hartree multipole summation                :        0.282 s           0.282 s
  | Integration                                :        0.494 s           0.501 s
  | Solution of K.-S. eqns.                    :        0.002 s           0.002 s
  | Total energy evaluation                    :        0.000 s           0.000 s

  Partial memory accounting:
  | Current value for overall tracked memory usage on task 0  :           0.166 MB
  | Peak value for overall tracked memory usage on task 0     :           0.692 MB after allocating gradient_basis_wave
  | Largest tracked array allocation on task 0 so far         :           0.394 MB  when allocating gradient_basis_wave
  Note:  These values currently only include a subset of arrays which are explicitly tracked.
  The "true" memory usage will be greater.
------------------------------------------------------------

------------------------------------------------------------
          Begin self-consistency iteration #    5

  Date     :  20200805, Time     :  182010.440
------------------------------------------------------------
  Evaluating new KS density.
  Integration grid: deviation in total charge (<rho> - N_e) =   4.263256E-14
  Pulay mixing of updated and previous charge densities.

  Evaluating partitioned Hartree potential by multipole expansion.
  | Analytical far-field extrapolation by fixed multipoles:
  | Hartree multipole sum: apparent total charge =  -0.323373E-03
  Summing up the Hartree potential.
  Time summed over all CPUs for potential: real work        0.281 s, elapsed        0.281 s
  | RMS charge density error from multipole expansion :   0.252620E-01

  Integrating Hamiltonian matrix: batch-based integration.
  Time summed over all CPUs for integration: real work        0.492 s, elapsed        0.492 s

  Updating Kohn-Sham eigenvalues and eigenvectors using ELSI and the ELPA eigensolver.
  Finished Cholesky decomposition
  | Time :     0.000 s
  Finished transformation to standard eigenproblem
  | Time :     0.000 s
  Starting LAPACK eigensolver
  Finished solving standard eigenproblem
  | Time :     0.002 s
  Finished back-transformation of eigenvectors
  | Time :     0.000 s

  Obtaining occupation numbers and chemical potential using ELSI.
  | Chemical potential (Fermi level):    -2.43892206eV
  Highest occupied state (VBM) at     -5.88266434 eV
  | Occupation number:      2.00000000

  Lowest unoccupied state (CBM) at    -1.64984649 eV
  | Occupation number:      0.00000000

  Overall HOMO-LUMO gap:      4.23281785 eV.

  Total energy components:
  | Sum of eigenvalues            :        -180.68388561 Ha       -4916.65868426 eV
  | XC energy correction          :         -42.63857390 Ha       -1160.25462887 eV
  | XC potential correction       :          54.81839231 Ha        1491.68435073 eV
  | Free-atom electrostatic energy:        -146.85376783 Ha       -3996.09434179 eV
  | Hartree energy correction     :          -8.11580083 Ha        -220.84217698 eV
  | vdW energy correction         :           0.00000000 Ha           0.00000000 eV
  | Entropy correction            :           0.00000000 Ha           0.00000000 eV
  | ---------------------------
  | Total energy                  :        -323.47363587 Ha       -8802.16548116 eV
  | Total energy, T -> 0          :        -323.47363587 Ha       -8802.16548116 eV  <-- do not rely on this value for anything but (periodic) metals
  | Electronic free energy        :        -323.47363587 Ha       -8802.16548116 eV

  Derived energy quantities:
  | Kinetic energy                :         322.69718134 Ha        8781.03707855 eV
  | Electrostatic energy          :        -603.53224331 Ha      -16422.94793085 eV
  | Energy correction for multipole
  | error in Hartree potential    :           0.04103870 Ha           1.11671975 eV
  | Sum of eigenvalues per atom                           :        -378.20451417 eV
  | Total energy (T->0) per atom                          :        -677.08965240 eV  <-- do not rely on this value for anything but (periodic) metals
  | Electronic free energy per atom                       :        -677.08965240 eV

  Self-consistency convergence accuracy:
  | Change of charge density      :  0.2091E-01
  | Change of sum of eigenvalues  : -0.5996E+01 eV
  | Change of total energy        :  0.8043E-02 eV

  End self-consistency iteration #     5       :  max(cpu_time)    wall_clock(cpu1)
  | Time for this iteration                    :        1.179 s           1.179 s
  | Charge density update                      :        0.383 s           0.383 s
  | Density mixing                             :        0.011 s           0.011 s
  | Hartree multipole update                   :        0.009 s           0.009 s
  | Hartree multipole summation                :        0.281 s           0.282 s
  | Integration                                :        0.492 s           0.492 s
  | Solution of K.-S. eqns.                    :        0.002 s           0.002 s
  | Total energy evaluation                    :        0.000 s           0.000 s

  Partial memory accounting:
  | Current value for overall tracked memory usage on task 0  :           0.166 MB
  | Peak value for overall tracked memory usage on task 0     :           0.692 MB after allocating gradient_basis_wave
  | Largest tracked array allocation on task 0 so far         :           0.394 MB  when allocating gradient_basis_wave
  Note:  These values currently only include a subset of arrays which are explicitly tracked.
  The "true" memory usage will be greater.
------------------------------------------------------------

------------------------------------------------------------
          Begin self-consistency iteration #    6

  Date     :  20200805, Time     :  182011.620
------------------------------------------------------------
  Evaluating new KS density.
  Integration grid: deviation in total charge (<rho> - N_e) =   1.421085E-14
  Pulay mixing of updated and previous charge densities.

  Evaluating partitioned Hartree potential by multipole expansion.
  | Analytical far-field extrapolation by fixed multipoles:
  | Hartree multipole sum: apparent total charge =  -0.327887E-03
  Summing up the Hartree potential.
  Time summed over all CPUs for potential: real work        0.281 s, elapsed        0.281 s
  | RMS charge density error from multipole expansion :   0.257510E-01

  Integrating Hamiltonian matrix: batch-based integration.
  Time summed over all CPUs for integration: real work        0.489 s, elapsed        0.489 s

  Updating Kohn-Sham eigenvalues and eigenvectors using ELSI and the ELPA eigensolver.
  Finished Cholesky decomposition
  | Time :     0.000 s
  Finished transformation to standard eigenproblem
  | Time :     0.000 s
  Starting LAPACK eigensolver
  Finished solving standard eigenproblem
  | Time :     0.002 s
  Finished back-transformation of eigenvectors
  | Time :     0.000 s

  Obtaining occupation numbers and chemical potential using ELSI.
  | Chemical potential (Fermi level):    -2.42190919eV
  Highest occupied state (VBM) at     -5.83544641 eV
  | Occupation number:      2.00000000

  Lowest unoccupied state (CBM) at    -1.65136482 eV
  | Occupation number:      0.00000000

  Overall HOMO-LUMO gap:      4.18408159 eV.

  Total energy components:
  | Sum of eigenvalues            :        -180.65560481 Ha       -4915.88912463 eV
  | XC energy correction          :         -42.64125217 Ha       -1160.32750845 eV
  | XC potential correction       :          54.82183402 Ha        1491.77800447 eV
  | Free-atom electrostatic energy:        -146.85376783 Ha       -3996.09434179 eV
  | Hartree energy correction     :          -8.14480124 Ha        -221.63131828 eV
  | vdW energy correction         :           0.00000000 Ha           0.00000000 eV
  | Entropy correction            :           0.00000000 Ha           0.00000000 eV
  | ---------------------------
  | Total energy                  :        -323.47359204 Ha       -8802.16428869 eV
  | Total energy, T -> 0          :        -323.47359204 Ha       -8802.16428869 eV  <-- do not rely on this value for anything but (periodic) metals
  | Electronic free energy        :        -323.47359204 Ha       -8802.16428869 eV

  Derived energy quantities:
  | Kinetic energy                :         322.63126923 Ha        8779.24351873 eV
  | Electrostatic energy          :        -603.46360910 Ha      -16421.08029897 eV
  | Energy correction for multipole
  | error in Hartree potential    :           0.04153687 Ha           1.13027574 eV
  | Sum of eigenvalues per atom                           :        -378.14531728 eV
  | Total energy (T->0) per atom                          :        -677.08956067 eV  <-- do not rely on this value for anything but (periodic) metals
  | Electronic free energy per atom                       :        -677.08956067 eV

  Self-consistency convergence accuracy:
  | Change of charge density      :  0.1089E-01
  | Change of sum of eigenvalues  :  0.7696E+00 eV
  | Change of total energy        :  0.1192E-02 eV

  End self-consistency iteration #     6       :  max(cpu_time)    wall_clock(cpu1)
  | Time for this iteration                    :        1.178 s           1.178 s
  | Charge density update                      :        0.384 s           0.384 s
  | Density mixing                             :        0.012 s           0.012 s
  | Hartree multipole update                   :        0.009 s           0.009 s
  | Hartree multipole summation                :        0.281 s           0.282 s
  | Integration                                :        0.489 s           0.489 s
  | Solution of K.-S. eqns.                    :        0.002 s           0.002 s
  | Total energy evaluation                    :        0.000 s           0.000 s

  Partial memory accounting:
  | Current value for overall tracked memory usage on task 0  :           0.166 MB
  | Peak value for overall tracked memory usage on task 0     :           0.692 MB after allocating gradient_basis_wave
  | Largest tracked array allocation on task 0 so far         :           0.394 MB  when allocating gradient_basis_wave
  Note:  These values currently only include a subset of arrays which are explicitly tracked.
  The "true" memory usage will be greater.
------------------------------------------------------------

------------------------------------------------------------
          Begin self-consistency iteration #    7

  Date     :  20200805, Time     :  182012.799
------------------------------------------------------------
  Evaluating new KS density.
  Integration grid: deviation in total charge (<rho> - N_e) =  -4.263256E-14
  Pulay mixing of updated and previous charge densities.

  Evaluating partitioned Hartree potential by multipole expansion.
  | Analytical far-field extrapolation by fixed multipoles:
  | Hartree multipole sum: apparent total charge =  -0.328366E-03
  Summing up the Hartree potential.
  Time summed over all CPUs for potential: real work        0.282 s, elapsed        0.282 s
  | RMS charge density error from multipole expansion :   0.258413E-01

  Integrating Hamiltonian matrix: batch-based integration.
  Time summed over all CPUs for integration: real work        0.493 s, elapsed        0.493 s

  Updating Kohn-Sham eigenvalues and eigenvectors using ELSI and the ELPA eigensolver.
  Finished Cholesky decomposition
  | Time :     0.000 s
  Finished transformation to standard eigenproblem
  | Time :     0.000 s
  Starting LAPACK eigensolver
  Finished solving standard eigenproblem
  | Time :     0.002 s
  Finished back-transformation of eigenvectors
  | Time :     0.000 s

[...]
  |   Hirshfeld dipole moment :      0.05546790
  |   Hirshfeld second moments:      0.01778950      -0.03217311      -0.01820808
  |                                 -0.03217311      -0.01975480       0.00757595
  |                                 -0.01820808       0.00757595      -0.01422180
  ----------------------------------------------------------------------
  | Atom    12: O
  |   Hirshfeld charge        :     -0.15528626
  |   Free atom volume        :     23.61338643
  |   Hirshfeld volume        :     20.86394827
  |   Hirshfeld dipole vector :      0.03192926       0.02834311      -0.00356505
  |   Hirshfeld dipole moment :      0.04284296
  |   Hirshfeld second moments:      0.05631487      -0.02436058      -0.01818764
  |                                 -0.02436058       0.06339234       0.03794027
  |                                 -0.01818764       0.03794027       0.05764259
  ----------------------------------------------------------------------
  | Atom    13: H
  |   Hirshfeld charge        :      0.18386014
  |   Free atom volume        :      9.95071624
  |   Hirshfeld volume        :      6.04957304
  |   Hirshfeld dipole vector :      0.08595469      -0.06121279      -0.06982115
  |   Hirshfeld dipole moment :      0.12653144
  |   Hirshfeld second moments:      0.12100512      -0.00370705       0.00495097
  |                                 -0.00370705       0.11902708       0.00947913
  |                                  0.00495097       0.00947913       0.11399959
  ----------------------------------------------------------------------


  Total energy components:
  | Sum of eigenvalues            :        -180.65737543 Ha       -4915.93730547 eV
  | XC energy correction          :         -42.63780657 Ha       -1160.23374878 eV
  | XC potential correction       :          54.81745625 Ha        1491.65887933 eV
  | Free-atom electrostatic energy:        -146.85376783 Ha       -3996.09434179 eV
  | Hartree energy correction     :          -8.14207561 Ha        -221.55715011 eV
  | vdW energy correction         :          -0.00313162 Ha          -0.08521561 eV
  | Entropy correction            :           0.00000000 Ha           0.00000000 eV
  | ---------------------------
  | Total energy                  :        -323.47670081 Ha       -8802.24888243 eV
  | Total energy, T -> 0          :        -323.47670081 Ha       -8802.24888243 eV  <-- do not rely on this value for anything but (periodic) metals
  | Electronic free energy        :        -323.47670081 Ha       -8802.24888243 eV

  Derived energy quantities:
  | Kinetic energy                :         322.59524480 Ha        8778.26324417 eV
  | Electrostatic energy          :        -603.43100742 Ha      -16420.19316221 eV
  | Energy correction for multipole
  | error in Hartree potential    :           0.04157477 Ha           1.13130693 eV
  | Sum of eigenvalues per atom                           :        -378.14902350 eV
  | Total energy (T->0) per atom                          :        -677.09606788 eV  <-- do not rely on this value for anything but (periodic) metals
  | Electronic free energy per atom                       :        -677.09606788 eV

  atomic forces [eV/Ang]:
  -----------------------
  atom #    1
   Hellmann-Feynman              :  0.870229E+00  0.235197E+00  0.110869E+01
   Ionic forces                  :  0.000000E+00  0.000000E+00  0.000000E+00
   Multipole                     :  0.230660E+00  0.162151E+00 -0.322057E+00
   Pulay + GGA                   : -0.130123E+01 -0.133249E+00 -0.122668E+01
   Van der Waals                 :  0.221754E-02  0.521195E-02 -0.511964E-03
   ----------------------------------------------------------------
   Total forces(   1)            : -0.198128E+00  0.269310E+00 -0.440563E+00
  atom #    2
   Hellmann-Feynman              :  0.438528E+00  0.456252E-02  0.322338E+00
   Ionic forces                  :  0.000000E+00  0.000000E+00  0.000000E+00
   Multipole                     :  0.146943E+00  0.157014E-01 -0.272475E-01
   Pulay + GGA                   : -0.117944E+00  0.166007E-01  0.258866E-01
   Van der Waals                 :  0.798227E-02 -0.486969E-02 -0.250588E-02
   ----------------------------------------------------------------
   Total forces(   2)            :  0.475510E+00  0.319949E-01  0.318471E+00
  atom #    3
   Hellmann-Feynman              : -0.110521E+02  0.521815E+01  0.641724E+00
   Ionic forces                  :  0.000000E+00  0.000000E+00  0.000000E+00
   Multipole                     : -0.782271E-01  0.110830E+00 -0.101854E+01
   Pulay + GGA                   :  0.110466E+02 -0.521801E+01  0.103911E+01
   Van der Waals                 :  0.322783E-02  0.103719E-02 -0.105730E-01
   ----------------------------------------------------------------
   Total forces(   3)            : -0.805603E-01  0.112004E+00  0.651724E+00
  atom #    4
   Hellmann-Feynman              :  0.130164E+00 -0.922911E-01 -0.122264E+00
   Ionic forces                  :  0.000000E+00  0.000000E+00  0.000000E+00
   Multipole                     :  0.321330E-01 -0.290625E-02 -0.107428E+00
   Pulay + GGA                   : -0.195213E+00 -0.456588E-01  0.112728E+00
   Van der Waals                 : -0.234534E-02 -0.519165E-02  0.179173E-03
   ----------------------------------------------------------------
   Total forces(   4)            : -0.352610E-01 -0.146048E+00 -0.116784E+00
  atom #    5
   Hellmann-Feynman              :  0.133062E+00 -0.630494E-01 -0.325859E+00
   Ionic forces                  :  0.000000E+00  0.000000E+00  0.000000E+00
   Multipole                     : -0.102656E-02 -0.711013E-01 -0.979116E-01
   Pulay + GGA                   : -0.136966E+00  0.236177E+00  0.407590E-01
   Van der Waals                 : -0.330483E-02  0.382391E-02 -0.637481E-03
   ----------------------------------------------------------------
   Total forces(   5)            : -0.823546E-02  0.105850E+00 -0.383649E+00
  atom #    6
   Hellmann-Feynman              : -0.230653E+00 -0.482897E+00  0.560516E+00
   Ionic forces                  :  0.000000E+00  0.000000E+00  0.000000E+00
   Multipole                     : -0.108623E+00  0.649537E+00  0.244416E+00
   Pulay + GGA                   :  0.443970E+00 -0.523146E+00 -0.676264E+00
   Van der Waals                 : -0.451951E-02  0.489906E-02 -0.109614E-03
   ----------------------------------------------------------------
   Total forces(   6)            :  0.100174E+00 -0.351608E+00  0.128559E+00
  atom #    7
   Hellmann-Feynman              : -0.187079E+00 -0.563942E-01 -0.744379E-01
   Ionic forces                  :  0.000000E+00  0.000000E+00  0.000000E+00
   Multipole                     : -0.123355E+00  0.494251E-01  0.296798E-01
   Pulay + GGA                   :  0.122482E+00 -0.682776E-02 -0.320518E-01
   Van der Waals                 : -0.868537E-03  0.160771E-02  0.278869E-02
   ----------------------------------------------------------------
   Total forces(   7)            : -0.188821E+00 -0.121891E-01 -0.740213E-01
  atom #    8
   Hellmann-Feynman              :  0.123965E+00 -0.328260E-01  0.133943E+00
   Ionic forces                  :  0.000000E+00  0.000000E+00  0.000000E+00
   Multipole                     :  0.122990E-01  0.611562E-01  0.125323E+00
   Pulay + GGA                   : -0.427871E-01 -0.365923E-01 -0.858663E-01
   Van der Waals                 : -0.245150E-02  0.115190E-01  0.145737E-02
   ----------------------------------------------------------------
   Total forces(   8)            :  0.910250E-01  0.325693E-02  0.174858E+00
  atom #    9
   Hellmann-Feynman              :  0.105593E+00  0.512292E-01 -0.185742E+00
   Ionic forces                  :  0.000000E+00  0.000000E+00  0.000000E+00
   Multipole                     :  0.155611E-01  0.125731E+00 -0.104802E-01
   Pulay + GGA                   : -0.571418E-01 -0.735676E-01  0.558897E-01
   Van der Waals                 : -0.189552E-02  0.363862E-02  0.401626E-02
   ----------------------------------------------------------------
   Total forces(   9)            :  0.621172E-01  0.107031E+00 -0.136317E+00
  atom #   10
   Hellmann-Feynman              :  0.353074E+01  0.523189E+01  0.197222E+01
   Ionic forces                  :  0.000000E+00  0.000000E+00  0.000000E+00
   Multipole                     :  0.980479E-01 -0.622149E-01  0.302443E+00
   Pulay + GGA                   : -0.232890E+01 -0.259268E+01  0.620710E-01
   Van der Waals                 :  0.346555E-02 -0.105418E-01 -0.171691E-02
   ----------------------------------------------------------------
   Total forces(  10)            :  0.130335E+01  0.256645E+01  0.233502E+01
  atom #   11
   Hellmann-Feynman              :  0.413079E+01 -0.245350E+01  0.136528E+02
   Ionic forces                  :  0.000000E+00  0.000000E+00  0.000000E+00
   Multipole                     :  0.527886E-01 -0.595778E+00  0.740890E+00
   Pulay + GGA                   : -0.361641E+01  0.389003E+01 -0.134554E+02
   Van der Waals                 : -0.299172E-02 -0.105475E-01  0.499264E-02
   ----------------------------------------------------------------
   Total forces(  11)            :  0.564181E+00  0.830206E+00  0.943303E+00
  atom #   12
   Hellmann-Feynman              : -0.146727E+02 -0.503601E+01 -0.180236E+01
   Ionic forces                  :  0.000000E+00  0.000000E+00  0.000000E+00
   Multipole                     : -0.101786E+01 -0.130968E+01 -0.182646E+00
   Pulay + GGA                   :  0.140655E+02  0.372921E+01 -0.609921E+00
   Van der Waals                 :  0.788842E-03  0.653581E-02  0.413325E-02
   ----------------------------------------------------------------
   Total forces(  12)            : -0.162425E+01 -0.260994E+01 -0.259079E+01
  atom #   13
   Hellmann-Feynman              : -0.186909E+00 -0.952142E+00 -0.107105E+01
   Ionic forces                  :  0.000000E+00  0.000000E+00  0.000000E+00
   Multipole                     :  0.606947E-01 -0.492439E-01 -0.143156E-01
   Pulay + GGA                   : -0.332871E+00  0.991205E-01  0.270326E+00
   Van der Waals                 :  0.694932E-03 -0.712269E-02 -0.151250E-02
   ----------------------------------------------------------------
   Total forces(  13)            : -0.458391E+00 -0.909388E+00 -0.816555E+00

  Timings for VdW correction (Tkatchenko-Scheffler 2009 or later):
  | CPU time:        0.089 s, Wall clock time:        0.090 s.
  Removing unitary transformations (pure translations, rotations) from forces on atoms.
  Atomic forces before filtering:
  | Net force on center of mass :   0.270689E-02 -0.307055E-02 -0.675168E-02 eV/A
  | Net torque on center of mass:   0.460627E-02  0.314890E-02  0.716628E-02 eV
  Atomic forces after filtering:
  | Net force on center of mass :  -0.892031E-16  0.178406E-15  0.000000E+00 eV/A
  | Net torque on center of mass:  -0.236021E-14  0.389435E-15 -0.188817E-15 eV

  Energy and forces in a compact form:
  | Total energy uncorrected      :         -0.880224888242784E+04 eV
  | Total energy corrected        :         -0.880224888242784E+04 eV  <-- do not rely on this value for anything but (periodic) metals
  | Electronic free energy        :         -0.880224888242784E+04 eV
  Total atomic forces (unitary forces cleaned) [eV/Ang]:
  |   1         -0.198290838782565E+00          0.269464076188132E+00         -0.440005599299894E+00
  |   2          0.475347679195415E+00          0.318779591490721E-01          0.319217889150783E+00
  |   3         -0.804786184264302E-01          0.112125602385856E+00          0.652198580596836E+00
  |   4         -0.349560015256796E-01         -0.146155134577929E+00         -0.116245529467771E+00
  |   5         -0.833781422802644E-02          0.105960027470036E+00         -0.383087082977294E+00
  |   6          0.100198111246134E+00         -0.351254178153109E+00          0.128896062044385E+00
  |   7         -0.188793145097092E+00         -0.115631520453081E-01         -0.738757285546708E-01
  |   8          0.908735984785910E-01          0.363102284116179E-02          0.175256128408106E+00
  |   9          0.624509500324195E-01          0.107241977746718E+00         -0.136012442529007E+00
  |  10          0.130273734575791E+01          0.256678058645688E+01          0.233564295588360E+01
  |  11          0.563304928117269E+00          0.830585049283122E+00          0.944009478477362E+00
  |  12         -0.162495452836934E+01         -0.260950688279860E+01         -0.259020004215560E+01
  |  13         -0.459101666398607E+00         -0.909186953946035E+00         -0.815794669576837E+00

  ------------------------------------ 
  Start decomposition of the XC Energy 
  ------------------------------------ 
  X and C from original XC functional choice 
  Hartree-Fock Energy :          0.000000000 Ha              0.000000000 eV
  X Energy            :        -41.037372333 Ha          -1116.683717421 eV
  C Energy            :         -1.600434236 Ha            -43.550031362 eV
  Total XC Energy     :        -42.637806569 Ha          -1160.233748783 eV
  ------------------------------------ 
  LDA X and C from self-consistent density 
  X Energy LDA        :        -37.255745021 Ha          -1013.780402589 eV
  C Energy LDA        :         -3.138542815 Ha            -85.404095312 eV
  ------------------------------------ 
  End decomposition of the XC Energy 
  ------------------------------------ 

------------------------------------------------------------

------------------------------------------------------------------------------
  Final output of selected total energy values:

  The following output summarizes some interesting total energy values
  at the end of a run (AFTER all relaxation, molecular dynamics, etc.).

  | Total energy of the DFT / Hartree-Fock s.c.f. calculation      :          -8802.248882428 eV
  | Final zero-broadening corrected energy (caution - metals only) :          -8802.248882428 eV
  | For reference only, the value of 1 Hartree used in FHI-aims is :             27.211384500 eV

  Before relying on these values, please be sure to understand exactly which
  total energy value is referred to by a given number. Different objects may
  all carry the same name 'total energy'. Definitions:

  Total energy of the DFT / Hartree-Fock s.c.f. calculation:
  | Note that this energy does not include ANY quantities calculated after the
  | s.c.f. cycle, in particular not ANY RPA, MP2, etc. many-body perturbation terms.

  Final zero-broadening corrected energy:
  | For metallic systems only, a broadening of the occupation numbers at the Fermi
  | level can be extrapolated back to zero broadening by an electron-gas inspired
  | formula. For all systems that are not real metals, this value can be
  | meaningless and should be avoided.

------------------------------------------------------------------------------
  Methods described in the following list of references were used in this FHI-aims run.
  If you publish the results, please make sure to cite these reference if they apply.
  FHI-aims is an academic code, and for our developers (often, Ph.D. students
  and postdocs), scientific credit in the community is essential.
  Thank you for helping us!

  For any use of FHI-aims, please cite:

    Volker Blum, Ralf Gehrke, Felix Hanke, Paula Havu, Ville Havu,
    Xinguo Ren, Karsten Reuter, and Matthias Scheffler
    'Ab initio molecular simulations with numeric atom-centered orbitals'
    Computer Physics Communications 180, 2175-2196 (2009)
    http://dx.doi.org/10.1016/j.cpc.2009.06.022


  The scalable eigensolver library ELPA was used in your run.
  ELPA is essential especially for large systems on hundreds or thousands of CPUs.
  For ELPA, please cite:

    Andreas Marek, Volker Blum, Rainer Johanni, Ville Havu, Bruno Lang,
    Thomas Auckenthaler, Alexander Heinecke, Hans-Joachim Bungartz, and Hermann Lederer,
    'The ELPA Library - Scalable Parallel Eigenvalue Solutions
    for Electronic Structure Theory and Computational Science'
    The Journal of Physics: Condensed Matter 26, 213201 (2014).
    http://dx.doi.org/10.1088/0953-8984/26/21/213201


  The ELSI infrastructure was used in your run to solve the Kohn-Sham electronic structure.
  Please check out http://elsi-interchange.org to learn more.
  If scalability is important for your project, please acknowledge ELSI by citing:

    V. W-z. Yu, F. Corsetti, A. Garcia, W. P. Huhn, M. Jacquelin, W. Jia,
    B. Lange, L. Lin, J. Lu, W. Mi, A. Seifitokaldani, A. Vazquez-Mayagoitia,
    C. Yang, H. Yang, and V. Blum
    'ELSI: A unified software interface for Kohn-Sham electronic structure solvers'
    Computer Physics Communications 222, 267-285 (2018).
    http://dx.doi.org/10.1016/j.cpc.2017.09.007


  For the real-space grid partitioning and parallelization used in this calculation, please cite:

    Ville Havu, Volker Blum, Paula Havu, and Matthias Scheffler,
    'Efficient O(N) integration for all-electron electronic structure calculation'
    'using numerically tabulated basis functions'
    Journal of Computational Physics 228, 8367-8379 (2009).
    http://dx.doi.org/10.1016/j.jcp.2009.08.008

  Of course, there are many other important community references, e.g., those cited in the
  above references. Our list is limited to references that describe implementations in the
  FHI-aims code. The reason is purely practical (length of this list) - please credit others as well.

------------------------------------------------------------
          Leaving FHI-aims.
          Date     :  20200805, Time     :  182027.042

          Computational steps:
          | Number of self-consistency cycles          :           16
          | Number of SCF (re)initializations          :            1

          Detailed time accounting                     :  max(cpu_time)    wall_clock(cpu1)
          | Total time                                 :       22.588 s          22.629 s
          | Preparation time                           :        0.146 s           0.147 s
          | Boundary condition initalization           :        0.000 s           0.000 s
          | Grid partitioning                          :        0.111 s           0.112 s
          | Preloading free-atom quantities on grid    :        0.002 s           0.002 s
          | Free-atom superposition energy             :        0.084 s           0.085 s
          | Total time for integrations                :        8.563 s           8.571 s
          | Total time for solution of K.-S. equations :        0.036 s           0.037 s
          | Total time for density & force components  :        7.119 s           7.126 s
          | Total time for mixing                      :        0.220 s           0.224 s
          | Total time for Hartree multipole update    :        0.140 s           0.140 s
          | Total time for Hartree multipole sum       :        5.767 s           5.777 s
          | Total time for total energy evaluation     :        0.003 s           0.001 s
          | Total time for vdW correction              :        0.089 s           0.090 s

          Partial memory accounting:
          | Residual value for overall tracked memory usage across tasks :           0.000 MB (should be 0.000 MB)
          | Peak values for overall tracked memory usage (after allocating hessian_basis_wave):
          |   Minimum:        1.612 MB (on task 1)
          |   Maximum:        1.612 MB (on task 1)
          |   Average:        1.612 MB
          | Largest tracked array allocation (hessian_basis_wave):
          |   Minimum:        0.788 MB (on task 1)
          |   Maximum:        0.788 MB (on task 1)
          |   Average:        0.788 MB
          Note:  These values currently only include a subset of arrays which are explicitly tracked.
          The "true" memory usage will be greater.

          Have a nice day.
------------------------------------------------------------
