  MPI-parallelism will be employed.
------------------------------------------------------------
          Invoking FHI-aims ...
          Version 171221_1
          Compiled on 2019/09/09 at 14:39:39 on host puhti-login2.bullx.

          When using FHI-aims, please cite the following reference:

          Volker Blum, Ralf Gehrke, Felix Hanke, Paula Havu,
          Ville Havu, Xinguo Ren, Karsten Reuter, and Matthias Scheffler,
          'Ab Initio Molecular Simulations with Numeric Atom-Centered Orbitals',
          Computer Physics Communications 180, 2175-2196 (2009)

          For any questions about FHI-aims, please visit the aimsclub website
          with its forums and wiki. Contributions to both the forums and the
          wiki are warmly encouraged - they are for you, and everyone is welcome there.

------------------------------------------------------------



  Date     :  20200710, Time     :  144901.718
  Time zero on CPU 1             :   0.112930000000000E-01  s.
  Internal wall clock time zero  :           363624541.718  s.

  FHI-aims created a unique identifier for this run for later identification
  aims_uuid : 1B4B0FA9-9CE5-49FB-A1CB-BE4F346E6D5F

  Using        1 parallel tasks.
  Task        0 on host r18c44.bullx reporting.

  Performing system and environment tests:
  | Environment variable OMP_NUM_THREADS correctly set to 1.
  | Stacksize not measured: no C compiler
  | Checking for scalapack...
  | Testing pdtran()...
  | All pdtran() tests passed.

  Obtaining array dimensions for all initial allocations:
  
  -----------------------------------------------------------------------
  Parsing control.in (first pass over file, find array dimensions only).
  The contents of control.in will be repeated verbatim below
  unless switched off by setting 'verbatim_writeout .false.' .
  in the first line of control.in .
  -----------------------------------------------------------------------
  
  #########################################################################################
  #
  #  Volker Blum, FHI 2009 : Test run input file control.in for simple H2O
  #
  #########################################################################################
  #
  #  Physical model
  #
    xc                 pbe
    vdw_correction_hirshfeld
    spin               none
    relativistic       none
    charge             0.
  #
  #  SCF convergence
  #
    occupation_type    gaussian 0.01
    mixer              pulay
      n_max_pulay        10
      charge_mix_param   0.2
    sc_accuracy_rho    1E-5
    sc_accuracy_eev    1E-3
    sc_accuracy_etot   1E-6
    sc_accuracy_forces 1E-4
    sc_iter_limit      100
  #
  #  Relaxation
  #
  #  relax_geometry   bfgs 1.e-3
  #
  ################################################################################
  #
  #  FHI-aims code project
  #  VB, Fritz-Haber Institut, 2009
  #
  #  Suggested "light" defaults for H atom (to be pasted into control.in file)
  #  Be sure to double-check any results obtained with these settings for post-processing,
  #  e.g., with the "tight" defaults and larger basis sets.
  #
  ################################################################################
    species        H
  #     global species definitions
      nucleus             1
      mass                1.00794
  #
      l_hartree           4
  #
      cut_pot             3.5  1.5  1.0
      basis_dep_cutoff    1e-4
  #
      radial_base         24 5.0
      radial_multiplier   1
      angular_grids       specified
        division   0.2421   50
        division   0.3822  110
        division   0.4799  194
        division   0.5341  302
  #      division   0.5626  434
  #      division   0.5922  590
  #      division   0.6542  770
  #      division   0.6868 1202
  #      outer_grid  770
        outer_grid  302
  ################################################################################
  #
  #  Definition of "minimal" basis
  #
  ################################################################################
  #     valence basis states
      valence      1  s   1.
  #     ion occupancy
      ion_occ      1  s   0.5
  ################################################################################
  #
  #  Suggested additional basis functions. For production calculations,
  #  uncomment them one after another (the most important basis functions are
  #  listed first).
  #
  #  Basis constructed for dimers: 0.5 A, 0.7 A, 1.0 A, 1.5 A, 2.5 A
  #
  ################################################################################
  #  "First tier" - improvements: -1014.90 meV to -62.69 meV
       hydro 2 s 2.1
       hydro 2 p 3.5
  #  "Second tier" - improvements: -12.89 meV to -1.83 meV
  #     hydro 1 s 0.85
  #     hydro 2 p 3.7
  #     hydro 2 s 1.2
  #     hydro 3 d 7
  #  "Third tier" - improvements: -0.25 meV to -0.12 meV
  #     hydro 4 f 11.2
  #     hydro 3 p 4.8
  #     hydro 4 d 9
  #     hydro 3 s 3.2
  ################################################################################
  #
  #  FHI-aims code project
  #  VB, Fritz-Haber Institut, 2009
  #
  #  Suggested "light" defaults for C atom (to be pasted into control.in file)
  #  Be sure to double-check any results obtained with these settings for post-processing,
  #  e.g., with the "tight" defaults and larger basis sets.
  #
  ################################################################################
    species        C
  #     global species definitions
      nucleus             6
      mass                12.0107
  #
      l_hartree           4
  #
      cut_pot             3.5  1.5  1.0
      basis_dep_cutoff    1e-4
  #
      radial_base         34 5.0
      radial_multiplier   1
      angular_grids specified
        division   0.3326   50
        division   0.5710  110
        division   0.7727  194
        division   0.8772  302
  #      division   0.9334  434
  #      division   0.9625  590
  #      division   0.9924  770
  #      division   1.0230  974
  #      division   1.4589 1202
  #     outer_grid  974
       outer_grid 302
  ################################################################################
  #
  #  Definition of "minimal" basis
  #
  ################################################################################
  #     valence basis states
      valence      2  s   2.
      valence      2  p   2.
  #     ion occupancy
      ion_occ      2  s   1.
      ion_occ      2  p   1.
  ################################################################################
  #
  #  Suggested additional basis functions. For production calculations,
  #  uncomment them one after another (the most important basis functions are
  #  listed first).
  #
  #  Constructed for dimers: 1.0 A, 1.25 A, 1.5 A, 2.0 A, 3.0 A
  #
  ################################################################################
  #  "First tier" - improvements: -1214.57 meV to -155.61 meV
       hydro 2 p 1.7
       hydro 3 d 6
       hydro 2 s 4.9
  #  "Second tier" - improvements: -67.75 meV to -5.23 meV
  #     hydro 4 f 9.8
  #     hydro 3 p 5.2
  #     hydro 3 s 4.3
  #     hydro 5 g 14.4
  #     hydro 3 d 6.2
  #  "Third tier" - improvements: -2.43 meV to -0.60 meV
  #     hydro 2 p 5.6
  #     hydro 2 s 1.4
  #     hydro 3 d 4.9
  #     hydro 4 f 11.2
  #  "Fourth tier" - improvements: -0.39 meV to -0.18 meV
  #     hydro 2 p 2.1
  #     hydro 5 g 16.4
  #     hydro 4 d 13.2
  #     hydro 3 s 13.6
  #     hydro 4 f 17.6
  #  Further basis functions - improvements: -0.08 meV and below
  #     hydro 3 s 2
  #     hydro 3 p 6
  #     hydro 4 d 20
  ################################################################################
  #
  #  FHI-aims code project
  #  VB, Fritz-Haber Institut, 2009
  #
  #  Suggested "light" defaults for N atom (to be pasted into control.in file)
  #  Be sure to double-check any results obtained with these settings for post-processing,
  #  e.g., with the "tight" defaults and larger basis sets.
  #
  ################################################################################
    species        N
  #     global species definitions
      nucleus             7
      mass                14.0067
  #
      l_hartree           4
  #
      cut_pot             3.5  1.5  1.0
      basis_dep_cutoff    1e-4
  #
      radial_base         35 5.0
      radial_multiplier   1
      angular_grids       specified
        division   0.2599   50
        division   0.4601  110
        division   0.5885  194
        division   0.6503  302
  #      division   0.6939  434
  #      division   0.7396  590
  #      division   0.7632  770
  #      division   0.8122  974
  #      division   1.1604 1202
  #      outer_grid  974
        outer_grid  302
  ################################################################################
  #
  #  Definition of "minimal" basis
  #
  ################################################################################
  #     valence basis states
      valence      2  s   2.
      valence      2  p   3.
  #     ion occupancy
      ion_occ      2  s   1.
      ion_occ      2  p   2.
  ################################################################################
  #
  #  Suggested additional basis functions. For production calculations,
  #  uncomment them one after another (the most important basis functions are
  #  listed first).
  #
  #  Constructed for dimers: 1.0 A, 1.1 A, 1.5 A, 2.0 A, 3.0 A
  #
  ################################################################################
  #  "First tier" - improvements: -1193.42 meV to -220.60 meV
       hydro 2 p 1.8
       hydro 3 d 6.8
       hydro 3 s 5.8
  #  "Second tier" - improvements: -80.21 meV to -6.86 meV
  #     hydro 4 f 10.8
  #     hydro 3 p 5.8
  #     hydro 1 s 0.8
  #     hydro 5 g 16
  #     hydro 3 d 4.9
  #  "Third tier" - improvements: -4.29 meV to -0.53 meV
  #     hydro 3 s 16
  #     ionic 2 p auto
  #     hydro 3 d 6.6
  #     hydro 4 f 11.6
  #  "Fourth tier" - improvements: -0.75 meV to -0.25 meV
  #     hydro 2 p 4.5
  #     hydro 2 s 2.4
  #     hydro 5 g 14.4
  #     hydro 4 d 14.4
  #     hydro 4 f 16.8
  # Further basis functions - -0.21 meV and below
  #     hydro 3 p 14.8
  #     hydro 3 s 4.4
  #     hydro 3 d 19.6
  #     hydro 5 g 12.8
  ################################################################################
  #
  #  FHI-aims code project
  #  VB, Fritz-Haber Institut, 2009
  #
  #  Suggested "light" defaults for O atom (to be pasted into control.in file)
  #  Be sure to double-check any results obtained with these settings for post-processing,
  #  e.g., with the "tight" defaults and larger basis sets.
  #
  ################################################################################
    species        O
  #     global species definitions
      nucleus             8
      mass                15.9994
  #
      l_hartree           4
  #
      cut_pot             3.5  1.5  1.0
      basis_dep_cutoff    1e-4
  #
      radial_base         36 5.0
      radial_multiplier   1
       angular_grids specified
        division   0.2659   50
        division   0.4451  110
        division   0.6052  194
        division   0.7543  302
  #      division   0.8014  434
  #      division   0.8507  590
  #      division   0.8762  770
  #      division   0.9023  974
  #      division   1.2339 1202
  #      outer_grid 974
        outer_grid 302
  ################################################################################
  #
  #  Definition of "minimal" basis
  #
  ################################################################################
  #     valence basis states
      valence      2  s   2.
      valence      2  p   4.
  #     ion occupancy
      ion_occ      2  s   1.
      ion_occ      2  p   3.
  ################################################################################
  #
  #  Suggested additional basis functions. For production calculations,
  #  uncomment them one after another (the most important basis functions are
  #  listed first).
  #
  #  Constructed for dimers: 1.0 A, 1.208 A, 1.5 A, 2.0 A, 3.0 A
  #
  ################################################################################
  #  "First tier" - improvements: -699.05 meV to -159.38 meV
       hydro 2 p 1.8
       hydro 3 d 7.6
       hydro 3 s 6.4
  #  "Second tier" - improvements: -49.91 meV to -5.39 meV
  #     hydro 4 f 11.6
  #     hydro 3 p 6.2
  #     hydro 3 d 5.6
  #     hydro 5 g 17.6
  #     hydro 1 s 0.75
  #  "Third tier" - improvements: -2.83 meV to -0.50 meV
  #     ionic 2 p auto
  #     hydro 4 f 10.8
  #     hydro 4 d 4.7
  #     hydro 2 s 6.8
  #  "Fourth tier" - improvements: -0.40 meV to -0.12 meV
  #     hydro 3 p 5
  #     hydro 3 s 3.3
  #     hydro 5 g 15.6
  #     hydro 4 f 17.6
  #     hydro 4 d 14
  # Further basis functions - -0.08 meV and below
  #     hydro 3 s 2.1
  #     hydro 4 d 11.6
  #     hydro 3 p 16
  #     hydro 2 s 17.2
  
  -----------------------------------------------------------------------
  Completed first pass over input file control.in .
  -----------------------------------------------------------------------
  
  
  -----------------------------------------------------------------------
  Parsing geometry.in (first pass over file, find array dimensions only).
  The contents of geometry.in will be repeated verbatim below
  unless switched off by setting 'verbatim_writeout .false.' .
  in the first line of geometry.in .
  -----------------------------------------------------------------------
  
  atom  0.00000 0.00000 0.00000 C
  atom  1.09300 0.00000 0.00000 H
  atom  -0.47961 0.00000 -1.41207 N
  atom  -1.00021 -0.86161 -1.58069 H
  atom  -1.08208 0.80833 -1.55264 H
  atom  -0.49584 1.26211 0.72868 C
  atom  -1.58789 1.28919 0.74431 H
  atom  -0.13407 1.27425 1.75947 H
  atom  -0.13407 2.16087 0.22380 H
  atom  -0.39425 -1.28861 0.74398 C
  atom  -0.10189 -1.56493 1.88303 O
  atom  -1.10210 -2.13717 0.06896 O
  atom  -1.49299 -2.62154 0.81567 H
  
  -----------------------------------------------------------------------
  Completed first pass over input file geometry.in .
  -----------------------------------------------------------------------
  

  Basic array size parameters:
  | Number of species                 :        4
  | Number of atoms                   :       13
  | Max. basis fn. angular momentum   :        2
  | Max. atomic/ionic basis occupied n:        2
  | Max. number of basis fn. types    :        2
  | Max. radial fns per species/type  :        3
  | Max. logarithmic grid size        :     1301
  | Max. radial integration grid size :       36
  | Max. angular integration grid size:      302
  | Max. angular grid division number :        8
  | Radial grid for Hartree potential :     1301
  | Number of spin channels           :        1

------------------------------------------------------------
          Reading file control.in.
------------------------------------------------------------
  XC: Using PBE gradient-corrected functionals.
  Spin treatment: No spin polarisation.
  Non-relativistic treatment of kinetic energy.
  Charge =   0.000000E+00: Neutral system requested explicitly.
  Occupation type: Gaussian broadening, width =   0.100000E-01 eV.
  Using pulay charge density mixing.
  Pulay mixing - number of memorized iterations:   10
  Charge density mixing - mixing parameter:     0.2000
  Convergence accuracy of self-consistent charge density:  0.1000E-04
  Convergence accuracy of sum of eigenvalues:  0.1000E-02
  Convergence accuracy of total energy:  0.1000E-05
  Convergence accuracy of forces:  0.1000E-03
  Maximum number of s.-c. iterations  :   100
 
  Reading configuration options for species H                   .
  | Found nuclear charge :   1.0000
  | Found atomic mass :    1.00794000000000      amu
  | Found l_max for Hartree potential  :   4
  | Found cutoff potl. onset [A], width [A], scale factor :    3.50000    1.50000    1.00000
  | Threshold for basis-dependent cutoff potential is   0.100000E-03
  | Found data for basic radial integration grid :    24 points, outermost radius =    5.000 A
  | Found multiplier for basic radial grid :   1
  | Found angular grid specification: user-specified.
  | Specified grid contains     5 separate shells.
  | Check grid settings after all constraints further below.
  | Found free-atom valence shell :  1 s   1.000
  | No ionic wave fns used. Skipping ion_occ.
  | Found hydrogenic basis function :  2 s   2.100
  | Found hydrogenic basis function :  2 p   3.500
  Species H                   : Missing cutoff potential type.
  Defaulting to exp(1/x)/(1-x)^2 type cutoff potential.
  Species H : No 'logarithmic' tag. Using default grid for free atom:
  | Default logarithmic grid data [bohr] : 0.1000E-03 0.1000E+03 0.1012E+01
  Species H : On-site basis accuracy parameter (for Gram-Schmidt orthonormalisation) not specified.
  Using default value basis_acc =  0.1000000E-03.
  Species H                   : Using default innermost maximum threshold i_radial=  2 for radial functions.
  Species H                   : Default cutoff onset for free atom density etc. : 0.35000000E+01 AA.
  Species H                   : Basic radial grid will be enhanced according to radial_multiplier =   1, to contain    24 grid points.
 
  Reading configuration options for species C                   .
  | Found nuclear charge :   6.0000
  | Found atomic mass :    12.0107000000000      amu
  | Found l_max for Hartree potential  :   4
  | Found cutoff potl. onset [A], width [A], scale factor :    3.50000    1.50000    1.00000
  | Threshold for basis-dependent cutoff potential is   0.100000E-03
  | Found data for basic radial integration grid :    34 points, outermost radius =    5.000 A
  | Found multiplier for basic radial grid :   1
  | Found angular grid specification: user-specified.
  | Specified grid contains     5 separate shells.
  | Check grid settings after all constraints further below.
  | Found free-atom valence shell :  2 s   2.000
  | Found free-atom valence shell :  2 p   2.000
  | No ionic wave fns used. Skipping ion_occ.
  | No ionic wave fns used. Skipping ion_occ.
  | Found hydrogenic basis function :  2 p   1.700
  | Found hydrogenic basis function :  3 d   6.000
  | Found hydrogenic basis function :  2 s   4.900
  Species C                   : Missing cutoff potential type.
  Defaulting to exp(1/x)/(1-x)^2 type cutoff potential.
  Species C : No 'logarithmic' tag. Using default grid for free atom:
  | Default logarithmic grid data [bohr] : 0.1000E-03 0.1000E+03 0.1012E+01
  Species C : On-site basis accuracy parameter (for Gram-Schmidt orthonormalisation) not specified.
  Using default value basis_acc =  0.1000000E-03.
  Species C                   : Using default innermost maximum threshold i_radial=  2 for radial functions.
  Species C                   : Default cutoff onset for free atom density etc. : 0.35000000E+01 AA.
  Species C                   : Basic radial grid will be enhanced according to radial_multiplier =   1, to contain    34 grid points.
 
  Reading configuration options for species N                   .
  | Found nuclear charge :   7.0000
  | Found atomic mass :    14.0067000000000      amu
  | Found l_max for Hartree potential  :   4
  | Found cutoff potl. onset [A], width [A], scale factor :    3.50000    1.50000    1.00000
  | Threshold for basis-dependent cutoff potential is   0.100000E-03
  | Found data for basic radial integration grid :    35 points, outermost radius =    5.000 A
  | Found multiplier for basic radial grid :   1
  | Found angular grid specification: user-specified.
  | Specified grid contains     5 separate shells.
  | Check grid settings after all constraints further below.
  | Found free-atom valence shell :  2 s   2.000
  | Found free-atom valence shell :  2 p   3.000
  | No ionic wave fns used. Skipping ion_occ.
  | No ionic wave fns used. Skipping ion_occ.
  | Found hydrogenic basis function :  2 p   1.800
  | Found hydrogenic basis function :  3 d   6.800
  | Found hydrogenic basis function :  3 s   5.800
  Species N                   : Missing cutoff potential type.
  Defaulting to exp(1/x)/(1-x)^2 type cutoff potential.
  Species N : No 'logarithmic' tag. Using default grid for free atom:
  | Default logarithmic grid data [bohr] : 0.1000E-03 0.1000E+03 0.1012E+01
  Species N : On-site basis accuracy parameter (for Gram-Schmidt orthonormalisation) not specified.
  Using default value basis_acc =  0.1000000E-03.
  Species N                   : Using default innermost maximum threshold i_radial=  2 for radial functions.
  Species N                   : Default cutoff onset for free atom density etc. : 0.35000000E+01 AA.
  Species N                   : Basic radial grid will be enhanced according to radial_multiplier =   1, to contain    35 grid points.
 
  Reading configuration options for species O                   .
  | Found nuclear charge :   8.0000
  | Found atomic mass :    15.9994000000000      amu
  | Found l_max for Hartree potential  :   4
  | Found cutoff potl. onset [A], width [A], scale factor :    3.50000    1.50000    1.00000
  | Threshold for basis-dependent cutoff potential is   0.100000E-03
  | Found data for basic radial integration grid :    36 points, outermost radius =    5.000 A
  | Found multiplier for basic radial grid :   1
  | Found angular grid specification: user-specified.
  | Specified grid contains     5 separate shells.
  | Check grid settings after all constraints further below.
  | Found free-atom valence shell :  2 s   2.000
  | Found free-atom valence shell :  2 p   4.000
  | No ionic wave fns used. Skipping ion_occ.
  | No ionic wave fns used. Skipping ion_occ.
  | Found hydrogenic basis function :  2 p   1.800
  | Found hydrogenic basis function :  3 d   7.600
  | Found hydrogenic basis function :  3 s   6.400
  Species O                   : Missing cutoff potential type.
  Defaulting to exp(1/x)/(1-x)^2 type cutoff potential.
  Species O : No 'logarithmic' tag. Using default grid for free atom:
  | Default logarithmic grid data [bohr] : 0.1000E-03 0.1000E+03 0.1012E+01
  Species O : On-site basis accuracy parameter (for Gram-Schmidt orthonormalisation) not specified.
  Using default value basis_acc =  0.1000000E-03.
  Species O                   : Using default innermost maximum threshold i_radial=  2 for radial functions.
  Species O                   : Default cutoff onset for free atom density etc. : 0.35000000E+01 AA.
  Species O                   : Basic radial grid will be enhanced according to radial_multiplier =   1, to contain    36 grid points.
 
  Finished reading input file 'control.in'. Consistency checks are next.
 
  MPI_IN_PLACE appears to work with this MPI implementation.
  | Keeping use_mpi_in_place .true. (see manual).
  Target number of points in a grid batch is not set. Defaulting to  100
  Method for grid partitioning is not set. Defaulting to parallel hash+maxmin partitioning.
  Batch size limit is not set. Defaulting to    200
  By default, will store active basis functions for each batch.
  If in need of memory, prune_basis_once .false. can be used to disable this option.
  communication_type for Hartree potential was not specified.
  Defaulting to calc_hartree .
  Pulay mixer: Number of initial linear mixing iterations not set.
  Defaulting to    0 iterations.
  Work space size for distributed Hartree potential not set.
  Defaulting to   0.200000E+03 MB.
  Algorithm-dependent basis array size parameters:
  | n_max_pulay                         :       10
  Presetting      1001 iterations before the initial mixing cycle
  is restarted anyway using the sc_init_iter criterion / keyword.
  Presetting a factor      1.000 between actual scf density residual
  and density convergence criterion sc_accuracy_rho below which sc_init_iter
  takes no effect.
  Geometry relaxation not requested: no relaxation will be performed.
  Handling of forces: Unphysical translation and rotation will be removed from forces.
  No accuracy limit for integral partition fn. given. Defaulting to  0.1000E-14.
  No threshold value for u(r) in integrations given. Defaulting to  0.1000E-05.
  No accuracy for occupation numbers given. Defaulting to  0.1000E-12.
  No threshold value for occupation numbers given. Defaulting to  0.0000E+00.
  No accuracy for fermi level given. Defaulting to  0.1000E-19.
  Maximum # of iterations to find E_F not set. Defaulting to  200.
  Preferred method for the eigenvalue solver ('KS_method') not specified in 'control.in'.
  Defaulting to serial version, 'lapack_fast'.
  Will not use alltoall communication since running on < 1024 CPUs.
  Threshold for basis singularities not set.
  Default threshold for basis singularities:  0.1000E-04
  partition_type (choice of integration weights) for integrals was not specified.
  | Using a version of the partition function of Stratmann and coworkers ('stratmann_smoother').
  | At each grid point, the set of atoms used to build the partition table is smoothly restricted to
  | only those atoms whose free-atom density would be non-zero at that grid point.
  Partitioning for Hartree potential was not defined. Using partition_type for integrals.
  | Adjusted default value of keyword multip_moments_threshold to:       0.10000000E-11
  | This value may affect high angular momentum components of the Hartree potential in periodic systems.
  No q(lm)/r^(l+1) cutoff set for long-range Hartree potential.
  | Using default value of  0.100000E-09 .
  | Verify using the multipole_threshold keyword.
  Defaulting to new monopole extrapolation.
  Density update method: automatic selection selected.
------------------------------------------------------------


------------------------------------------------------------
          Reading geometry description geometry.in.
------------------------------------------------------------
  Input structure read successfully.
  The structure contains       13 atoms,  and a total of         48.000 electrons.

  Input geometry:
  | No unit cell requested.
  | Atomic structure:
  |       Atom                x [A]            y [A]            z [A]
  |    1: Species C             0.00000000        0.00000000        0.00000000
  |    2: Species H             1.09300000        0.00000000        0.00000000
  |    3: Species N            -0.47961000        0.00000000       -1.41207000
  |    4: Species H            -1.00021000       -0.86161000       -1.58069000
  |    5: Species H            -1.08208000        0.80833000       -1.55264000
  |    6: Species C            -0.49584000        1.26211000        0.72868000
  |    7: Species H            -1.58789000        1.28919000        0.74431000
  |    8: Species H            -0.13407000        1.27425000        1.75947000
  |    9: Species H            -0.13407000        2.16087000        0.22380000
  |   10: Species C            -0.39425000       -1.28861000        0.74398000
  |   11: Species O            -0.10189000       -1.56493000        1.88303000
  |   12: Species O            -1.10210000       -2.13717000        0.06896000
  |   13: Species H            -1.49299000       -2.62154000        0.81567000
  |

  | The smallest distance between any two atoms is         0.97210345 AA.
  |
  | The first atom of this pair is atom number                     12 .
  | The second atom of this pair is atom number                    13 .

  Number of empty states per atom not set in control.in - providing a guess from actual geometry.
  | Total number of empty states used during s.c.f. cycle:       29
  If you use a very high smearing, use empty_states (per atom!) in control.in to increase this value.

  Structure-dependent array size parameters: 
  | Maximum number of distinct radial functions  :       21
  | Maximum number of basis functions            :      119
  | Number of Kohn-Sham states (occupied + empty):       53
------------------------------------------------------------

------------------------------------------------------------
          Preparing all fixed parts of the calculation.
------------------------------------------------------------
  Determining machine precision:
    2.225073858507201E-308
  Setting up grids for atomic and cluster calculations.

  Creating wave function, potential, and density for free atoms.

  Species: H

  List of occupied orbitals and eigenvalues:
    n    l              occ      energy [Ha]    energy [eV]
    1    0           1.0000        -0.237589        -6.4651


  Species: C

  List of occupied orbitals and eigenvalues:
    n    l              occ      energy [Ha]    energy [eV]
    1    0           2.0000       -10.038835      -273.1706
    2    0           2.0000        -0.502696       -13.6791
    2    1           2.0000        -0.191971        -5.2238


  Species: N

  List of occupied orbitals and eigenvalues:
    n    l              occ      energy [Ha]    energy [eV]
    1    0           2.0000       -14.128000      -384.4424
    2    0           2.0000        -0.681077       -18.5330
    2    1           3.0000        -0.259788        -7.0692


  Species: O

  List of occupied orbitals and eigenvalues:
    n    l              occ      energy [Ha]    energy [eV]
    1    0           2.0000       -18.898188      -514.2459
    2    0           2.0000        -0.878505       -23.9053
    2    1           4.0000        -0.331779        -9.0282

  Creating fixed part of basis set: Ionic, confined, hydrogenic.
 
  H                    hydrogenic:
 
  List of hydrogenic basis orbitals: 
    n    l      effective z      eigenvalue [eV]  inner max. [A]     outer max. [A]     outer radius [A]   
    2    0         2.100000       -14.9728           0.193243           1.317208           4.583499
    2    1         3.500000       -41.6669           0.602369           0.602369           3.723403
 
 
  C                    hydrogenic:
 
  List of hydrogenic basis orbitals: 
    n    l      effective z      eigenvalue [eV]  inner max. [A]     outer max. [A]     outer radius [A]   
    2    1         1.700000        -9.7616           1.230570           1.230570           4.607917
    3    2         6.000000       -54.4224           0.792453           0.792453           3.883070
    2    0         4.900000       -81.6679           0.082559           0.562749           3.078220
 
 
  N                    hydrogenic:
 
  List of hydrogenic basis orbitals: 
    n    l      effective z      eigenvalue [eV]  inner max. [A]     outer max. [A]     outer radius [A]   
    2    1         1.800000       -10.9749           1.177451           1.177451           4.573712
    3    2         6.800000       -69.9026           0.704619           0.704619           3.538137
    3    0         5.800000       -50.8545           0.067388           1.191934           4.250239
 
 
  O                    hydrogenic:
 
  List of hydrogenic basis orbitals: 
    n    l      effective z      eigenvalue [eV]  inner max. [A]     outer max. [A]     outer radius [A]   
    2    1         1.800000       -10.9749           1.164242           1.164242           4.578029
    3    2         7.600000       -87.3180           0.624125           0.624125           3.251020
    3    0         6.400000       -61.9207           0.061167           1.081902           4.001998
 

  Adding cutoff potential to free-atom effective potential.
  Creating atomic-like basis functions for current effective potential.

  Species H                   :

  List of atomic basis orbitals and eigenvalues:
    n    l      energy [Ha]    energy [eV]    outer radius [A]
    1    0        -0.237589        -6.4651       4.527807


  Species C                   :

  List of atomic basis orbitals and eigenvalues:
    n    l      energy [Ha]    energy [eV]    outer radius [A]
    1    0       -10.038835      -273.1706       1.934409
    2    0        -0.502696       -13.6791       4.496620
    2    1        -0.191971        -5.2238       4.551928


  Species N                   :

  List of atomic basis orbitals and eigenvalues:
    n    l      energy [Ha]    energy [eV]    outer radius [A]
    1    0       -14.128000      -384.4424       1.637919
    2    0        -0.681077       -18.5330       4.463241
    2    1        -0.259788        -7.0692       4.518138


  Species O                   :

  List of atomic basis orbitals and eigenvalues:
    n    l      energy [Ha]    energy [eV]    outer radius [A]
    1    0       -18.898188      -514.2459       1.415765
    2    0        -0.878505       -23.9053       4.413171
    2    1        -0.331779        -9.0282       4.522403

  Assembling full basis from fixed parts.
  | Species H :   atomic orbital   1 s accepted.
  | Species H :    hydro orbital   2 s accepted.
  | Species H :    hydro orbital   2 p accepted.
  | Species C :   atomic orbital   1 s accepted.
  | Species C :    hydro orbital   2 s accepted.
  | Species C :   atomic orbital   2 s accepted.
  | Species C :   atomic orbital   2 p accepted.
  | Species C :    hydro orbital   2 p accepted.
  | Species C :    hydro orbital   3 d accepted.
  | Species N :   atomic orbital   1 s accepted.
  | Species N :    hydro orbital   3 s accepted.
  | Species N :   atomic orbital   2 s accepted.
  | Species N :   atomic orbital   2 p accepted.
  | Species N :    hydro orbital   2 p accepted.
  | Species N :    hydro orbital   3 d accepted.
  | Species O :   atomic orbital   1 s accepted.
  | Species O :    hydro orbital   3 s accepted.
  | Species O :   atomic orbital   2 s accepted.
  | Species O :   atomic orbital   2 p accepted.
  | Species O :    hydro orbital   2 p accepted.
  | Species O :    hydro orbital   3 d accepted.
 
  Basis size parameters after reduction:
  | Total number of radial functions:       21
  | Total number of basis functions :      119
 
  Per-task memory consumption for arrays in subroutine allocate_ext:
  |           5.250512MB.
  Testing on-site integration grid accuracy.
  |  Species  Function  <phi|h_atom|phi> (log., in eV)  <phi|h_atom|phi> (rad., in eV)
           1        1                 -6.4663192853                 -6.4651273558
           1        2                 13.7111246313                 13.7170609718
           1        3                 25.2673269279                 25.2674696378
           2        4               -273.1705927641               -273.1705631568
           2        5                -10.7109323383                -10.7107120029
           2        6                 17.4381822266                 17.4352413244
           2        7                 -5.2255326521                 -5.2270484734
           2        8                  8.6835629259                  8.6603288385
           2        9                 27.4952418996                 27.4953360207
           3       10               -384.4424306495               -384.4423701208
           3       11                 12.5842251816                 12.5842222903
           3       12                -15.7264628251                -15.7264433455
           3       13                 -7.0696854293                 -7.0701769954
           3       14                  8.8090390882                  8.7901077751
           3       15                 35.9586762123                 35.9588528632
           4       16               -514.2458688638               -514.2457643834
           4       17                 15.1795651126                 15.1795290741
           4       18                -21.5359799773                -21.5360846186
           4       19                 -9.0283069236                 -9.0284644067
           4       20                  8.3027758564                  8.2834874195
           4       21                 45.8339351984                 45.8338762259

  Preparing densities etc. for the partition functions (integrals / Hartree potential).

  Preparations completed.
  max(cpu_time)          :      0.146 s.
  Wall clock time (cpu1) :      0.147 s.
------------------------------------------------------------

------------------------------------------------------------
          Begin self-consistency loop: Initialization.

          Date     :  20200710, Time     :  144901.880
------------------------------------------------------------

  Initializing index lists of integration centers etc. from given atomic structure:
  | Number of centers in hartree potential         :        13
  | Number of centers in hartree multipole         :        13
  | Number of centers in electron density summation:        13
  | Number of centers in basis integrals           :        13
  | Number of centers in integrals                 :        13
  | Number of centers in hamiltonian               :        13
  Partitioning the integration grid into batches with parallel hashing+maxmin method.
  | Number of batches:      955
  | Maximal batch size:     139
  | Minimal batch size:      66
  | Average batch size:      72.928
  | Standard deviation of batch sizes:      17.667

  Integration load balanced across     1 MPI tasks.
  Work distribution over tasks is as follows:
  Task     0 has      69646 integration points.
  Initializing partition tables, free-atom densities, potentials, etc. across the integration grid (initialize_grid_storage).
  | initialize_grid_storage: Actual outermost partition radius vs. multipole_radius_free
  | (-- VB: in principle, multipole_radius_free should be larger, hence this output)
  | Species        1: Confinement radius =              4.999999999999999 AA, multipole_radius_free =              5.054417573612229 AA.
  | Species        1: outer_partition_radius set to              5.054417573612229 AA .
  | Species        2: Confinement radius =              4.999999999999999 AA, multipole_radius_free =              5.019602836301480 AA.
  | Species        2: outer_partition_radius set to              5.019602836301480 AA .
  | Species        3: Confinement radius =              4.999999999999999 AA, multipole_radius_free =              5.043624274424571 AA.
  | Species        3: outer_partition_radius set to              5.043624274424571 AA .
  | Species        4: Confinement radius =              4.999999999999999 AA, multipole_radius_free =              5.048384829883283 AA.
  | Species        4: outer_partition_radius set to              5.048384829883283 AA .
  | Original list of interatomic distances with          13 x         13 entries is created.
  | Net number of integration points:    69646
  | of which are non-zero points    :    59574
  Renormalizing the initial density to the exact electron count on the 3D integration grid.
  | Initial density: Formal number of electrons (from input files) :      48.0000000000
  | Integrated number of electrons on 3D grid     :      47.9999358762
  | Charge integration error                      :      -0.0000641238
  | Normalization factor for density and gradient :       1.0000013359
  Obtaining max. number of non-zero basis functions in each batch (get_n_compute_maxes).
  | Maximal number of non-zero basis functions:      119 in task     0
  Selecting the method for density update.
  Loop over occupied states selected for charge density update.
  Allocating        0.050 MB for KS_eigenvector
  Integrating Hamiltonian matrix: batch-based integration.
  Time summed over all CPUs for integration: real work        0.494 s, elapsed        0.494 s
  Integrating overlap matrix.
  Time summed over all CPUs for integration: real work        0.212 s, elapsed        0.212 s

  Updating Kohn-Sham eigenvalues and eigenvectors using ELSI and the ELPA eigensolver.
  Overlap matrix is nonsingular
  | Lowest eigenvalue of overlap  :  0.50E-02
  | Highest eigenvalue of overlap :  0.62E+01
  Finished singularity check of overlap matrix
  | Time :     0.002 s
  Finished Cholesky decomposition
  | Time :     0.000 s
  Finished transformation to standard eigenproblem
  | Time :     0.000 s
  Starting LAPACK eigensolver
  Finished solving standard eigenproblem
  | Time :     0.002 s
  Finished back-transformation of eigenvectors
  | Time :     0.000 s

  Obtaining occupation numbers and chemical potential using ELSI.
  | Chemical potential (Fermi level):   -10.16407768eV
  Writing Kohn-Sham eigenvalues.

  State    Occupation    Eigenvalue [Ha]    Eigenvalue [eV]
      1       2.00000         -19.008480         -517.24706
      2       2.00000         -18.978219         -516.42361
      3       2.00000         -14.245788         -387.64762
      4       2.00000         -10.166901         -276.65547
      5       2.00000         -10.141238         -275.95712
      6       2.00000         -10.132157         -275.71003
      7       2.00000          -1.188596          -32.34335
      8       2.00000          -1.093841          -29.76491
      9       2.00000          -0.992293          -27.00167
     10       2.00000          -0.859319          -23.38327
     11       2.00000          -0.763531          -20.77675
     12       2.00000          -0.682754          -18.57868
     13       2.00000          -0.621843          -16.92122
     14       2.00000          -0.603528          -16.42283
     15       2.00000          -0.585159          -15.92298
     16       2.00000          -0.574391          -15.62998
     17       2.00000          -0.547710          -14.90395
     18       2.00000          -0.525806          -14.30792
     19       2.00000          -0.516207          -14.04671
     20       2.00000          -0.504352          -13.72412
     21       2.00000          -0.478015          -13.00744
     22       2.00000          -0.429069          -11.67557
     23       2.00000          -0.411942          -11.20953
     24       2.00000          -0.381614          -10.38424
     25       0.00000          -0.151408           -4.12002
     26       0.00000          -0.056748           -1.54418
     27       0.00000          -0.027170           -0.73935
     28       0.00000          -0.021929           -0.59672
     29       0.00000           0.000574            0.01561
     30       0.00000           0.007529            0.20487
     31       0.00000           0.019997            0.54416
     32       0.00000           0.032450            0.88300
     33       0.00000           0.038657            1.05190
     34       0.00000           0.061968            1.68624
     35       0.00000           0.097929            2.66479
     36       0.00000           0.132633            3.60914
     37       0.00000           0.154208            4.19621
     38       0.00000           0.194888            5.30317
     39       0.00000           0.207274            5.64022
     40       0.00000           0.241348            6.56741
     41       0.00000           0.260444            7.08705
     42       0.00000           0.280807            7.64116
     43       0.00000           0.296103            8.05737
     44       0.00000           0.306699            8.34570
     45       0.00000           0.332833            9.05686
     46       0.00000           0.354621            9.64972
     47       0.00000           0.377401           10.26960
     48       0.00000           0.386671           10.52186
     49       0.00000           0.454003           12.35404
     50       0.00000           0.494729           13.46225
     51       0.00000           0.523635           14.24884
     52       0.00000           0.536529           14.59969
     53       0.00000           0.542950           14.77443

  Highest occupied state (VBM) at    -10.38423749 eV
  | Occupation number:      2.00000000

  Lowest unoccupied state (CBM) at    -4.12002043 eV
  | Occupation number:      0.00000000

  Overall HOMO-LUMO gap:      6.26421707 eV.
  Calculating total energy contributions from superposition of free atom densities.

  Total energy components:
  | Sum of eigenvalues            :        -188.86550950 Ha       -5139.29199776 eV
  | XC energy correction          :         -41.79493441 Ha       -1137.29803034 eV
  | XC potential correction       :          53.72861648 Ha        1462.03004165 eV
  | Free-atom electrostatic energy:        -146.83673719 Ha       -3995.63091445 eV
  | Hartree energy correction     :           0.00000000 Ha           0.00000000 eV
  | vdW energy correction         :           0.00000000 Ha           0.00000000 eV
  | Entropy correction            :          -0.00000000 Ha          -0.00000000 eV
  | ---------------------------
  | Total energy                  :        -323.76856462 Ha       -8810.19090090 eV
  | Total energy, T -> 0          :        -323.76856462 Ha       -8810.19090090 eV  <-- do not rely on this value for anything but (periodic) metals
  | Electronic free energy        :        -323.76856462 Ha       -8810.19090090 eV

  Derived energy quantities:
  | Kinetic energy                :         320.50147331 Ha        8721.28882319 eV
  | Electrostatic energy          :        -602.47510353 Ha      -16394.18169375 eV
  | Energy correction for multipole
  | error in Hartree potential    :           0.00000000 Ha           0.00000000 eV
  | Sum of eigenvalues per atom                           :        -395.33015367 eV
  | Total energy (T->0) per atom                          :        -677.70699238 eV  <-- do not rely on this value for anything but (periodic) metals
  | Electronic free energy per atom                       :        -677.70699238 eV
  Initialize hartree_potential_storage
  Max. number of atoms included in rho_multipole:           13

  End scf initialization - timings             :  max(cpu_time)    wall_clock(cpu1)
  | Time for scf. initialization               :        1.151 s           1.152 s
  | Boundary condition initialization          :        0.000 s           0.000 s
  | Integration                                :        0.707 s           0.707 s
  | Solution of K.-S. eqns.                    :        0.004 s           0.004 s
  | Grid partitioning                          :        0.112 s           0.112 s
  | Preloading free-atom quantities on grid    :        0.002 s           0.003 s
  | Free-atom superposition energy             :        0.085 s           0.084 s
  | Total energy evaluation                    :        0.000 s           0.001 s

  Partial memory accounting:
  | Current value for overall tracked memory usage on task 0  :           0.165 MB
  | Peak value for overall tracked memory usage on task 0     :           0.678 MB after allocating wave
  | Largest tracked array allocation on task 0 so far         :           0.132 MB  when allocating H_times_psi
  Note:  These values currently only include a subset of arrays which are explicitly tracked.
  The "true" memory usage will be greater.
------------------------------------------------------------

------------------------------------------------------------
          Begin self-consistency iteration #    1

  Date     :  20200710, Time     :  144903.032
------------------------------------------------------------
  Evaluating new KS density.
  Integration grid: deviation in total charge (<rho> - N_e) =  -2.131628E-14
  Pulay mixing of updated and previous charge densities.

  Evaluating partitioned Hartree potential by multipole expansion.
  | Analytical far-field extrapolation by fixed multipoles:
  | Hartree multipole sum: apparent total charge =  -0.168591E-03
  Summing up the Hartree potential.
  Time summed over all CPUs for potential: real work        0.287 s, elapsed        0.287 s
  | RMS charge density error from multipole expansion :   0.595243E-02

  Integrating Hamiltonian matrix: batch-based integration.
  Time summed over all CPUs for integration: real work        0.495 s, elapsed        0.495 s

  Updating Kohn-Sham eigenvalues and eigenvectors using ELSI and the ELPA eigensolver.
  Finished Cholesky decomposition
  | Time :     0.000 s
  Finished transformation to standard eigenproblem
  | Time :     0.000 s
  Starting LAPACK eigensolver
  Finished solving standard eigenproblem
  | Time :     0.002 s
  Finished back-transformation of eigenvectors
  | Time :     0.000 s

  Obtaining occupation numbers and chemical potential using ELSI.
  | Chemical potential (Fermi level):    -5.00771443eV
  Writing Kohn-Sham eigenvalues.

  State    Occupation    Eigenvalue [Ha]    Eigenvalue [eV]
      1       2.00000         -18.911459         -514.60698
      2       2.00000         -18.839553         -512.65033
      3       2.00000         -14.092830         -383.48541
      4       2.00000         -10.117186         -275.30264
      5       2.00000         -10.061519         -273.78787
      6       2.00000         -10.033301         -273.02000
      7       2.00000          -1.142630          -31.09253
      8       2.00000          -1.033501          -28.12298
      9       2.00000          -0.920653          -25.05224
     10       2.00000          -0.792895          -21.57576
     11       2.00000          -0.714459          -19.44143
     12       2.00000          -0.636338          -17.31565
     13       2.00000          -0.565353          -15.38404
     14       2.00000          -0.545324          -14.83902
     15       2.00000          -0.526418          -14.32456
     16       2.00000          -0.514832          -14.00930
     17       2.00000          -0.491608          -13.37733
     18       2.00000          -0.468164          -12.73938
     19       2.00000          -0.453769          -12.34767
     20       2.00000          -0.444847          -12.10490
     21       2.00000          -0.425233          -11.57117
     22       2.00000          -0.370863          -10.09171
     23       2.00000          -0.340578           -9.26759
     24       2.00000          -0.308007           -8.38129
     25       0.00000          -0.115949           -3.15513
     26       0.00000          -0.031452           -0.85584
     27       0.00000           0.001390            0.03783
     28       0.00000           0.016601            0.45174
     29       0.00000           0.031692            0.86238
     30       0.00000           0.047297            1.28701
     31       0.00000           0.057870            1.57471
     32       0.00000           0.068742            1.87057
     33       0.00000           0.076816            2.09026
     34       0.00000           0.104649            2.84764
     35       0.00000           0.140106            3.81249
     36       0.00000           0.159585            4.34254
     37       0.00000           0.179050            4.87220
     38       0.00000           0.221152            6.01786
     39       0.00000           0.235628            6.41176
     40       0.00000           0.280416            7.63052
     41       0.00000           0.293885            7.99703
     42       0.00000           0.314611            8.56100
     43       0.00000           0.335810            9.13785
     44       0.00000           0.347153            9.44651
     45       0.00000           0.367393            9.99726
     46       0.00000           0.395126           10.75194
     47       0.00000           0.413481           11.25140
     48       0.00000           0.424585           11.55356
     49       0.00000           0.487588           13.26795
     50       0.00000           0.530376           14.43226
     51       0.00000           0.557430           15.16844
     52       0.00000           0.574028           15.62011
     53       0.00000           0.577247           15.70770

  Highest occupied state (VBM) at     -8.38129454 eV
  | Occupation number:      2.00000000

  Lowest unoccupied state (CBM) at    -3.15513140 eV
  | Occupation number:      0.00000000

  Overall HOMO-LUMO gap:      5.22616314 eV.

  Total energy components:
  | Sum of eigenvalues            :        -185.50263653 Ha       -5047.78356836 eV
  | XC energy correction          :         -42.12153833 Ha       -1146.18537518 eV
  | XC potential correction       :          54.15335399 Ha        1473.58773737 eV
  | Free-atom electrostatic energy:        -146.83673719 Ha       -3995.63091445 eV
  | Hartree energy correction     :          -3.28250978 Ha         -89.32163581 eV
  | vdW energy correction         :           0.00000000 Ha           0.00000000 eV
  | Entropy correction            :           0.00000000 Ha           0.00000000 eV
  | ---------------------------
  | Total energy                  :        -323.59006784 Ha       -8805.33375643 eV
  | Total energy, T -> 0          :        -323.59006784 Ha       -8805.33375643 eV  <-- do not rely on this value for anything but (periodic) metals
  | Electronic free energy        :        -323.59006784 Ha       -8805.33375643 eV

  Derived energy quantities:
  | Kinetic energy                :         322.28022884 Ha        8769.69122375 eV
  | Electrostatic energy          :        -603.74875836 Ha      -16428.83960500 eV
  | Energy correction for multipole
  | error in Hartree potential    :           0.01210205 Ha           0.32931364 eV
  | Sum of eigenvalues per atom                           :        -388.29104372 eV
  | Total energy (T->0) per atom                          :        -677.33336588 eV  <-- do not rely on this value for anything but (periodic) metals
  | Electronic free energy per atom                       :        -677.33336588 eV

  Self-consistency convergence accuracy:
  | Change of charge density      :  0.5810E+00
  | Change of sum of eigenvalues  :  0.9151E+02 eV
  | Change of total energy        :  0.4857E+01 eV

  End self-consistency iteration #     1       :  max(cpu_time)    wall_clock(cpu1)
  | Time for this iteration                    :        1.188 s           1.195 s
  | Charge density update                      :        0.394 s           0.394 s
  | Density mixing                             :        0.005 s           0.006 s
  | Hartree multipole update                   :        0.009 s           0.009 s
  | Hartree multipole summation                :        0.283 s           0.288 s
  | Integration                                :        0.495 s           0.495 s
  | Solution of K.-S. eqns.                    :        0.002 s           0.002 s
  | Total energy evaluation                    :        0.000 s           0.001 s

  Partial memory accounting:
  | Current value for overall tracked memory usage on task 0  :           0.165 MB
  | Peak value for overall tracked memory usage on task 0     :           0.695 MB after allocating gradient_basis_wave
  | Largest tracked array allocation on task 0 so far         :           0.397 MB  when allocating gradient_basis_wave
  Note:  These values currently only include a subset of arrays which are explicitly tracked.
  The "true" memory usage will be greater.
------------------------------------------------------------

------------------------------------------------------------
          Begin self-consistency iteration #    2

  Date     :  20200710, Time     :  144904.229
------------------------------------------------------------
  Evaluating new KS density.
  Integration grid: deviation in total charge (<rho> - N_e) =   2.842171E-14
  Pulay mixing of updated and previous charge densities.

  Evaluating partitioned Hartree potential by multipole expansion.
  | Analytical far-field extrapolation by fixed multipoles:
  | Hartree multipole sum: apparent total charge =  -0.302056E-03
  Summing up the Hartree potential.
  Time summed over all CPUs for potential: real work        0.281 s, elapsed        0.281 s
  | RMS charge density error from multipole expansion :   0.142728E-01

  Integrating Hamiltonian matrix: batch-based integration.
  Time summed over all CPUs for integration: real work        0.494 s, elapsed        0.494 s

  Updating Kohn-Sham eigenvalues and eigenvectors using ELSI and the ELPA eigensolver.
  Finished Cholesky decomposition
  | Time :     0.000 s
  Finished transformation to standard eigenproblem
  | Time :     0.000 s
  Starting LAPACK eigensolver
  Finished solving standard eigenproblem
  | Time :     0.001 s
  Finished back-transformation of eigenvectors
  | Time :     0.000 s

  Obtaining occupation numbers and chemical potential using ELSI.
  | Chemical potential (Fermi level):    -3.77808539eV
  Highest occupied state (VBM) at     -6.30821904 eV
  | Occupation number:      2.00000000

  Lowest unoccupied state (CBM) at    -1.90658087 eV
  | Occupation number:      0.00000000

  Overall HOMO-LUMO gap:      4.40163817 eV.

  Checking to see if s.c.f. parameters should be adjusted.

  Total energy components:
  | Sum of eigenvalues            :        -181.91705391 Ha       -4950.21490098 eV
  | XC energy correction          :         -42.48497011 Ha       -1156.07485725 eV
  | XC potential correction       :          54.62443734 Ha        1486.40656749 eV
  | Free-atom electrostatic energy:        -146.83673719 Ha       -3995.63091445 eV
  | Hartree energy correction     :          -6.89859818 Ha        -187.72040753 eV
  | vdW energy correction         :           0.00000000 Ha           0.00000000 eV
  | Entropy correction            :           0.00000000 Ha           0.00000000 eV
  | ---------------------------
  | Total energy                  :        -323.51292205 Ha       -8803.23451272 eV
  | Total energy, T -> 0          :        -323.51292205 Ha       -8803.23451272 eV  <-- do not rely on this value for anything but (periodic) metals
  | Electronic free energy        :        -323.51292205 Ha       -8803.23451272 eV

  Derived energy quantities:
  | Kinetic energy                :         323.61680720 Ha        8806.06137145 eV
  | Electrostatic energy          :        -604.64475914 Ha      -16453.22102692 eV
  | Energy correction for multipole
  | error in Hartree potential    :           0.02692964 Ha           0.73279286 eV
  | Sum of eigenvalues per atom                           :        -380.78576161 eV
  | Total energy (T->0) per atom                          :        -677.17188559 eV  <-- do not rely on this value for anything but (periodic) metals
  | Electronic free energy per atom                       :        -677.17188559 eV

  Self-consistency convergence accuracy:
  | Change of charge density      :  0.3632E+00
  | Change of sum of eigenvalues  :  0.9757E+02 eV
  | Change of total energy        :  0.2099E+01 eV

  End self-consistency iteration #     2       :  max(cpu_time)    wall_clock(cpu1)
  | Time for this iteration                    :        1.180 s           1.182 s
  | Charge density update                      :        0.387 s           0.388 s
  | Density mixing                             :        0.007 s           0.007 s
  | Hartree multipole update                   :        0.009 s           0.008 s
  | Hartree multipole summation                :        0.282 s           0.282 s
  | Integration                                :        0.494 s           0.494 s
  | Solution of K.-S. eqns.                    :        0.002 s           0.002 s
  | Total energy evaluation                    :        0.000 s           0.000 s

  Partial memory accounting:
  | Current value for overall tracked memory usage on task 0  :           0.166 MB
  | Peak value for overall tracked memory usage on task 0     :           0.695 MB after allocating gradient_basis_wave
  | Largest tracked array allocation on task 0 so far         :           0.397 MB  when allocating gradient_basis_wave
  Note:  These values currently only include a subset of arrays which are explicitly tracked.
  The "true" memory usage will be greater.
------------------------------------------------------------

------------------------------------------------------------
          Begin self-consistency iteration #    3

  Date     :  20200710, Time     :  144905.414
------------------------------------------------------------
  Evaluating new KS density.
  Integration grid: deviation in total charge (<rho> - N_e) =   0.000000E+00
  Pulay mixing of updated and previous charge densities.

  Evaluating partitioned Hartree potential by multipole expansion.
  | Analytical far-field extrapolation by fixed multipoles:
  | Hartree multipole sum: apparent total charge =  -0.389982E-03
  Summing up the Hartree potential.
  Time summed over all CPUs for potential: real work        0.281 s, elapsed        0.281 s
  | RMS charge density error from multipole expansion :   0.226035E-01

  Integrating Hamiltonian matrix: batch-based integration.
  Time summed over all CPUs for integration: real work        0.495 s, elapsed        0.495 s

  Updating Kohn-Sham eigenvalues and eigenvectors using ELSI and the ELPA eigensolver.
  Finished Cholesky decomposition
  | Time :     0.000 s
  Finished transformation to standard eigenproblem
  | Time :     0.000 s
  Starting LAPACK eigensolver
  Finished solving standard eigenproblem
  | Time :     0.001 s
  Finished back-transformation of eigenvectors
  | Time :     0.000 s

  Obtaining occupation numbers and chemical potential using ELSI.
  | Chemical potential (Fermi level):    -3.06394435eV
  Highest occupied state (VBM) at     -5.64762215 eV
  | Occupation number:      2.00000000

  Lowest unoccupied state (CBM) at    -1.21873362 eV
  | Occupation number:      0.00000000

  Overall HOMO-LUMO gap:      4.42888853 eV.

  Total energy components:
  | Sum of eigenvalues            :        -180.66465208 Ha       -4916.13531336 eV
  | XC energy correction          :         -42.63286338 Ha       -1160.09923789 eV
  | XC potential correction       :          54.81282764 Ha        1491.53292848 eV
  | Free-atom electrostatic energy:        -146.83673719 Ha       -3995.63091445 eV
  | Hartree energy correction     :          -8.17972780 Ha        -222.58171819 eV
  | vdW energy correction         :           0.00000000 Ha           0.00000000 eV
  | Entropy correction            :           0.00000000 Ha           0.00000000 eV
  | ---------------------------
  | Total energy                  :        -323.50115281 Ha       -8802.91425542 eV
  | Total energy, T -> 0          :        -323.50115281 Ha       -8802.91425542 eV  <-- do not rely on this value for anything but (periodic) metals
  | Electronic free energy        :        -323.50115281 Ha       -8802.91425542 eV

  Derived energy quantities:
  | Kinetic energy                :         323.16642291 Ha        8793.80579142 eV
  | Electrostatic energy          :        -604.03471234 Ha      -16436.62080894 eV
  | Energy correction for multipole
  | error in Hartree potential    :           0.03815721 Ha           1.03831046 eV
  | Sum of eigenvalues per atom                           :        -378.16425487 eV
  | Total energy (T->0) per atom                          :        -677.14725042 eV  <-- do not rely on this value for anything but (periodic) metals
  | Electronic free energy per atom                       :        -677.14725042 eV

  Self-consistency convergence accuracy:
  | Change of charge density      :  0.2007E+00
  | Change of sum of eigenvalues  :  0.3408E+02 eV
  | Change of total energy        :  0.3203E+00 eV

  End self-consistency iteration #     3       :  max(cpu_time)    wall_clock(cpu1)
  | Time for this iteration                    :        1.182 s           1.183 s
  | Charge density update                      :        0.386 s           0.387 s
  | Density mixing                             :        0.008 s           0.008 s
  | Hartree multipole update                   :        0.009 s           0.009 s
  | Hartree multipole summation                :        0.282 s           0.282 s
  | Integration                                :        0.495 s           0.495 s
  | Solution of K.-S. eqns.                    :        0.002 s           0.002 s
  | Total energy evaluation                    :        0.000 s           0.000 s

  Partial memory accounting:
  | Current value for overall tracked memory usage on task 0  :           0.166 MB
  | Peak value for overall tracked memory usage on task 0     :           0.695 MB after allocating gradient_basis_wave
  | Largest tracked array allocation on task 0 so far         :           0.397 MB  when allocating gradient_basis_wave
  Note:  These values currently only include a subset of arrays which are explicitly tracked.
  The "true" memory usage will be greater.
------------------------------------------------------------

------------------------------------------------------------
          Begin self-consistency iteration #    4

  Date     :  20200710, Time     :  144906.600
------------------------------------------------------------
  Evaluating new KS density.
  Integration grid: deviation in total charge (<rho> - N_e) =   3.552714E-14
  Pulay mixing of updated and previous charge densities.

  Evaluating partitioned Hartree potential by multipole expansion.
  | Analytical far-field extrapolation by fixed multipoles:
  | Hartree multipole sum: apparent total charge =  -0.416994E-03
  Summing up the Hartree potential.
  Time summed over all CPUs for potential: real work        0.282 s, elapsed        0.282 s
  | RMS charge density error from multipole expansion :   0.259698E-01

  Integrating Hamiltonian matrix: batch-based integration.
  Time summed over all CPUs for integration: real work        0.495 s, elapsed        0.495 s

  Updating Kohn-Sham eigenvalues and eigenvectors using ELSI and the ELPA eigensolver.
  Finished Cholesky decomposition
  | Time :     0.000 s
  Finished transformation to standard eigenproblem
  | Time :     0.000 s
  Starting LAPACK eigensolver
  Finished solving standard eigenproblem
  | Time :     0.002 s
  Finished back-transformation of eigenvectors
  | Time :     0.000 s

  Obtaining occupation numbers and chemical potential using ELSI.
  | Chemical potential (Fermi level):    -2.93999501eV
  Highest occupied state (VBM) at     -5.47227723 eV
  | Occupation number:      2.00000000

  Lowest unoccupied state (CBM) at    -1.14990147 eV
  | Occupation number:      0.00000000

  Overall HOMO-LUMO gap:      4.32237576 eV.

  Total energy components:
  | Sum of eigenvalues            :        -180.52981257 Ha       -4912.46614350 eV
  | XC energy correction          :         -42.66926159 Ha       -1161.08968352 eV
  | XC potential correction       :          54.85864238 Ha        1492.77961082 eV
  | Free-atom electrostatic energy:        -146.83673719 Ha       -3995.63091445 eV
  | Hartree energy correction     :          -8.32322936 Ha        -226.48659440 eV
  | vdW energy correction         :           0.00000000 Ha           0.00000000 eV
  | Entropy correction            :           0.00000000 Ha           0.00000000 eV
  | ---------------------------
  | Total energy                  :        -323.50039834 Ha       -8802.89372504 eV
  | Total energy, T -> 0          :        -323.50039834 Ha       -8802.89372504 eV  <-- do not rely on this value for anything but (periodic) metals
  | Electronic free energy        :        -323.50039834 Ha       -8802.89372504 eV

  Derived energy quantities:
  | Kinetic energy                :         322.80217306 Ha        8783.89404845 eV
  | Electrostatic energy          :        -603.63330980 Ha      -16425.69808997 eV
  | Energy correction for multipole
  | error in Hartree potential    :           0.04218405 Ha           1.14788645 eV
  | Sum of eigenvalues per atom                           :        -377.88201104 eV
  | Total energy (T->0) per atom                          :        -677.14567116 eV  <-- do not rely on this value for anything but (periodic) metals
  | Electronic free energy per atom                       :        -677.14567116 eV

  Self-consistency convergence accuracy:
  | Change of charge density      :  0.6106E-01
  | Change of sum of eigenvalues  :  0.3669E+01 eV
  | Change of total energy        :  0.2053E-01 eV

  End self-consistency iteration #     4       :  max(cpu_time)    wall_clock(cpu1)
  | Time for this iteration                    :        1.183 s           1.185 s
  | Charge density update                      :        0.386 s           0.387 s
  | Density mixing                             :        0.009 s           0.009 s
  | Hartree multipole update                   :        0.009 s           0.009 s
  | Hartree multipole summation                :        0.282 s           0.282 s
  | Integration                                :        0.495 s           0.495 s
  | Solution of K.-S. eqns.                    :        0.002 s           0.002 s
  | Total energy evaluation                    :        0.000 s           0.000 s

  Partial memory accounting:
  | Current value for overall tracked memory usage on task 0  :           0.166 MB
  | Peak value for overall tracked memory usage on task 0     :           0.696 MB after allocating gradient_basis_wave
  | Largest tracked array allocation on task 0 so far         :           0.397 MB  when allocating gradient_basis_wave
  Note:  These values currently only include a subset of arrays which are explicitly tracked.
  The "true" memory usage will be greater.
------------------------------------------------------------

------------------------------------------------------------
          Begin self-consistency iteration #    5

  Date     :  20200710, Time     :  144907.787
------------------------------------------------------------
  Evaluating new KS density.
  Integration grid: deviation in total charge (<rho> - N_e) =   3.552714E-14
  Pulay mixing of updated and previous charge densities.

  Evaluating partitioned Hartree potential by multipole expansion.
  | Analytical far-field extrapolation by fixed multipoles:
  | Hartree multipole sum: apparent total charge =  -0.411333E-03
  Summing up the Hartree potential.
  Time summed over all CPUs for potential: real work        0.281 s, elapsed        0.281 s
  | RMS charge density error from multipole expansion :   0.257158E-01

  Integrating Hamiltonian matrix: batch-based integration.
  Time summed over all CPUs for integration: real work        0.494 s, elapsed        0.494 s

  Updating Kohn-Sham eigenvalues and eigenvectors using ELSI and the ELPA eigensolver.
  Finished Cholesky decomposition
  | Time :     0.000 s
  Finished transformation to standard eigenproblem
  | Time :     0.000 s
  Starting LAPACK eigensolver
  Finished solving standard eigenproblem
  | Time :     0.001 s
  Finished back-transformation of eigenvectors
  | Time :     0.000 s

  Obtaining occupation numbers and chemical potential using ELSI.
  | Chemical potential (Fermi level):    -2.99618022eV
  Highest occupied state (VBM) at     -5.54780474 eV
  | Occupation number:      2.00000000

  Lowest unoccupied state (CBM) at    -1.22400416 eV
  | Occupation number:      0.00000000

  Overall HOMO-LUMO gap:      4.32380058 eV.

  Total energy components:
  | Sum of eigenvalues            :        -180.69745995 Ha       -4917.02806088 eV
  | XC energy correction          :         -42.64832372 Ha       -1160.51993496 eV
  | XC potential correction       :          54.83150271 Ha        1492.04110308 eV
  | Free-atom electrostatic energy:        -146.83673719 Ha       -3995.63091445 eV
  | Hartree energy correction     :          -8.14908959 Ha        -221.74801005 eV
  | vdW energy correction         :           0.00000000 Ha           0.00000000 eV
  | Entropy correction            :           0.00000000 Ha           0.00000000 eV
  | ---------------------------
  | Total energy                  :        -323.50010773 Ha       -8802.88581726 eV
  | Total energy, T -> 0          :        -323.50010773 Ha       -8802.88581726 eV  <-- do not rely on this value for anything but (periodic) metals
  | Electronic free energy        :        -323.50010773 Ha       -8802.88581726 eV

  Derived energy quantities:
  | Kinetic energy                :         322.71230400 Ha        8781.44858703 eV
  | Electrostatic energy          :        -603.56408801 Ha      -16423.81446932 eV
  | Energy correction for multipole
  | error in Hartree potential    :           0.04158285 Ha           1.13152698 eV
  | Sum of eigenvalues per atom                           :        -378.23292776 eV
  | Total energy (T->0) per atom                          :        -677.14506287 eV  <-- do not rely on this value for anything but (periodic) metals
  | Electronic free energy per atom                       :        -677.14506287 eV

  Self-consistency convergence accuracy:
  | Change of charge density      :  0.2071E-01
  | Change of sum of eigenvalues  : -0.4562E+01 eV
  | Change of total energy        :  0.7908E-02 eV

  End self-consistency iteration #     5       :  max(cpu_time)    wall_clock(cpu1)
  | Time for this iteration                    :        1.184 s           1.185 s
  | Charge density update                      :        0.386 s           0.387 s
  | Density mixing                             :        0.011 s           0.011 s
  | Hartree multipole update                   :        0.009 s           0.008 s
  | Hartree multipole summation                :        0.282 s           0.282 s
  | Integration                                :        0.494 s           0.494 s
  | Solution of K.-S. eqns.                    :        0.002 s           0.003 s
  | Total energy evaluation                    :        0.000 s           0.000 s

  Partial memory accounting:
  | Current value for overall tracked memory usage on task 0  :           0.166 MB
  | Peak value for overall tracked memory usage on task 0     :           0.696 MB after allocating gradient_basis_wave
  | Largest tracked array allocation on task 0 so far         :           0.397 MB  when allocating gradient_basis_wave
  Note:  These values currently only include a subset of arrays which are explicitly tracked.
  The "true" memory usage will be greater.
------------------------------------------------------------

------------------------------------------------------------
          Begin self-consistency iteration #    6

  Date     :  20200710, Time     :  144908.974
------------------------------------------------------------
  Evaluating new KS density.
  Integration grid: deviation in total charge (<rho> - N_e) =   1.421085E-14
  Pulay mixing of updated and previous charge densities.

  Evaluating partitioned Hartree potential by multipole expansion.
  | Analytical far-field extrapolation by fixed multipoles:
  | Hartree multipole sum: apparent total charge =  -0.412711E-03
  Summing up the Hartree potential.
  Time summed over all CPUs for potential: real work        0.281 s, elapsed        0.281 s
  | RMS charge density error from multipole expansion :   0.260799E-01

  Integrating Hamiltonian matrix: batch-based integration.
  Time summed over all CPUs for integration: real work        0.494 s, elapsed        0.494 s

  Updating Kohn-Sham eigenvalues and eigenvectors using ELSI and the ELPA eigensolver.
  Finished Cholesky decomposition
  | Time :     0.000 s
  Finished transformation to standard eigenproblem
  | Time :     0.000 s
  Starting LAPACK eigensolver
  Finished solving standard eigenproblem
  | Time :     0.001 s
  Finished back-transformation of eigenvectors
  | Time :     0.000 s

  Obtaining occupation numbers and chemical potential using ELSI.
  | Chemical potential (Fermi level):    -3.00585774eV
  Highest occupied state (VBM) at     -5.53204670 eV
  | Occupation number:      2.00000000

  Lowest unoccupied state (CBM) at    -1.25422909 eV
  | Occupation number:      0.00000000

  Overall HOMO-LUMO gap:      4.27781762 eV.

  Total energy components:
  | Sum of eigenvalues            :        -180.73589975 Ha       -4918.07406119 eV
  | XC energy correction          :         -42.64287276 Ha       -1160.37160678 eV
  | XC potential correction       :          54.82441591 Ha        1491.84826131 eV
  | Free-atom electrostatic energy:        -146.83673719 Ha       -3995.63091445 eV
  | Hartree energy correction     :          -8.10895566 Ha        -220.65591043 eV
  | vdW energy correction         :           0.00000000 Ha           0.00000000 eV
  | Entropy correction            :           0.00000000 Ha           0.00000000 eV
  | ---------------------------
  | Total energy                  :        -323.50004946 Ha       -8802.88423154 eV
  | Total energy, T -> 0          :        -323.50004946 Ha       -8802.88423154 eV  <-- do not rely on this value for anything but (periodic) metals
  | Electronic free energy        :        -323.50004946 Ha       -8802.88423154 eV

  Derived energy quantities:
  | Kinetic energy                :         322.61855224 Ha        8778.89747179 eV
  | Electrostatic energy          :        -603.47572894 Ha      -16421.41009655 eV
  | Energy correction for multipole
  | error in Hartree potential    :           0.04178899 Ha           1.13713633 eV
  | Sum of eigenvalues per atom                           :        -378.31338932 eV
  | Total energy (T->0) per atom                          :        -677.14494089 eV  <-- do not rely on this value for anything but (periodic) metals
  | Electronic free energy per atom                       :        -677.14494089 eV

  Self-consistency convergence accuracy:
  | Change of charge density      :  0.1058E-01
  | Change of sum of eigenvalues  : -0.1046E+01 eV
  | Change of total energy        :  0.1586E-02 eV

  End self-consistency iteration #     6       :  max(cpu_time)    wall_clock(cpu1)
  | Time for this iteration                    :        1.185 s           1.186 s
  | Charge density update                      :        0.386 s           0.386 s
  | Density mixing                             :        0.012 s           0.012 s
  | Hartree multipole update                   :        0.009 s           0.008 s
  | Hartree multipole summation                :        0.282 s           0.282 s
  | Integration                                :        0.494 s           0.494 s
  | Solution of K.-S. eqns.                    :        0.002 s           0.002 s
  | Total energy evaluation                    :        0.000 s           0.000 s

  Partial memory accounting:
  | Current value for overall tracked memory usage on task 0  :           0.166 MB
  | Peak value for overall tracked memory usage on task 0     :           0.696 MB after allocating gradient_basis_wave
  | Largest tracked array allocation on task 0 so far         :           0.397 MB  when allocating gradient_basis_wave
  Note:  These values currently only include a subset of arrays which are explicitly tracked.
  The "true" memory usage will be greater.
------------------------------------------------------------

------------------------------------------------------------
          Begin self-consistency iteration #    7

  Date     :  20200710, Time     :  144910.162
------------------------------------------------------------
  Evaluating new KS density.
  Integration grid: deviation in total charge (<rho> - N_e) =   3.552714E-14
  Pulay mixing of updated and previous charge densities.

  Evaluating partitioned Hartree potential by multipole expansion.
  | Analytical far-field extrapolation by fixed multipoles:
  | Hartree multipole sum: apparent total charge =  -0.413663E-03
  Summing up the Hartree potential.
  Time summed over all CPUs for potential: real work        0.281 s, elapsed        0.281 s
  | RMS charge density error from multipole expansion :   0.262447E-01

  Integrating Hamiltonian matrix: batch-based integration.
  Time summed over all CPUs for integration: real work        0.495 s, elapsed        0.495 s

  Updating Kohn-Sham eigenvalues and eigenvectors using ELSI and the ELPA eigensolver.
  Finished Cholesky decomposition
  | Time :     0.000 s
  Finished transformation to standard eigenproblem
  | Time :     0.000 s
  Starting LAPACK eigensolver
  Finished solving standard eigenproblem
  | Time :     0.002 s
  Finished back-transformation of eigenvectors
  | Time :     0.000 s

[...]
  |   Hirshfeld dipole moment :      0.06359108
  |   Hirshfeld second moments:      0.01381408      -0.01556647      -0.01411336
  |                                 -0.01556647      -0.01183426       0.00638618
  |                                 -0.01411336       0.00638618      -0.02105724
  ----------------------------------------------------------------------
  | Atom    12: O
  |   Hirshfeld charge        :     -0.12999793
  |   Free atom volume        :     23.61338643
  |   Hirshfeld volume        :     20.42802267
  |   Hirshfeld dipole vector :      0.00934185       0.00818093       0.02666421
  |   Hirshfeld dipole moment :      0.02941390
  |   Hirshfeld second moments:      0.07868018       0.01838049      -0.02142362
  |                                  0.01838049       0.08049064      -0.01726483
  |                                 -0.02142362      -0.01726483       0.05693964
  ----------------------------------------------------------------------
  | Atom    13: H
  |   Hirshfeld charge        :      0.17644174
  |   Free atom volume        :      9.95071624
  |   Hirshfeld volume        :      6.29921300
  |   Hirshfeld dipole vector :     -0.06892051      -0.06650352       0.06412885
  |   Hirshfeld dipole moment :      0.11526173
  |   Hirshfeld second moments:      0.11732666       0.00125199      -0.01348961
  |                                  0.00125199       0.12385996      -0.00058569
  |                                 -0.01348961      -0.00058569       0.08755907
  ----------------------------------------------------------------------


  Total energy components:
  | Sum of eigenvalues            :        -180.72700870 Ha       -4917.83212325 eV
  | XC energy correction          :         -42.64060353 Ha       -1160.30985786 eV
  | XC potential correction       :          54.82155647 Ha        1491.77045193 eV
  | Free-atom electrostatic energy:        -146.83673719 Ha       -3995.63091445 eV
  | Hartree energy correction     :          -8.11723635 Ha        -220.88123930 eV
  | vdW energy correction         :          -0.00323234 Ha          -0.08795658 eV
  | Entropy correction            :           0.00000000 Ha           0.00000000 eV
  | ---------------------------
  | Total energy                  :        -323.50326164 Ha       -8802.97163951 eV
  | Total energy, T -> 0          :        -323.50326164 Ha       -8802.97163951 eV  <-- do not rely on this value for anything but (periodic) metals
  | Electronic free energy        :        -323.50326164 Ha       -8802.97163951 eV

  Derived energy quantities:
  | Kinetic energy                :         322.57831698 Ha        8777.80261467 eV
  | Electrostatic energy          :        -603.43774275 Ha      -16420.37643974 eV
  | Energy correction for multipole
  | error in Hartree potential    :           0.04187351 Ha           1.13943628 eV
  | Sum of eigenvalues per atom                           :        -378.29477871 eV
  | Total energy (T->0) per atom                          :        -677.15166458 eV  <-- do not rely on this value for anything but (periodic) metals
  | Electronic free energy per atom                       :        -677.15166458 eV

  atomic forces [eV/Ang]:
  -----------------------
  atom #    1
   Hellmann-Feynman              :  0.565095E+00 -0.184796E+00  0.721721E+00
   Ionic forces                  :  0.000000E+00  0.000000E+00  0.000000E+00
   Multipole                     : -0.335955E-01  0.427764E+00 -0.310539E+00
   Pulay + GGA                   : -0.114444E+01 -0.303731E+00 -0.114142E+01
   Van der Waals                 :  0.227298E-02  0.116351E-02 -0.171920E-02
   ----------------------------------------------------------------
   Total forces(   1)            : -0.610665E+00 -0.596000E-01 -0.731955E+00
  atom #    2
   Hellmann-Feynman              :  0.366577E+00 -0.774277E-02  0.145928E+00
   Ionic forces                  :  0.000000E+00  0.000000E+00  0.000000E+00
   Multipole                     :  0.173778E+00  0.275152E-01 -0.408438E-01
   Pulay + GGA                   : -0.149405E+00  0.169867E-01 -0.287716E-01
   Van der Waals                 :  0.643449E-02 -0.374586E-02 -0.589929E-02
   ----------------------------------------------------------------
   Total forces(   2)            :  0.397384E+00  0.330132E-01  0.704130E-01
  atom #    3
   Hellmann-Feynman              :  0.920476E+01 -0.873764E-01 -0.573820E+01
   Ionic forces                  :  0.000000E+00  0.000000E+00  0.000000E+00
   Multipole                     : -0.277591E+00  0.220145E+00 -0.121017E+01
   Pulay + GGA                   : -0.835029E+01 -0.238058E+00  0.742173E+01
   Van der Waals                 :  0.266020E-02 -0.760446E-02 -0.622521E-02
   ----------------------------------------------------------------
   Total forces(   3)            :  0.579539E+00 -0.112893E+00  0.467132E+00
  atom #    4
   Hellmann-Feynman              : -0.243919E+00  0.124649E+00 -0.152943E+00
   Ionic forces                  :  0.000000E+00  0.000000E+00  0.000000E+00
   Multipole                     : -0.691782E-01 -0.582700E-01 -0.651540E-01
   Pulay + GGA                   :  0.173572E+00  0.160014E+00  0.144871E-01
   Van der Waals                 : -0.207473E-02  0.112952E-02  0.422074E-02
   ----------------------------------------------------------------
   Total forces(   4)            : -0.141600E+00  0.227523E+00 -0.199389E+00
  atom #    5
   Hellmann-Feynman              : -0.330956E+00 -0.985567E-02 -0.322327E-01
   Ionic forces                  :  0.000000E+00  0.000000E+00  0.000000E+00
   Multipole                     : -0.692757E-01  0.435998E-01 -0.707123E-01
   Pulay + GGA                   :  0.184585E+00 -0.146559E+00 -0.118090E-01
   Van der Waals                 : -0.128023E-02 -0.769869E-02 -0.540782E-02
   ----------------------------------------------------------------
   Total forces(   5)            : -0.216926E+00 -0.120514E+00 -0.120162E+00
  atom #    6
   Hellmann-Feynman              : -0.653282E-01 -0.640359E+00  0.407111E+00
   Ionic forces                  :  0.000000E+00  0.000000E+00  0.000000E+00
   Multipole                     : -0.946504E-01  0.580575E+00  0.280684E+00
   Pulay + GGA                   :  0.358365E+00 -0.453439E+00 -0.437200E+00
   Van der Waals                 : -0.297798E-02  0.561113E-02 -0.121013E-02
   ----------------------------------------------------------------
   Total forces(   6)            :  0.195408E+00 -0.507612E+00  0.249386E+00
  atom #    7
   Hellmann-Feynman              : -0.234547E+00 -0.553172E-01 -0.263920E-01
   Ionic forces                  :  0.000000E+00  0.000000E+00  0.000000E+00
   Multipole                     : -0.118082E+00  0.481089E-01  0.256411E-01
   Pulay + GGA                   :  0.105126E+00 -0.338019E-03  0.119200E-01
   Van der Waals                 : -0.294455E-02  0.208327E-02  0.773853E-02
   ----------------------------------------------------------------
   Total forces(   7)            : -0.250448E+00 -0.546307E-02  0.189076E-01
  atom #    8
   Hellmann-Feynman              :  0.926442E-01  0.308069E-01  0.176671E+00
   Ionic forces                  :  0.000000E+00  0.000000E+00  0.000000E+00
   Multipole                     :  0.113662E-01  0.593069E-01  0.118696E+00
   Pulay + GGA                   : -0.440389E-01 -0.429354E-01 -0.113617E+00
   Van der Waals                 : -0.308102E-02  0.112860E-01  0.667497E-03
   ----------------------------------------------------------------
   Total forces(   8)            :  0.568904E-01  0.584644E-01  0.182417E+00
  atom #    9
   Hellmann-Feynman              :  0.134648E+00  0.376925E-01 -0.206031E+00
   Ionic forces                  :  0.000000E+00  0.000000E+00  0.000000E+00
   Multipole                     :  0.170760E-01  0.131139E+00 -0.100401E-01
   Pulay + GGA                   : -0.286080E-01 -0.888507E-01  0.592450E-01
   Van der Waals                 : -0.357794E-03  0.689294E-02  0.827184E-02
   ----------------------------------------------------------------
   Total forces(   9)            :  0.122759E+00  0.868739E-01 -0.148555E+00
  atom #   10
   Hellmann-Feynman              :  0.299862E+01  0.560789E+01  0.810239E+00
   Ionic forces                  :  0.000000E+00  0.000000E+00  0.000000E+00
   Multipole                     : -0.231221E-01 -0.990772E-01  0.181942E+00
   Pulay + GGA                   : -0.138055E+01 -0.327115E+01 -0.385982E+00
   Van der Waals                 :  0.298839E-02 -0.123289E-01  0.990398E-04
   ----------------------------------------------------------------
   Total forces(  10)            :  0.159793E+01  0.222534E+01  0.606298E+00
  atom #   11
   Hellmann-Feynman              :  0.410361E+01 -0.242330E+01  0.143061E+02
   Ionic forces                  :  0.000000E+00  0.000000E+00  0.000000E+00
   Multipole                     :  0.626318E-01 -0.512845E+00  0.781586E+00
   Pulay + GGA                   : -0.353584E+01  0.345738E+01 -0.134554E+02
   Van der Waals                 : -0.366485E-02 -0.116855E-01  0.785511E-03
   ----------------------------------------------------------------
   Total forces(  11)            :  0.626734E+00  0.509545E+00  0.163308E+01
  atom #   12
   Hellmann-Feynman              : -0.336485E+01 -0.713872E+00 -0.159909E+02
   Ionic forces                  :  0.000000E+00  0.000000E+00  0.000000E+00
   Multipole                     : -0.755881E+00 -0.111745E+01 -0.753306E+00
   Pulay + GGA                   :  0.195931E+01  0.596080E+00  0.147800E+02
   Van der Waals                 :  0.221686E-03  0.804691E-02  0.338042E-02
   ----------------------------------------------------------------
   Total forces(  12)            : -0.216120E+01 -0.122720E+01 -0.196078E+01
  atom #   13
   Hellmann-Feynman              : -0.331135E+00 -0.128851E+01  0.101071E+00
   Ionic forces                  :  0.000000E+00  0.000000E+00  0.000000E+00
   Multipole                     : -0.297604E-01 -0.210736E-01  0.792756E-01
   Pulay + GGA                   :  0.159858E+00  0.192297E+00 -0.242600E+00
   Van der Waals                 :  0.180340E-02  0.685019E-02 -0.470194E-02
   ----------------------------------------------------------------
   Total forces(  13)            : -0.199233E+00 -0.111043E+01 -0.669554E-01

  Timings for VdW correction (Tkatchenko-Scheffler 2009 or later):
  | CPU time:        0.088 s, Wall clock time:        0.089 s.
  Removing unitary transformations (pure translations, rotations) from forces on atoms.
  Atomic forces before filtering:
  | Net force on center of mass :  -0.342407E-02 -0.295513E-02 -0.163380E-03 eV/A
  | Net torque on center of mass:  -0.619172E-02  0.433089E-02  0.451135E-02 eV
  Atomic forces after filtering:
  | Net force on center of mass :   0.223008E-16 -0.178406E-15 -0.289910E-15 eV/A
  | Net torque on center of mass:  -0.188817E-15  0.578252E-15 -0.283225E-15 eV

  Energy and forces in a compact form:
  | Total energy uncorrected      :         -0.880297163951043E+04 eV
  | Total energy corrected        :         -0.880297163951043E+04 eV  <-- do not rely on this value for anything but (periodic) metals
  | Electronic free energy        :         -0.880297163951043E+04 eV
  Total atomic forces (unitary forces cleaned) [eV/Ang]:
  |   1         -0.610352643003507E+00         -0.594149795900536E-01         -0.731833077566646E+00
  |   2          0.397696398768758E+00          0.330611177548383E-01          0.707261988747969E-01
  |   3          0.580097960821330E+00         -0.112462618500702E+00          0.467170598622274E+00
  |   4         -0.141119662141140E+00          0.228040858629221E+00         -0.199554243207907E+00
  |   5         -0.216241551255386E+00         -0.119989256462501E+00         -0.120122298778120E+00
  |   6          0.195751352361334E+00         -0.507460748895880E+00          0.249587046790616E+00
  |   7         -0.250103843032041E+00         -0.517648311781853E-02          0.189220342309664E-01
  |   8          0.570552635894080E-01          0.584351847378680E-01          0.182683664969939E+00
  |   9          0.123302861980470E+00          0.870464118061303E-01         -0.148172032181990E+00
  |  10          0.159795310422469E+01          0.222547390759680E+01          0.606182153565154E+00
  |  11          0.626520947289816E+00          0.509495128135643E+00          0.163298043500183E+01
  |  12         -0.216116755042944E+01         -0.122688104198635E+01         -0.196113247497597E+01
  |  13         -0.199392639174290E+00         -0.111016748010720E+01         -0.674380053449385E-01

  ------------------------------------ 
  Start decomposition of the XC Energy 
  ------------------------------------ 
  X and C from original XC functional choice 
  Hartree-Fock Energy :          0.000000000 Ha              0.000000000 eV
  X Energy            :        -41.039506008 Ha          -1116.741777673 eV
  C Energy            :         -1.601097518 Ha            -43.568080184 eV
  Total XC Energy     :        -42.640603526 Ha          -1160.309857856 eV
  ------------------------------------ 
  LDA X and C from self-consistent density 
  X Energy LDA        :        -37.259662474 Ha          -1013.887001908 eV
  C Energy LDA        :         -3.138791103 Ha            -85.410851564 eV
  ------------------------------------ 
  End decomposition of the XC Energy 
  ------------------------------------ 

------------------------------------------------------------

------------------------------------------------------------------------------
  Final output of selected total energy values:

  The following output summarizes some interesting total energy values
  at the end of a run (AFTER all relaxation, molecular dynamics, etc.).

  | Total energy of the DFT / Hartree-Fock s.c.f. calculation      :          -8802.971639510 eV
  | Final zero-broadening corrected energy (caution - metals only) :          -8802.971639510 eV
  | For reference only, the value of 1 Hartree used in FHI-aims is :             27.211384500 eV

  Before relying on these values, please be sure to understand exactly which
  total energy value is referred to by a given number. Different objects may
  all carry the same name 'total energy'. Definitions:

  Total energy of the DFT / Hartree-Fock s.c.f. calculation:
  | Note that this energy does not include ANY quantities calculated after the
  | s.c.f. cycle, in particular not ANY RPA, MP2, etc. many-body perturbation terms.

  Final zero-broadening corrected energy:
  | For metallic systems only, a broadening of the occupation numbers at the Fermi
  | level can be extrapolated back to zero broadening by an electron-gas inspired
  | formula. For all systems that are not real metals, this value can be
  | meaningless and should be avoided.

------------------------------------------------------------------------------
  Methods described in the following list of references were used in this FHI-aims run.
  If you publish the results, please make sure to cite these reference if they apply.
  FHI-aims is an academic code, and for our developers (often, Ph.D. students
  and postdocs), scientific credit in the community is essential.
  Thank you for helping us!

  For any use of FHI-aims, please cite:

    Volker Blum, Ralf Gehrke, Felix Hanke, Paula Havu, Ville Havu,
    Xinguo Ren, Karsten Reuter, and Matthias Scheffler
    'Ab initio molecular simulations with numeric atom-centered orbitals'
    Computer Physics Communications 180, 2175-2196 (2009)
    http://dx.doi.org/10.1016/j.cpc.2009.06.022


  The scalable eigensolver library ELPA was used in your run.
  ELPA is essential especially for large systems on hundreds or thousands of CPUs.
  For ELPA, please cite:

    Andreas Marek, Volker Blum, Rainer Johanni, Ville Havu, Bruno Lang,
    Thomas Auckenthaler, Alexander Heinecke, Hans-Joachim Bungartz, and Hermann Lederer,
    'The ELPA Library - Scalable Parallel Eigenvalue Solutions
    for Electronic Structure Theory and Computational Science'
    The Journal of Physics: Condensed Matter 26, 213201 (2014).
    http://dx.doi.org/10.1088/0953-8984/26/21/213201


  The ELSI infrastructure was used in your run to solve the Kohn-Sham electronic structure.
  Please check out http://elsi-interchange.org to learn more.
  If scalability is important for your project, please acknowledge ELSI by citing:

    V. W-z. Yu, F. Corsetti, A. Garcia, W. P. Huhn, M. Jacquelin, W. Jia,
    B. Lange, L. Lin, J. Lu, W. Mi, A. Seifitokaldani, A. Vazquez-Mayagoitia,
    C. Yang, H. Yang, and V. Blum
    'ELSI: A unified software interface for Kohn-Sham electronic structure solvers'
    Computer Physics Communications 222, 267-285 (2018).
    http://dx.doi.org/10.1016/j.cpc.2017.09.007


  For the real-space grid partitioning and parallelization used in this calculation, please cite:

    Ville Havu, Volker Blum, Paula Havu, and Matthias Scheffler,
    'Efficient O(N) integration for all-electron electronic structure calculation'
    'using numerically tabulated basis functions'
    Journal of Computational Physics 228, 8367-8379 (2009).
    http://dx.doi.org/10.1016/j.jcp.2009.08.008

  Of course, there are many other important community references, e.g., those cited in the
  above references. Our list is limited to references that describe implementations in the
  FHI-aims code. The reason is purely practical (length of this list) - please credit others as well.

------------------------------------------------------------
          Leaving FHI-aims.
          Date     :  20200710, Time     :  144923.246

          Computational steps:
          | Number of self-consistency cycles          :           15
          | Number of SCF (re)initializations          :            1

          Detailed time accounting                     :  max(cpu_time)    wall_clock(cpu1)
          | Total time                                 :       21.458 s          21.528 s
          | Preparation time                           :        0.146 s           0.147 s
          | Boundary condition initalization           :        0.000 s           0.000 s
          | Grid partitioning                          :        0.112 s           0.112 s
          | Preloading free-atom quantities on grid    :        0.002 s           0.003 s
          | Free-atom superposition energy             :        0.085 s           0.084 s
          | Total time for integrations                :        8.124 s           8.125 s
          | Total time for solution of K.-S. equations :        0.034 s           0.036 s
          | Total time for density & force components  :        6.753 s           6.778 s
          | Total time for mixing                      :        0.200 s           0.199 s
          | Total time for Hartree multipole update    :        0.131 s           0.132 s
          | Total time for Hartree multipole sum       :        5.475 s           5.484 s
          | Total time for total energy evaluation     :        0.003 s           0.005 s
          | Total time for vdW correction              :        0.088 s           0.089 s

          Partial memory accounting:
          | Residual value for overall tracked memory usage across tasks :           0.000 MB (should be 0.000 MB)
          | Peak values for overall tracked memory usage (after allocating hessian_basis_wave):
          |   Minimum:        1.622 MB (on task 1)
          |   Maximum:        1.622 MB (on task 1)
          |   Average:        1.622 MB
          | Largest tracked array allocation (hessian_basis_wave):
          |   Minimum:        0.794 MB (on task 1)
          |   Maximum:        0.794 MB (on task 1)
          |   Average:        0.794 MB
          Note:  These values currently only include a subset of arrays which are explicitly tracked.
          The "true" memory usage will be greater.

          Have a nice day.
------------------------------------------------------------
